 Gaussian 16, Revision A.03,

 -----------------------------------------------------------
 # opt freq B3LYP/6-31G(d) empiricaldispersion=gd3bj scf=xqc
 -----------------------------------------------------------

 -------------------------------
 CID_113405011_JID_7702_neutraal
 -------------------------------
 Symbolic Z-matrix:
 Charge =  0 Multiplicity = 1

 SCF Done:  E(RB3LYP) =  -799.514032842     A.U. after   15 cycles
 SCF Done:  E(RB3LYP) =  -799.520501154     A.U. after   12 cycles
 SCF Done:  E(RB3LYP) =  -799.521834004     A.U. after   12 cycles
 SCF Done:  E(RB3LYP) =  -799.522398489     A.U. after   12 cycles
 SCF Done:  E(RB3LYP) =  -799.522388018     A.U. after   13 cycles
 SCF Done:  E(RB3LYP) =  -799.523135294     A.U. after   11 cycles
 SCF Done:  E(RB3LYP) =  -799.523675783     A.U. after   12 cycles
 SCF Done:  E(RB3LYP) =  -799.510194244     A.U. after   16 cycles
 SCF Done:  E(RB3LYP) =  -799.521764925     A.U. after   13 cycles
 SCF Done:  E(RB3LYP) =  -799.523860728     A.U. after   11 cycles
 SCF Done:  E(RB3LYP) =  -799.525060101     A.U. after    8 cycles
 SCF Done:  E(RB3LYP) =  -799.525060435     A.U. after    8 cycles
 SCF Done:  E(RB3LYP) =  -799.525060608     A.U. after    7 cycles
 SCF Done:  E(RB3LYP) =  -799.525060878     A.U. after    8 cycles
 SCF Done:  E(RB3LYP) =  -799.525060974     A.U. after    7 cycles
 Optimization completed.
    -- Stationary point found.
 Normal termination of Gaussian 16 at Sun Dec 13 12:44:18 2020.

 --------------------------------------------------------------------
 #N Geom=AllCheck Guess=TCheck SCRF=Check GenChk RB3LYP/6-31G(d) Freq
 --------------------------------------------------------------------

 Structure from the checkpoint file:  "JID_7702.chk"
 -------------------------------
 CID_113405011_JID_7702_neutraal
 -------------------------------
 Charge =  0 Multiplicity = 1

 SCF Done:  E(RB3LYP) =  -799.525060974     A.U. after    1 cycles

  Exact polarizability: 177.873  17.430 121.344  19.357 -11.344 142.359
 Approx polarizability: 246.170  29.973 176.545  41.427 -22.852 245.532

                      1                      2                      3
                      A                      A                      A
 Frequencies --     23.2783                26.4219                36.1765
 Red. masses --      4.3641                 4.6761                 4.7853
 Frc consts  --      0.0014                 0.0019                 0.0037
 IR Inten    --      0.6980                 1.3079                 1.7027

                      4                      5                      6
                      A                      A                      A
 Frequencies --     55.5426                66.5458                95.4403
 Red. masses --      3.7857                 4.6638                 2.4387
 Frc consts  --      0.0069                 0.0122                 0.0131
 IR Inten    --      1.1491                 4.1925                 8.2842

                      7                      8                      9
                      A                      A                      A
 Frequencies --    115.5715               135.2227               148.6608
 Red. masses --      2.9223                 2.7023                 1.3118
 Frc consts  --      0.0230                 0.0291                 0.0171
 IR Inten    --      0.5009                 0.6170                 1.6555

                     10                     11                     12
                      A                      A                      A
 Frequencies --    175.8842               192.5234               216.4602
 Red. masses --      2.2468                 1.3518                 4.2722
 Frc consts  --      0.0410                 0.0295                 0.1179
 IR Inten    --      2.3938                 4.4577                 3.0345

                     13                     14                     15
                      A                      A                      A
 Frequencies --    242.3093               254.6487               282.3485
 Red. masses --      3.1256                 3.0748                 1.9147
 Frc consts  --      0.1081                 0.1175                 0.0899
 IR Inten    --      1.9182                 1.7537                 9.2038

                     16                     17                     18
                      A                      A                      A
 Frequencies --    314.1993               316.6610               321.7666
 Red. masses --      3.7441                 2.8173                 2.8712
 Frc consts  --      0.2178                 0.1664                 0.1751
 IR Inten    --      3.6219                 3.4817                 3.3045

                     19                     20                     21
                      A                      A                      A
 Frequencies --    385.5087               426.5262               464.9195
 Red. masses --      2.5293                 2.1936                 2.3320
 Frc consts  --      0.2215                 0.2351                 0.2970
 IR Inten    --      2.4179                 2.6660                14.9322

                     22                     23                     24
                      A                      A                      A
 Frequencies --    487.5930               509.3255               532.4555
 Red. masses --      4.0662                 3.1020                 3.2732
 Frc consts  --      0.5696                 0.4741                 0.5467
 IR Inten    --     12.9350                18.5452                18.3937

                     25                     26                     27
                      A                      A                      A
 Frequencies --    545.7742               559.4342               575.2139
 Red. masses --      3.5761                 3.4103                 3.1834
 Frc consts  --      0.6276                 0.6288                 0.6206
 IR Inten    --     21.3566                25.9039                34.0437

                     28                     29                     30
                      A                      A                      A
 Frequencies --    589.8446               635.8614               673.6342
 Red. masses --      3.9230                 2.0229                 1.3397
 Frc consts  --      0.8042                 0.4819                 0.3582
 IR Inten    --     11.2333                71.9969                88.0047

                     31                     32                     33
                      A                      A                      A
 Frequencies --    740.5290               744.0905               755.4142
 Red. masses --      2.8051                 3.6228                 3.7881
 Frc consts  --      0.9063                 1.1818                 1.2736
 IR Inten    --     66.4552                55.2871                24.7402

                     34                     35                     36
                      A                      A                      A
 Frequencies --    812.0889               817.5623               821.7419
 Red. masses --      1.8579                 1.3393                 2.6734
 Frc consts  --      0.7219                 0.5274                 1.0636
 IR Inten    --     99.4980                36.8091                23.9920

                     37                     38                     39
                      A                      A                      A
 Frequencies --    864.5844               875.1234               928.1777
 Red. masses --      3.4429                 3.1578                 2.3846
 Frc consts  --      1.5163                 1.4248                 1.2104
 IR Inten    --     26.3872                15.9161                 2.2029

                     40                     41                     42
                      A                      A                      A
 Frequencies --    937.3870               943.6555               999.7736
 Red. masses --      2.7674                 1.3520                 3.0654
 Frc consts  --      1.4327                 0.7093                 1.8053
 IR Inten    --      8.7377                 0.4373                25.7057

                     43                     44                     45
                      A                      A                      A
 Frequencies --   1023.4499              1027.0445              1069.6634
 Red. masses --      2.0023                 1.6513                 1.4970
 Frc consts  --      1.2357                 1.0262                 1.0092
 IR Inten    --     19.6599                 6.7110                 1.8084

                     46                     47                     48
                      A                      A                      A
 Frequencies --   1101.9727              1122.0628              1138.8449
 Red. masses --      1.9214                 2.6014                 1.6530
 Frc consts  --      1.3747                 1.9297                 1.2632
 IR Inten    --     33.9630                10.2302                 9.7500

                     49                     50                     51
                      A                      A                      A
 Frequencies --   1153.0928              1173.1956              1195.8683
 Red. masses --      3.1089                 3.1058                 1.3787
 Frc consts  --      2.4355                 2.5186                 1.1617
 IR Inten    --     16.9274                72.8898                 7.7647

                     52                     53                     54
                      A                      A                      A
 Frequencies --   1207.6704              1225.2111              1240.7407
 Red. masses --      1.7853                 1.5171                 1.5965
 Frc consts  --      1.5341                 1.3418                 1.4481
 IR Inten    --     38.1619                23.5149                45.7202

                     55                     56                     57
                      A                      A                      A
 Frequencies --   1272.7761              1301.1555              1303.0723
 Red. masses --      2.0978                 1.7997                 1.7462
 Frc consts  --      2.0022                 1.7951                 1.7470
 IR Inten    --     67.5286                29.2039                17.3151

                     58                     59                     60
                      A                      A                      A
 Frequencies --   1318.7335              1329.8822              1363.2008
 Red. masses --      1.2165                 1.8545                 1.4780
 Frc consts  --      1.2465                 1.9324                 1.6182
 IR Inten    --     10.0872                10.8452                38.4055

                     61                     62                     63
                      A                      A                      A
 Frequencies --   1394.3673              1402.8422              1419.7390
 Red. masses --      1.7559                 2.2769                 1.2971
 Frc consts  --      2.0115                 2.6401                 1.5404
 IR Inten    --     43.0464                13.6809                12.9995

                     64                     65                     66
                      A                      A                      A
 Frequencies --   1433.4168              1441.1747              1460.6786
 Red. masses --      1.5747                 1.3980                 2.2205
 Frc consts  --      1.9063                 1.7108                 2.7913
 IR Inten    --     16.9413                11.9914                82.2925

                     67                     68                     69
                      A                      A                      A
 Frequencies --   1498.5407              1504.0522              1512.8549
 Red. masses --      1.1893                 1.3599                 1.3530
 Frc consts  --      1.5735                 1.8126                 1.8245
 IR Inten    --      6.6018                18.9303                56.3991

                     70                     71                     72
                      A                      A                      A
 Frequencies --   1517.1994              1517.7981              1519.2592
 Red. masses --      1.1223                 1.1043                 1.2410
 Frc consts  --      1.5220                 1.4989                 1.6876
 IR Inten    --      7.5153                 4.0428                11.2309

                     73                     74                     75
                      A                      A                      A
 Frequencies --   1526.9490              1530.0751              1535.6349
 Red. masses --      1.1761                 1.1747                 1.4073
 Frc consts  --      1.6156                 1.6203                 1.9553
 IR Inten    --     31.7256                 2.6805                23.7549

                     76                     77                     78
                      A                      A                      A
 Frequencies --   1545.8496              1552.5560              1624.9008
 Red. masses --      1.0714                 2.2426                 4.4681
 Frc consts  --      1.5085                 3.1849                 6.9506
 IR Inten    --      3.1086               172.4386                24.4457

                     79                     80                     81
                      A                      A                      A
 Frequencies --   1660.9880              1694.5980              1785.0046
 Red. masses --      4.5933                 1.2641                 7.9503
 Frc consts  --      7.4663                 2.1388                14.9249
 IR Inten    --    102.6747                65.9285               375.8505

                     82                     83                     84
                      A                      A                      A
 Frequencies --   2991.7933              3031.4271              3043.6109
 Red. masses --      1.0439                 1.0412                 1.0598
 Frc consts  --      5.5053                 5.6377                 5.7842
 IR Inten    --     55.4994                25.8755                53.6288

                     85                     86                     87
                      A                      A                      A
 Frequencies --   3055.5872              3067.2076              3079.2198
 Red. masses --      1.0943                 1.0688                 1.0996
 Frc consts  --      6.0199                 5.9243                 6.1429
 IR Inten    --     30.2257                18.7567                19.9103

                     88                     89                     90
                      A                      A                      A
 Frequencies --   3089.3542              3098.3623              3134.3796
 Red. masses --      1.0625                 1.1020                 1.0987
 Frc consts  --      5.9745                 6.2330                 6.3595
 IR Inten    --     33.9743                45.6936                34.0681

                     91                     92                     93
                      A                      A                      A
 Frequencies --   3135.2700              3136.7367              3155.5906
 Red. masses --      1.1017                 1.0975                 1.1028
 Frc consts  --      6.3805                 6.3625                 6.4703
 IR Inten    --     11.1359                12.9546                 4.1366

                     94                     95                     96
                      A                      A                      A
 Frequencies --   3179.5279              3205.9643              3490.8268
 Red. masses --      1.0880                 1.0947                 1.0538
 Frc consts  --      6.4804                 6.6294                 7.5662
 IR Inten    --     16.9416                27.4049                 4.1818

                     97                     98                     99
                      A                      A                      A
 Frequencies --   3582.4775              3586.5593              3614.7154
 Red. masses --      1.0759                 1.0751                 1.0900
 Frc consts  --      8.1358                 8.1479                 8.3912
 IR Inten    --     29.3573                17.8262                10.2151

 - Thermochemistry -
 -------------------
 Temperature   298.150 Kelvin.  Pressure   1.00000 Atm.
 Atom     1 has atomic number  6 and mass  12.00000

 Molecular mass:   238.14298 amu.
 Principal axes and moments of inertia in atomic units:
                           1         2         3
     Eigenvalues --  2605.204936070.799706606.60276
           X            0.99998   0.00161  -0.00568
           Y           -0.00206   0.99671  -0.08096
           Z            0.00553   0.08097   0.99670
 This molecule is an asymmetric top.
 Rotational symmetry number  1.
 Warning -- assumption of classical behavior for rotation
           may cause significant error
 Rotational temperatures (Kelvin)      0.03325     0.01427     0.01311
 Rotational constants (GHZ):           0.69274     0.29728     0.27317
 Zero-point vibrational energy     783378.2 (Joules/Mol)
                                  187.23188 (Kcal/Mol)
 Warning -- explicit consideration of  28 degrees of freedom as
           vibrations may cause significant error
 Vibrational temperatures:     33.49    38.02    52.05    79.91    95.74
          (Kelvin)            137.32   166.28   194.56   213.89   253.06
                              277.00   311.44   348.63   366.38   406.24
                              452.06   455.60   462.95   554.66   613.68
                              668.92   701.54   732.81   766.08   785.25
                              804.90   827.60   848.65   914.86   969.21
                             1065.46  1070.58  1086.87  1168.41  1176.29
                             1182.30  1243.94  1259.11  1335.44  1348.69
                             1357.71  1438.45  1472.52  1477.69  1539.01
                             1585.49  1614.40  1638.54  1659.04  1687.97
                             1720.59  1737.57  1762.81  1785.15  1831.24
                             1872.07  1874.83  1897.36  1913.40  1961.34
                             2006.18  2018.38  2042.69  2062.37  2073.53
                             2101.59  2156.07  2164.00  2176.66  2182.91
                             2183.77  2185.88  2196.94  2201.44  2209.44
                             2224.13  2233.78  2337.87  2389.79  2438.15
                             2568.22  4304.52  4361.55  4379.08  4396.31
                             4413.03  4430.31  4444.89  4457.85  4509.67
                             4510.95  4513.06  4540.19  4574.63  4612.67
                             5022.52  5154.39  5160.26  5200.77

 Zero-point correction=                           0.298373 (Hartree/Particle)
 Thermal correction to Energy=                    0.316284
 Thermal correction to Enthalpy=                  0.317228
 Thermal correction to Gibbs Free Energy=         0.250541
 Sum of electronic and zero-point Energies=           -799.226688
 Sum of electronic and thermal Energies=              -799.208777
 Sum of electronic and thermal Enthalpies=            -799.207833
 Sum of electronic and thermal Free Energies=         -799.274520

                     E (Thermal)             CV                S
                      KCal/Mol        Cal/Mol-Kelvin    Cal/Mol-Kelvin
 Total                  198.471             65.733            140.355
 Electronic               0.000              0.000              0.000
 Translational            0.889              2.981             42.304
 Rotational               0.889              2.981             33.013
 Vibrational            196.694             59.771             65.038
 Vibration     1          0.593              1.985              6.333
 Vibration     2          0.593              1.985              6.081
 Vibration     3          0.594              1.982              5.458
 Vibration     4          0.596              1.975              4.610
 Vibration     5          0.598              1.970              4.253
 Vibration     6          0.603              1.952              3.545
 Vibration     7          0.608              1.936              3.173
 Vibration     8          0.613              1.918              2.870
 Vibration     9          0.618              1.904              2.689
 Vibration    10          0.628              1.872              2.372
 Vibration    11          0.635              1.850              2.203
 Vibration    12          0.645              1.816              1.989
 Vibration    13          0.659              1.775              1.786
 Vibration    14          0.665              1.755              1.698
 Vibration    15          0.681              1.706              1.519
 Vibration    16          0.702              1.647              1.340
 Vibration    17          0.704              1.642              1.327
 Vibration    18          0.707              1.632              1.301
 Vibration    19          0.754              1.501              1.017
 Vibration    20          0.788              1.413              0.870
 Vibration    21          0.822              1.328              0.752
 Vibration    22          0.844              1.278              0.690
 Vibration    23          0.864              1.229              0.635
 Vibration    24          0.887              1.178              0.582
 Vibration    25          0.901              1.149              0.553
 Vibration    26          0.915              1.119              0.525
 Vibration    27          0.932              1.085              0.494
 Vibration    28          0.947              1.053              0.467

                           ! Non-Optimized Parameters !
 Normal termination of Gaussian 16 at Sun Dec 13 12:57:56 2020.

 ----------------------------------------------------------------------
 # B3LYP/6-311++G(d,p) empiricaldispersion=gd3bj scf=xqc pop=npa geom=c
 heck
 ----------------------------------------------------------------------

 ---------------------------------------
 CID_113405011_JID_7702_Energie_neutraal
 ---------------------------------------
 Structure from the checkpoint file:  "JID_7702.chk"
 Charge =  0 Multiplicity = 1

 SCF Done:  E(RB3LYP) =  -799.764883089     A.U. after   16 cycles
 Normal termination of Gaussian 16 at Sun Dec 13 13:05:14 2020.

 ----------------------------------------------------------------------
 # B3LYP/6-311++G(d,p) empiricaldispersion=gd3bj scf=xqc pop=npa geom=c
 heck
 ----------------------------------------------------------------------

 -------------------------------------
 CID_113405011_JID_7702_Energie_kation
 -------------------------------------
 Structure from the checkpoint file:  "JID_7702.chk"
 Charge =  1 Multiplicity = 2

 SCF Done:  E(UB3LYP) =  -799.488809046     A.U. after   24 cycles
 Normal termination of Gaussian 16 at Sun Dec 13 13:21:02 2020.
 Gaussian 16:  ES64L-G16RevA.03 25-Dec-2016

 ----------------------------------------------------------------------
 # B3LYP/6-311++G(d,p) empiricaldispersion=gd3bj scf=xqc pop=npa geom=c
 heck
 ----------------------------------------------------------------------

 ------------------------------------
 CID_113405011_JID_7702_Energie_anion
 ------------------------------------
 Structure from the checkpoint file:  "JID_7702.chk"
 Charge = -1 Multiplicity = 2

                         Standard orientation:
 ---------------------------------------------------------------------
 Center     Atomic      Atomic             Coordinates (Angstroms)
 Number     Number       Type             X           Y           Z
 ---------------------------------------------------------------------
      1          6           0        4.259631    1.229602   -0.578181
      2          6           0        3.189859    0.311678   -0.045321
      3          6           0        2.009007    0.102686   -0.756328
      4          6           0        1.045352   -0.791755   -0.217640
      5          7           0        1.181932   -1.379074    0.969442
      6          6           0        2.313955   -1.151417    1.656823
      7          6           0        3.339033   -0.347903    1.187178
      8          7           0       -0.117452   -0.995803   -0.948975
      9          6           0       -1.120719   -1.976209   -0.548310
     10          6           0       -2.505713   -1.325152   -0.491328
     11          8           0       -3.324675   -1.500616   -1.387384
     12          7           0       -2.787445   -0.541721    0.594092
     13          6           0       -1.862629    0.015756    1.570060
     14          6           0       -1.327254    1.388327    1.154480
     15          8           0       -2.398520    2.278797    0.862155
     16          6           0       -2.565553    2.542114   -0.518353
     17          7           0        1.727563    0.693294   -2.006583
     18          1           0        4.678542    0.860119   -1.523330
     19          1           0        5.083569    1.324816    0.133698
     20          1           0        3.868778    2.238878   -0.767663
     21          1           0        2.391435   -1.648931    2.620778
     22          1           0        4.242138   -0.207797    1.773176
     23          1           0        0.010044   -0.897347   -1.948673
     24          1           0       -1.189207   -2.783612   -1.282611
     25          1           0       -0.818295   -2.397430    0.411876
     26          1           0       -3.675284   -0.060325    0.510025
     27          1           0       -2.402448    0.114651    2.518361
     28          1           0       -1.026373   -0.668576    1.733883
     29          1           0       -0.743846    1.816191    1.980007
     30          1           0       -0.665887    1.281260    0.287094
     31          1           0       -1.674232    3.028640   -0.947091
     32          1           0       -2.777682    1.631881   -1.096702
     33          1           0       -3.413498    3.226354   -0.609931
     34          1           0        0.799892    1.111783   -2.035177
     35          1           0        2.415918    1.380769   -2.290226
 ---------------------------------------------------------------------

 SCF Done:  E(UB3LYP) =  -799.759087366     A.U. after   33 cycles
 SCF Done:  E(UB3LYP) =  -799.759087367     a.u. after    1 cycles

 The electronic state is 2-A.
 Alpha  occ. eigenvalues --  -19.03933 -19.00639 -14.25378 -14.24321 -14.22008
 Alpha  occ. eigenvalues --  -14.21174 -10.18922 -10.14894 -10.12926 -10.12458
 Alpha  occ. eigenvalues --  -10.12393 -10.12050 -10.11677 -10.10591 -10.09515
 Alpha  occ. eigenvalues --  -10.07577 -10.06973  -0.95723  -0.94961  -0.88618
 Alpha  occ. eigenvalues --   -0.84091  -0.81699  -0.81363  -0.71001  -0.67688
 Alpha  occ. eigenvalues --   -0.66285  -0.62744  -0.60612  -0.59737  -0.53904
 Alpha  occ. eigenvalues --   -0.53456  -0.51276  -0.48715  -0.46126  -0.42547
 Alpha  occ. eigenvalues --   -0.42196  -0.40752  -0.40577  -0.39602  -0.39337
 Alpha  occ. eigenvalues --   -0.38102  -0.36975  -0.36540  -0.35347  -0.34099
 Alpha  occ. eigenvalues --   -0.33190  -0.32011  -0.31939  -0.31547  -0.30717
 Alpha  occ. eigenvalues --   -0.30409  -0.29242  -0.28938  -0.27941  -0.27458
 Alpha  occ. eigenvalues --   -0.23883  -0.22946  -0.21846  -0.19175  -0.17868
 Alpha  occ. eigenvalues --   -0.17457  -0.16356  -0.15636  -0.10962   0.04061
 Alpha virt. eigenvalues --    0.06647   0.06758   0.07331   0.07844   0.08226
 Alpha virt. eigenvalues --    0.08441   0.08965   0.09420   0.09535   0.10002
 Alpha virt. eigenvalues --    0.10262   0.10804   0.11685   0.11816   0.12438

  Beta  occ. eigenvalues --  -19.03926 -19.00637 -14.25375 -14.24306 -14.21927
  Beta  occ. eigenvalues --  -14.21172 -10.18922 -10.14894 -10.12914 -10.12455
  Beta  occ. eigenvalues --  -10.12391 -10.12018 -10.11671 -10.10589 -10.09513
  Beta  occ. eigenvalues --  -10.07569 -10.06900  -0.95719  -0.94950  -0.88601
  Beta  occ. eigenvalues --   -0.84085  -0.81681  -0.81269  -0.70961  -0.67671
  Beta  occ. eigenvalues --   -0.66257  -0.62706  -0.60540  -0.59695  -0.53867
  Beta  occ. eigenvalues --   -0.53416  -0.51239  -0.48689  -0.46096  -0.42538
  Beta  occ. eigenvalues --   -0.42157  -0.40706  -0.40511  -0.39576  -0.39306
  Beta  occ. eigenvalues --   -0.38085  -0.36945  -0.36509  -0.35307  -0.34075
  Beta  occ. eigenvalues --   -0.33156  -0.31991  -0.31907  -0.31528  -0.30678
  Beta  occ. eigenvalues --   -0.30385  -0.29223  -0.28886  -0.27918  -0.27412
  Beta  occ. eigenvalues --   -0.23852  -0.22899  -0.21822  -0.19162  -0.17860
  Beta  occ. eigenvalues --   -0.17449  -0.16342  -0.15609  -0.10926
  Beta virt. eigenvalues --    0.06411   0.07099   0.07288   0.07379   0.07931
  Beta virt. eigenvalues --    0.08511   0.08829   0.09058   0.09489   0.09879
  Beta virt. eigenvalues --    0.10381   0.10790   0.11096   0.11933   0.12153

 Mulliken charges and spin densities:
               1          2
     1  C    4.737155  -5.154887
     2  C   -2.360724   3.353257
     3  C    0.192765  -0.425676
     4  C    0.305716  -0.956891
     5  N   -0.084691   0.018652
     6  C    0.435887  -0.435385
     7  C   -1.881515   1.136082
     8  N   -0.033385  -0.042571
     9  C   -0.290291  -0.082629
    10  C    0.007375  -0.004556
    11  O   -0.325423   0.006741
    12  N   -0.152027  -0.015820
    13  C   -0.156050   0.006099
    14  C   -0.903663   0.383297
    15  O   -0.110901   0.006153
    16  C    0.334539  -0.697065
    17  N   -0.296666  -0.070913
    18  H   -0.361292   0.545602
    19  H   -0.421485   0.574823
    20  H   -0.597421   0.777628
    21  H    0.126647   0.031480
    22  H   -0.242376   0.372534
    23  H    0.184196   0.132541
    24  H    0.112556   0.077727
    25  H    0.216357  -0.009376
    26  H    0.295393   0.016777
    27  H    0.187271   0.008966
    28  H    0.163371  -0.022906
    29  H   -0.089694   0.258307
    30  H    1.061745  -0.853585
    31  H   -0.462222   0.613534
    32  H    0.029968   0.149387
    33  H   -0.040734   0.184114
    34  H   -0.065462   0.307371
    35  H   -0.514918   0.811187
 Sum of Mulliken charges =  -1.00000   1.00000

 Dipole moment (field-independent basis, Debye):
    X=             -5.8982    Y=             -6.3053    Z=              6.4775  Tot=             10.7938
 Quadrupole moment (field-independent basis, Debye-Ang):
   XX=           -185.6169   YY=           -153.5137   ZZ=           -142.4986
   XY=            -17.9281   XZ=              4.0553   YZ=              7.6264

 Summary of Natural Population Analysis:

                                       Natural Population
                Natural  -----------------------------------------------
    Atom  No    Charge         Core      Valence    Rydberg      Total
 -----------------------------------------------------------------------
      C    1   -0.30070      0.99964     2.29435    0.00671     3.30070
      C    2   -0.01192      0.99948     2.00171    0.01073     3.01192
      C    3    0.05388      0.99939     1.93385    0.01288     2.94612
      C    4    0.18958      0.99949     1.79506    0.01587     2.81042
      N    5   -0.27484      0.99966     2.76542    0.00976     3.77484
      C    6    0.01609      0.99958     1.96982    0.01451     2.98391
      C    7   -0.13167      0.99951     2.12277    0.00938     3.13167
      N    8   -0.32351      0.99967     2.81329    0.01056     3.82351
      C    9   -0.13455      0.99958     2.12382    0.01115     3.13455
      C   10    0.33949      0.99968     1.63852    0.02231     2.66051
      O   11   -0.32402      0.99988     3.31804    0.00610     4.32402
      N   12   -0.31757      0.99967     2.80862    0.00928     3.81757
      C   13   -0.10844      0.99961     2.09920    0.00963     3.10844
      C   14   -0.01651      0.99957     2.00420    0.01273     3.01651
      O   15   -0.30635      0.99989     3.29682    0.00964     4.30635
      C   16   -0.09999      0.99961     2.09038    0.01000     3.09999
      N   17   -0.40763      0.99972     2.89668    0.01122     3.90763
      H   18    0.10922      0.00000     0.38889    0.00189     0.39078
      H   19    0.10598      0.00000     0.39239    0.00162     0.39402
      H   20    0.11246      0.00000     0.38413    0.00341     0.38754
      H   21    0.08684      0.00000     0.41220    0.00097     0.41316
      H   22    0.10263      0.00000     0.39651    0.00086     0.39737
      H   23    0.19827      0.00000     0.29907    0.00266     0.30173
      H   24    0.10319      0.00000     0.39585    0.00096     0.39681
      H   25    0.11715      0.00000     0.38162    0.00123     0.38285
      H   26    0.19389      0.00000     0.30359    0.00252     0.30611
      H   27    0.09365      0.00000     0.40533    0.00102     0.40635
      H   28    0.11472      0.00000     0.38389    0.00139     0.38528
      H   29    0.08896      0.00000     0.40983    0.00121     0.41104
      H   30    0.08975      0.00000     0.40756    0.00269     0.41025
      H   31    0.08543      0.00000     0.41271    0.00187     0.41457
      H   32    0.08190      0.00000     0.41667    0.00143     0.41810
      H   33    0.08751      0.00000     0.41152    0.00097     0.41249
      H   34    0.18967      0.00000     0.30493    0.00540     0.31033
      H   35    0.19743      0.00000     0.29410    0.00847     0.30257
 =======================================================================
   * Total *   -0.00000     16.99363    46.77334    0.23303    64.00000

 Normal termination of Gaussian 16 at Sun Dec 13 13:42:33 2020.
