 Gaussian 16, Revision A.03,

 -----------------------------------------------------------
 # opt freq B3LYP/6-31G(d) empiricaldispersion=gd3bj scf=xqc
 -----------------------------------------------------------

 ------------------------------
 CID_21749620_JID_4254_neutraal
 ------------------------------
 Symbolic Z-matrix:
 Charge =  0 Multiplicity = 1

 SCF Done:  E(RB3LYP) =  -993.470155864     A.U. after   15 cycles
 SCF Done:  E(RB3LYP) =  -993.477127607     A.U. after   13 cycles
 SCF Done:  E(RB3LYP) =  -993.475800096     A.U. after   12 cycles
 SCF Done:  E(RB3LYP) =  -993.478281005     A.U. after   12 cycles
 SCF Done:  E(RB3LYP) =  -993.479222289     A.U. after   13 cycles
 SCF Done:  E(RB3LYP) =  -993.480062771     A.U. after   12 cycles
 SCF Done:  E(RB3LYP) =  -993.480248937     A.U. after   12 cycles
 SCF Done:  E(RB3LYP) =  -993.480425524     A.U. after   12 cycles
 SCF Done:  E(RB3LYP) =  -993.480493898     A.U. after   12 cycles
 SCF Done:  E(RB3LYP) =  -993.480565920     A.U. after   12 cycles
 SCF Done:  E(RB3LYP) =  -993.480763834     A.U. after   12 cycles
 SCF Done:  E(RB3LYP) =  -993.480764668     A.U. after    9 cycles
 SCF Done:  E(RB3LYP) =  -993.480766528     A.U. after    9 cycles
 SCF Done:  E(RB3LYP) =  -993.480767344     A.U. after    9 cycles
 SCF Done:  E(RB3LYP) =  -993.480767364     A.U. after    8 cycles
 Optimization completed.
    -- Stationary point found.
 Normal termination of Gaussian 16 at Thu Dec 10 09:31:15 2020.

 --------------------------------------------------------------------
 #N Geom=AllCheck Guess=TCheck SCRF=Check GenChk RB3LYP/6-31G(d) Freq
 --------------------------------------------------------------------

 Structure from the checkpoint file:  "JID_4254.chk"
 ------------------------------
 CID_21749620_JID_4254_neutraal
 ------------------------------
 Charge =  0 Multiplicity = 1

 SCF Done:  E(RB3LYP) =  -993.480767364     A.U. after    1 cycles

  Exact polarizability: 158.240  -0.132 133.539  16.398   6.756  92.869
 Approx polarizability: 215.670  -0.567 224.165  29.345  20.715 149.101

                      1                      2                      3
                      A                      A                      A
 Frequencies --     21.6609                45.9093                55.4599
 Red. masses --      4.7157                 4.3593                 4.6516
 Frc consts  --      0.0013                 0.0054                 0.0084
 IR Inten    --      2.5270                 0.1291                 0.9232

                      4                      5                      6
                      A                      A                      A
 Frequencies --     92.7875               122.9862               150.3596
 Red. masses --      4.0663                 4.4428                 3.4674
 Frc consts  --      0.0206                 0.0396                 0.0462
 IR Inten    --      0.2296                 2.3924                 5.1539

                      7                      8                      9
                      A                      A                      A
 Frequencies --    174.8196               209.7766               231.6186
 Red. masses --      3.9224                 3.4040                 2.3696
 Frc consts  --      0.0706                 0.0883                 0.0749
 IR Inten    --      3.8228                 3.2476                 7.6681

                     10                     11                     12
                      A                      A                      A
 Frequencies --    277.3742               300.0409               350.2565
 Red. masses --      2.6461                 1.4220                 2.4597
 Frc consts  --      0.1199                 0.0754                 0.1778
 IR Inten    --      7.3219                47.7905                 0.6513

                     13                     14                     15
                      A                      A                      A
 Frequencies --    360.3422               390.9172               416.5122
 Red. masses --      3.1143                 3.7465                 3.0271
 Frc consts  --      0.2383                 0.3373                 0.3094
 IR Inten    --      1.2769                 2.5041                16.8215

                     16                     17                     18
                      A                      A                      A
 Frequencies --    422.9367               460.4890               498.2616
 Red. masses --      2.9069                 3.4800                 5.2532
 Frc consts  --      0.3064                 0.4348                 0.7684
 IR Inten    --      4.3589                 8.6687                38.4569

                     19                     20                     21
                      A                      A                      A
 Frequencies --    507.1505               572.1829               618.7258
 Red. masses --      4.1035                 2.9559                 4.2902
 Frc consts  --      0.6218                 0.5702                 0.9677
 IR Inten    --      1.7029                 8.3643                 3.9643

                     22                     23                     24
                      A                      A                      A
 Frequencies --    638.3320               721.1506               733.1879
 Red. masses --      6.2511                 1.9913                 2.6349
 Frc consts  --      1.5007                 0.6101                 0.8345
 IR Inten    --      0.4574                26.2246                63.4485

                     25                     26                     27
                      A                      A                      A
 Frequencies --    767.0360               788.1278               856.9583
 Red. masses --      1.9681                 3.1267                 1.9869
 Frc consts  --      0.6822                 1.1443                 0.8597
 IR Inten    --     29.3718                 4.0559                20.9974

                     28                     29                     30
                      A                      A                      A
 Frequencies --    866.6425               870.5788               874.8512
 Red. masses --      1.3413                 1.2516                 1.8849
 Frc consts  --      0.5936                 0.5589                 0.8500
 IR Inten    --    115.1228                 6.8017                23.5209

                     31                     32                     33
                      A                      A                      A
 Frequencies --    935.3711               964.9188               976.7806
 Red. masses --      1.4015                 1.9520                 1.5129
 Frc consts  --      0.7225                 1.0708                 0.8505
 IR Inten    --      2.0235                 6.6661                 4.2389

                     34                     35                     36
                      A                      A                      A
 Frequencies --    981.3259              1004.0401              1022.3398
 Red. masses --      1.5524                 1.2902                 5.5259
 Frc consts  --      0.8808                 0.7663                 3.4029
 IR Inten    --     13.2925                 4.9704                 0.8168

                     37                     38                     39
                      A                      A                      A
 Frequencies --   1024.3180              1063.1186              1090.3700
 Red. masses --      1.9639                 2.2192                 3.1396
 Frc consts  --      1.2141                 1.4778                 2.1992
 IR Inten    --      3.4239                 2.0006                 0.1862

                     40                     41                     42
                      A                      A                      A
 Frequencies --   1096.5422              1107.5091              1118.1317
 Red. masses --      2.3726                 3.2173                 1.8099
 Frc consts  --      1.6809                 2.3251                 1.3332
 IR Inten    --     55.2129                80.6031                23.2874

                     43                     44                     45
                      A                      A                      A
 Frequencies --   1146.8973              1178.7972              1193.6934
 Red. masses --      1.3199                 1.1482                 1.1313
 Frc consts  --      1.0229                 0.9400                 0.9498
 IR Inten    --     16.1583                 2.5641                 1.0875

                     46                     47                     48
                      A                      A                      A
 Frequencies --   1195.6334              1219.7922              1241.1995
 Red. masses --      1.1201                 1.1828                 2.1831
 Frc consts  --      0.9434                 1.0369                 1.9816
 IR Inten    --      2.0196                 0.6763                 0.5708

                     49                     50                     51
                      A                      A                      A
 Frequencies --   1286.5607              1298.2435              1308.6716
 Red. masses --      1.5028                 2.5678                 1.4538
 Frc consts  --      1.4656                 2.5499                 1.4669
 IR Inten    --     26.0395               127.0829                16.5907

                     52                     53                     54
                      A                      A                      A
 Frequencies --   1342.4270              1362.1059              1375.3468
 Red. masses --      1.5242                 3.6946                 1.4199
 Frc consts  --      1.6183                 4.0387                 1.5824
 IR Inten    --     21.2033                 0.1175                 0.3742

                     55                     56                     57
                      A                      A                      A
 Frequencies --   1389.7184              1395.5919              1403.0048
 Red. masses --      1.3348                 1.3760                 1.4165
 Frc consts  --      1.5189                 1.5790                 1.6428
 IR Inten    --      1.3698                 1.1589                11.0276

                     58                     59                     60
                      A                      A                      A
 Frequencies --   1483.6711              1504.4304              1509.1526
 Red. masses --      1.0920                 1.7832                 1.2326
 Frc consts  --      1.4162                 2.3779                 1.6541
 IR Inten    --      8.1333                 7.9960                 2.0296

                     61                     62                     63
                      A                      A                      A
 Frequencies --   1517.8794              1521.1529              1550.7547
 Red. masses --      1.0903                 1.0933                 2.1884
 Frc consts  --      1.4800                 1.4905                 3.1007
 IR Inten    --      8.2117                 5.7223                11.6098

                     64                     65                     66
                      A                      A                      A
 Frequencies --   1646.3153              1669.0537              1680.8773
 Red. masses --      5.4534                 5.4086                 1.0917
 Frc consts  --      8.7086                 8.8772                 1.8173
 IR Inten    --      0.5875                 4.0883                42.4693

                     67                     68                     69
                      A                      A                      A
 Frequencies --   3015.2775              3058.3653              3062.3510
 Red. masses --      1.0700                 1.0637                 1.0625
 Frc consts  --      5.7315                 5.8620                 5.8705
 IR Inten    --     31.2716                19.3335                20.2083

                     70                     71                     72
                      A                      A                      A
 Frequencies --   3092.1576              3099.9451              3109.5595
 Red. masses --      1.0706                 1.0933                 1.0999
 Frc consts  --      6.0309                 6.1902                 6.2659
 IR Inten    --      6.3127                10.6511                34.5117

                     73                     74                     75
                      A                      A                      A
 Frequencies --   3141.9613              3158.6325              3170.6478
 Red. masses --      1.0931                 1.1020                 1.0871
 Frc consts  --      6.3578                 6.4778                 6.4388
 IR Inten    --      6.2256                 0.9069                10.3280

                     76                     77                     78
                      A                      A                      A
 Frequencies --   3178.5600              3188.2320              3196.2895
 Red. masses --      1.0874                 1.0902                 1.0937
 Frc consts  --      6.4729                 6.5293                 6.5835
 IR Inten    --      2.6754                 4.6691                27.2935

                     79                     80                     81
                      A                      A                      A
 Frequencies --   3208.8626              3489.1465              3576.8182
 Red. masses --      1.0978                 1.0492                 1.0943
 Frc consts  --      6.6599                 7.5256                 8.2484
 IR Inten    --     30.2041                 5.3882                 8.2623

 - Thermochemistry -
 -------------------
 Temperature   298.150 Kelvin.  Pressure   1.00000 Atm.
 Atom     1 has atomic number  6 and mass  12.00000

 Molecular mass:   213.08235 amu.
 Principal axes and moments of inertia in atomic units:
                           1         2         3
     Eigenvalues --  1425.230045626.249236177.86600
           X            0.99991  -0.00711   0.01148
           Y            0.00727   0.99988  -0.01398
           Z           -0.01138   0.01407   0.99984
 This molecule is an asymmetric top.
 Rotational symmetry number  1.
 Warning -- assumption of classical behavior for rotation
           may cause significant error
 Rotational temperatures (Kelvin)      0.06077     0.01539     0.01402
 Rotational constants (GHZ):           1.26628     0.32077     0.29213
 Zero-point vibrational energy     639702.9 (Joules/Mol)
                                  152.89267 (Kcal/Mol)
 Warning -- explicit consideration of  21 degrees of freedom as
           vibrations may cause significant error
 Vibrational temperatures:     31.17    66.05    79.79   133.50   176.95
          (Kelvin)            216.33   251.53   301.82   333.25   399.08
                              431.69   503.94   518.45   562.44   599.27
                              608.51   662.54   716.89   729.68   823.24
                              890.21   918.42  1037.57  1054.89  1103.59
                             1133.94  1232.97  1246.91  1252.57  1258.72
                             1345.79  1388.30  1405.37  1411.91  1444.59
                             1470.92  1473.77  1529.59  1568.80  1577.68
                             1593.46  1608.74  1650.13  1696.03  1717.46
                             1720.25  1755.01  1785.81  1851.07  1867.88
                             1882.89  1931.45  1959.77  1978.82  1999.49
                             2007.95  2018.61  2134.67  2164.54  2171.33
                             2183.89  2188.60  2231.19  2368.68  2401.40
                             2418.41  4338.31  4400.31  4406.04  4448.93
                             4460.13  4473.96  4520.58  4544.57  4561.86
                             4573.24  4587.15  4598.75  4616.84  5020.10
                             5146.24

 Zero-point correction=                           0.243650 (Hartree/Particle)
 Thermal correction to Energy=                    0.257673
 Thermal correction to Enthalpy=                  0.258617
 Thermal correction to Gibbs Free Energy=         0.201346
 Sum of electronic and zero-point Energies=           -993.237117
 Sum of electronic and thermal Energies=              -993.223094
 Sum of electronic and thermal Enthalpies=            -993.222150
 Sum of electronic and thermal Free Energies=         -993.279421

                     E (Thermal)             CV                S
                      KCal/Mol        Cal/Mol-Kelvin    Cal/Mol-Kelvin
 Total                  161.692             53.132            120.538
 Electronic               0.000              0.000              0.000
 Translational            0.889              2.981             41.973
 Rotational               0.889              2.981             32.271
 Vibrational            159.915             47.170             46.294
 Vibration     1          0.593              1.985              6.476
 Vibration     2          0.595              1.979              4.986
 Vibration     3          0.596              1.975              4.613
 Vibration     4          0.602              1.954              3.600
 Vibration     5          0.610              1.930              3.053
 Vibration     6          0.618              1.902              2.668
 Vibration     7          0.627              1.873              2.383
 Vibration     8          0.642              1.826              2.046
 Vibration     9          0.653              1.793              1.866
 Vibration    10          0.678              1.715              1.550
 Vibration    11          0.693              1.674              1.417
 Vibration    12          0.727              1.575              1.165
 Vibration    13          0.735              1.554              1.121
 Vibration    14          0.759              1.490              0.997
 Vibration    15          0.780              1.434              0.904
 Vibration    16          0.785              1.420              0.882
 Vibration    17          0.818              1.338              0.765
 Vibration    18          0.854              1.254              0.662
 Vibration    19          0.862              1.234              0.640
 Vibration    20          0.928              1.091              0.500
 Vibration    21          0.979              0.992              0.419

 Optimization completed.
    -- Stationary point found.
 Normal termination of Gaussian 16 at Thu Dec 10 09:39:23 2020.

 ----------------------------------------------------------------------
 # B3LYP/6-311++G(d,p) empiricaldispersion=gd3bj scf=xqc pop=npa geom=c
 heck
 ----------------------------------------------------------------------

 --------------------------------------
 CID_21749620_JID_4254_Energie_neutraal
 --------------------------------------
 Structure from the checkpoint file:  "JID_4254.chk"
 Charge =  0 Multiplicity = 1

 SCF Done:  E(RB3LYP) =  -993.682288918     A.U. after   15 cycles
 Normal termination of Gaussian 16 at Thu Dec 10 09:43:22 2020.

 ----------------------------------------------------------------------
 # B3LYP/6-311++G(d,p) empiricaldispersion=gd3bj scf=xqc pop=npa geom=c
 heck
 ----------------------------------------------------------------------

 ------------------------------------
 CID_21749620_JID_4254_Energie_kation
 ------------------------------------
 Structure from the checkpoint file:  "JID_4254.chk"
 Charge =  1 Multiplicity = 2

 SCF Done:  E(UB3LYP) =  -993.359594758     A.U. after   27 cycles
 Normal termination of Gaussian 16 at Thu Dec 10 09:53:39 2020.
 Gaussian 16:  ES64L-G16RevA.03 25-Dec-2016

 ----------------------------------------------------------------------
 # B3LYP/6-311++G(d,p) empiricaldispersion=gd3bj scf=xqc pop=npa geom=c
 heck
 ----------------------------------------------------------------------

 -----------------------------------
 CID_21749620_JID_4254_Energie_anion
 -----------------------------------
 Structure from the checkpoint file:  "JID_4254.chk"
 Charge = -1 Multiplicity = 2

                         Standard orientation:
 ---------------------------------------------------------------------
 Center     Atomic      Atomic             Coordinates (Angstroms)
 Number     Number       Type             X           Y           Z
 ---------------------------------------------------------------------
      1          6           0        4.155046    0.790084    0.661023
      2          6           0        3.035270    1.557865    0.341369
      3          6           0        1.924304    0.965440   -0.261946
      4          6           0        1.916862   -0.405121   -0.551117
      5          6           0        3.046808   -1.166401   -0.225621
      6          6           0        4.158066   -0.576543    0.374796
      7          6           0        0.700155   -1.068349   -1.156254
      8          6           0       -0.220693   -1.707799   -0.095092
      9          6           0       -0.874045   -0.712716    0.867963
     10         16           0       -2.524189   -0.132743    0.373868
     11          8           0       -3.337215   -1.295038   -0.025019
     12          8           0       -2.987900    0.787640    1.429813
     13          6           0       -2.314114    0.893135   -1.120587
     14          7           0       -1.446788    2.010896   -0.816925
     15          1           0        5.020548    1.251974    1.127706
     16          1           0        3.025133    2.622312    0.560319
     17          1           0        1.047134    1.561340   -0.502834
     18          1           0        3.055632   -2.231047   -0.449999
     19          1           0        5.027717   -1.181922    0.615545
     20          1           0        0.143309   -0.336679   -1.750508
     21          1           0        1.015927   -1.858412   -1.847871
     22          1           0       -1.000533   -2.308926   -0.576365
     23          1           0        0.380564   -2.402478    0.502553
     24          1           0       -1.093320   -1.170522    1.837856
     25          1           0       -0.267568    0.178308    1.042995
     26          1           0       -1.881598    0.262360   -1.900146
     27          1           0       -3.354485    1.127218   -1.396075
     28          1           0       -1.278816    2.568102   -1.651170
     29          1           0       -1.890133    2.607603   -0.120969
 ---------------------------------------------------------------------

 SCF Done:  E(UB3LYP) =  -993.675531941     A.U. after   33 cycles
 SCF Done:  E(UB3LYP) =  -993.675531941     a.u. after    1 cycles

 The electronic state is 2-A.
 Alpha  occ. eigenvalues --  -88.94392 -19.01853 -19.01694 -14.21434 -10.13814
 Alpha  occ. eigenvalues --  -10.11666 -10.09537 -10.08673 -10.08342 -10.08330
 Alpha  occ. eigenvalues --  -10.08129 -10.08074 -10.08049 -10.07329  -8.00974
 Alpha  occ. eigenvalues --   -5.97235  -5.97102  -5.97068  -1.00887  -0.90639
 Alpha  occ. eigenvalues --   -0.81087  -0.76795  -0.72659  -0.67659  -0.65302
 Alpha  occ. eigenvalues --   -0.63418  -0.60971  -0.54306  -0.51461  -0.49654
 Alpha  occ. eigenvalues --   -0.47996  -0.43573  -0.42020  -0.40773  -0.39498
 Alpha  occ. eigenvalues --   -0.38424  -0.37212  -0.36567  -0.35316  -0.34768
 Alpha  occ. eigenvalues --   -0.33939  -0.32866  -0.32513  -0.32215  -0.29372
 Alpha  occ. eigenvalues --   -0.28246  -0.27169  -0.26134  -0.24697  -0.24221
 Alpha  occ. eigenvalues --   -0.23662  -0.22714  -0.20977  -0.19764  -0.16647
 Alpha  occ. eigenvalues --   -0.16274  -0.15609   0.03984
 Alpha virt. eigenvalues --    0.05847   0.06628   0.07445   0.07702   0.08084
 Alpha virt. eigenvalues --    0.08542   0.08580   0.09822   0.10470   0.10749
 Alpha virt. eigenvalues --    0.11164   0.12527   0.12640   0.13306   0.13514

  Beta  occ. eigenvalues --  -88.94392 -19.01851 -19.01684 -14.21359 -10.13777
  Beta  occ. eigenvalues --  -10.11658 -10.09528 -10.08646 -10.08329 -10.08310
  Beta  occ. eigenvalues --  -10.08117 -10.08055 -10.08036 -10.07314  -8.00973
  Beta  occ. eigenvalues --   -5.97234  -5.97102  -5.97069  -1.00877  -0.90627
  Beta  occ. eigenvalues --   -0.80972  -0.76751  -0.72632  -0.67607  -0.65265
  Beta  occ. eigenvalues --   -0.63331  -0.60897  -0.54255  -0.51423  -0.49601
  Beta  occ. eigenvalues --   -0.47949  -0.43526  -0.41966  -0.40728  -0.39435
  Beta  occ. eigenvalues --   -0.38361  -0.37167  -0.36515  -0.35282  -0.34732
  Beta  occ. eigenvalues --   -0.33901  -0.32831  -0.32483  -0.32160  -0.29340
  Beta  occ. eigenvalues --   -0.28195  -0.27134  -0.26085  -0.24666  -0.24181
  Beta  occ. eigenvalues --   -0.23643  -0.22700  -0.20966  -0.19730  -0.16583
  Beta  occ. eigenvalues --   -0.16221  -0.15479
  Beta virt. eigenvalues --    0.06111   0.07055   0.07345   0.07573   0.07841
  Beta virt. eigenvalues --    0.08463   0.08942   0.09168   0.10351   0.10960
  Beta virt. eigenvalues --    0.11164   0.11343   0.12502   0.13008   0.13500

 Mulliken charges and spin densities:
               1          2
     1  C    0.808605  -1.078970
     2  C   -0.025320  -0.179515
     3  C   -0.889463   0.217650
     4  C   -0.190369   1.300533
     5  C   -0.825410   0.631281
     6  C    0.238568  -0.615566
     7  C    1.281278  -1.639430
     8  C    0.040425  -0.551927
     9  C   -0.487867  -0.078921
    10  S    0.303360   0.084294
    11  O   -0.198229   0.008402
    12  O   -0.254003   0.032452
    13  C    0.711827  -1.415552
    14  N   -0.360689   0.025561
    15  H   -0.002133   0.144084
    16  H   -0.385874   0.564035
    17  H    0.611859  -0.320783
    18  H   -0.302634   0.459870
    19  H   -0.269793   0.427836
    20  H   -0.421980   0.576415
    21  H   -0.257166   0.466654
    22  H    0.192880   0.003502
    23  H    0.034054   0.105672
    24  H    0.212665   0.037642
    25  H    0.240702  -0.010212
    26  H   -0.149979   0.393091
    27  H   -0.119295   0.357420
    28  H   -0.597282   0.881671
    29  H    0.061264   0.172810
 Sum of Mulliken charges =  -1.00000   1.00000

 Dipole moment (field-independent basis, Debye):
    X=              1.4345    Y=             -3.2837    Z=              3.7249  Tot=              5.1687
 Quadrupole moment (field-independent basis, Debye-Ang):
   XX=           -165.7461   YY=           -136.7993   ZZ=           -131.1243
   XY=              4.4450   XZ=              0.0631   YZ=              4.6420

 Summary of Natural Population Analysis:

                                       Natural Population
                Natural  -----------------------------------------------
    Atom  No    Charge         Core      Valence    Rydberg      Total
 -----------------------------------------------------------------------
      C    1   -0.10439      0.99956     2.09501    0.00982     3.10439
      C    2   -0.09779      0.99956     2.08891    0.00931     3.09779
      C    3   -0.10704      0.99950     2.09717    0.01037     3.10704
      C    4   -0.01379      0.99951     2.00298    0.01131     3.01379
      C    5   -0.10270      0.99951     2.09315    0.01004     3.10270
      C    6   -0.10050      0.99956     2.09124    0.00969     3.10050
      C    7   -0.19892      0.99959     2.18885    0.01048     3.19892
      C    8   -0.19974      0.99961     2.19027    0.00986     3.19974
      C    9   -0.29077      0.99957     2.28056    0.01064     3.29077
      S   10    1.01011      4.99927     1.89703    0.09358     6.98989
      O   11   -0.47391      0.99991     3.46845    0.00555     4.47391
      O   12   -0.47539      0.99991     3.46980    0.00568     4.47539
      C   13   -0.18344      0.99962     2.16717    0.01664     3.18344
      N   14   -0.42993      0.99976     2.91675    0.01341     3.92993
      H   15    0.09871      0.00000     0.40043    0.00086     0.40129
      H   16    0.10087      0.00000     0.39817    0.00096     0.39913
      H   17    0.11611      0.00000     0.38172    0.00217     0.38389
      H   18    0.09949      0.00000     0.39929    0.00122     0.40051
      H   19    0.09915      0.00000     0.39988    0.00098     0.40085
      H   20    0.10381      0.00000     0.39351    0.00268     0.39619
      H   21    0.10531      0.00000     0.39321    0.00147     0.39469
      H   22    0.11115      0.00000     0.38767    0.00118     0.38885
      H   23    0.10293      0.00000     0.39596    0.00111     0.39707
      H   24    0.11641      0.00000     0.38255    0.00104     0.38359
      H   25    0.12520      0.00000     0.37322    0.00158     0.37480
      H   26    0.10822      0.00000     0.38977    0.00201     0.39178
      H   27    0.10214      0.00000     0.39607    0.00179     0.39786
      H   28    0.19317      0.00000     0.29022    0.01661     0.30683
      H   29    0.18552      0.00000     0.31219    0.00229     0.31448
 =======================================================================
   * Total *    0.00000     17.99444    38.74122    0.26434    57.00000

 Normal termination of Gaussian 16 at Thu Dec 10 10:06:04 2020.
