 Gaussian 16, Revision A.03,

 -----------------------------------------------------------
 # opt freq B3LYP/6-31G(d) empiricaldispersion=gd3bj scf=xqc
 -----------------------------------------------------------

 ------------------------------
 CID_65967018_JID_4751_neutraal
 ------------------------------
 Symbolic Z-matrix:
 Charge =  0 Multiplicity = 1

 SCF Done:  E(RB3LYP) =  -686.546585230     A.U. after   14 cycles
 SCF Done:  E(RB3LYP) =  -686.550984113     A.U. after   12 cycles
 SCF Done:  E(RB3LYP) =  -686.551699857     A.U. after   11 cycles
 SCF Done:  E(RB3LYP) =  -686.551889525     A.U. after   10 cycles
 SCF Done:  E(RB3LYP) =  -686.551949773     A.U. after   11 cycles
 SCF Done:  E(RB3LYP) =  -686.551978922     A.U. after   10 cycles
 SCF Done:  E(RB3LYP) =  -686.552009500     A.U. after   11 cycles
 SCF Done:  E(RB3LYP) =  -686.552022179     A.U. after   10 cycles
 SCF Done:  E(RB3LYP) =  -686.552029142     A.U. after   10 cycles
 SCF Done:  E(RB3LYP) =  -686.552031838     A.U. after   10 cycles
 SCF Done:  E(RB3LYP) =  -686.552032396     A.U. after    8 cycles
 SCF Done:  E(RB3LYP) =  -686.552032504     A.U. after    7 cycles
 Optimization completed.
    -- Stationary point found.
 Normal termination of Gaussian 16 at Thu Dec 10 10:31:45 2020.

 --------------------------------------------------------------------
 #N Geom=AllCheck Guess=TCheck SCRF=Check GenChk RB3LYP/6-31G(d) Freq
 --------------------------------------------------------------------

 Structure from the checkpoint file:  "JID_4751.chk"
 ------------------------------
 CID_65967018_JID_4751_neutraal
 ------------------------------
 Charge =  0 Multiplicity = 1

 SCF Done:  E(RB3LYP) =  -686.552032504     A.U. after    1 cycles

  Exact polarizability: 117.140  -2.647 111.058  -9.486  -4.789 100.794
 Approx polarizability: 144.466 -10.652 166.103 -19.491  -7.451 163.127

                      1                      2                      3
                      A                      A                      A
 Frequencies --     26.0643                31.2360                48.2072
 Red. masses --      4.4684                 5.2109                 5.2631
 Frc consts  --      0.0018                 0.0030                 0.0072
 IR Inten    --      0.1623                 0.1087                 0.4010

                      4                      5                      6
                      A                      A                      A
 Frequencies --     96.5409               106.6668               186.5178
 Red. masses --      4.7097                 3.8296                 2.8953
 Frc consts  --      0.0259                 0.0257                 0.0593
 IR Inten    --      0.7706                 0.5485                 0.0754

                      7                      8                      9
                      A                      A                      A
 Frequencies --    197.3115               253.8279               266.6601
 Red. masses --      3.3082                 5.1442                 2.4227
 Frc consts  --      0.0759                 0.1953                 0.1015
 IR Inten    --      2.9336                 0.7310                10.9635

                     10                     11                     12
                      A                      A                      A
 Frequencies --    334.3315               353.4368               372.3948
 Red. masses --      2.8072                 2.2194                 2.3302
 Frc consts  --      0.1849                 0.1633                 0.1904
 IR Inten    --      1.0544                 0.6695                 8.1330

                     13                     14                     15
                      A                      A                      A
 Frequencies --    436.7395               462.1724               498.5066
 Red. masses --      4.4588                 8.1694                 2.2567
 Frc consts  --      0.5011                 1.0281                 0.3304
 IR Inten    --      3.7919                 1.6827                 2.6639

                     16                     17                     18
                      A                      A                      A
 Frequencies --    545.1386               643.3128               649.8865
 Red. masses --      2.6340                 4.2810                 2.2233
 Frc consts  --      0.4612                 1.0438                 0.5532
 IR Inten    --      5.5995                 5.0899                 6.2004

                     19                     20                     21
                      A                      A                      A
 Frequencies --    665.2380               745.0002               816.5634
 Red. masses --      3.1250                 2.6702                 1.4777
 Frc consts  --      0.8148                 0.8732                 0.5805
 IR Inten    --     22.0209                10.5667                12.4458

                     22                     23                     24
                      A                      A                      A
 Frequencies --    825.5485               841.8055               852.0775
 Red. masses --      2.0403                 1.8813                 1.5646
 Frc consts  --      0.8193                 0.7855                 0.6693
 IR Inten    --     42.7362                66.6469                30.4168

                     25                     26                     27
                      A                      A                      A
 Frequencies --    890.1282               910.2911               920.6225
 Red. masses --      2.7795                 1.8141                 2.3429
 Frc consts  --      1.2975                 0.8856                 1.1699
 IR Inten    --     38.0419                20.3025                17.6357

                     28                     29                     30
                      A                      A                      A
 Frequencies --    943.9284               962.6876               981.0178
 Red. masses --      6.5084                 2.2118                 3.6086
 Frc consts  --      3.4167                 1.2077                 2.0462
 IR Inten    --      0.5283                22.0759                12.0489

                     31                     32                     33
                      A                      A                      A
 Frequencies --   1004.6249              1055.3938              1113.5205
 Red. masses --      2.8547                 2.4507                 2.2866
 Frc consts  --      1.6976                 1.6083                 1.6704
 IR Inten    --     17.0574                 4.7834                 3.3294

                     34                     35                     36
                      A                      A                      A
 Frequencies --   1122.2810              1127.2496              1133.9189
 Red. masses --      2.7365                 2.6676                 3.8245
 Frc consts  --      2.0307                 1.9972                 2.8973
 IR Inten    --     41.6916                17.0486                43.4507

                     37                     38                     39
                      A                      A                      A
 Frequencies --   1137.7523              1143.0494              1151.9203
 Red. masses --      3.0815                 3.7320                 3.6097
 Frc consts  --      2.3503                 2.8729                 2.8221
 IR Inten    --     35.6493                85.4168                 3.1508

                     40                     41                     42
                      A                      A                      A
 Frequencies --   1161.7091              1167.1166              1228.4831
 Red. masses --      2.3107                 4.7211                 2.1336
 Frc consts  --      1.8373                 3.7890                 1.8972
 IR Inten    --     21.9356                89.8673                 5.9893

                     43                     44                     45
                      A                      A                      A
 Frequencies --   1249.2102              1264.4564              1273.1075
 Red. masses --      1.6627                 1.1416                 1.2147
 Frc consts  --      1.5287                 1.0754                 1.1600
 IR Inten    --      9.8806                12.9325                 2.0699

                     46                     47                     48
                      A                      A                      A
 Frequencies --   1294.6671              1320.7540              1332.6130
 Red. masses --      1.2303                 1.2492                 1.3474
 Frc consts  --      1.2150                 1.2839                 1.4098
 IR Inten    --      3.2094                15.5223                 2.5514

                     49                     50                     51
                      A                      A                      A
 Frequencies --   1341.6458              1371.0463              1384.1172
 Red. masses --      1.2563                 1.8995                 1.2923
 Frc consts  --      1.3323                 2.1038                 1.4587
 IR Inten    --      8.8305                 0.9900                19.7166

                     52                     53                     54
                      A                      A                      A
 Frequencies --   1388.1543              1411.0525              1426.9027
 Red. masses --      1.2749                 1.2681                 1.3346
 Frc consts  --      1.4474                 1.4877                 1.6011
 IR Inten    --      6.9697                32.6862                 7.7679

                     55                     56                     57
                      A                      A                      A
 Frequencies --   1440.8062              1451.7374              1489.9915
 Red. masses --      1.3389                 1.5848                 1.0797
 Frc consts  --      1.6375                 1.9679                 1.4123
 IR Inten    --      3.1494                 0.5904                 1.8845

                     58                     59                     60
                      A                      A                      A
 Frequencies --   1507.9511              1514.5651              1519.9494
 Red. masses --      1.0849                 1.1202                 1.1469
 Frc consts  --      1.4535                 1.5140                 1.5612
 IR Inten    --      0.2009                12.3535                13.0161

                     61                     62                     63
                      A                      A                      A
 Frequencies --   1523.4054              1537.1655              1558.2317
 Red. masses --      1.1756                 1.0874                 5.1721
 Frc consts  --      1.6074                 1.5139                 7.3991
 IR Inten    --     27.5419                 9.6820                30.8131

                     64                     65                     66
                      A                      A                      A
 Frequencies --   1642.2384              2973.7919              2991.8088
 Red. masses --      6.6863                 1.0696                 1.0709
 Frc consts  --     10.6245                 5.5730                 5.6475
 IR Inten    --      1.9286                21.3115                31.8601

                     67                     68                     69
                      A                      A                      A
 Frequencies --   2999.6566              3009.6144              3015.7562
 Red. masses --      1.0713                 1.0708                 1.0773
 Frc consts  --      5.6795                 5.7144                 5.7725
 IR Inten    --     32.4097                11.7371               123.5917

                     70                     71                     72
                      A                      A                      A
 Frequencies --   3054.5296              3055.9912              3098.6356
 Red. masses --      1.0660                 1.0849                 1.1051
 Frc consts  --      5.8599                 5.9694                 6.2514
 IR Inten    --     19.9357                47.7758                15.1808

                     73                     74                     75
                      A                      A                      A
 Frequencies --   3110.4370              3111.2629              3112.9974
 Red. masses --      1.0967                 1.0946                 1.0956
 Frc consts  --      6.2514                 6.2430                 6.2555
 IR Inten    --     47.0808                41.8010                29.4281

                     76                     77                     78
                      A                      A                      A
 Frequencies --   3276.7170              3296.5030              3503.2327
 Red. masses --      1.0976                 1.0991                 1.0735
 Frc consts  --      6.9431                 7.0373                 7.7624
 IR Inten    --      4.4489                 0.3767                 6.8369

 - Thermochemistry -
 -------------------
 Temperature   298.150 Kelvin.  Pressure   1.00000 Atm.
 Atom     1 has atomic number  6 and mass  12.00000

 Molecular mass:   198.10044 amu.
 Principal axes and moments of inertia in atomic units:
                           1         2         3
     Eigenvalues --  1234.945355855.052306060.07507
           X            0.99993   0.01142  -0.00186
           Y           -0.01152   0.99761  -0.06817
           Z            0.00108   0.06819   0.99767
 This molecule is an asymmetric top.
 Rotational symmetry number  1.
 Warning -- assumption of classical behavior for rotation
           may cause significant error
 Rotational temperatures (Kelvin)      0.07014     0.01479     0.01429
 Rotational constants (GHZ):           1.46139     0.30824     0.29781
 Zero-point vibrational energy     623646.7 (Joules/Mol)
                                  149.05513 (Kcal/Mol)
 Warning -- explicit consideration of  16 degrees of freedom as
           vibrations may cause significant error
 Vibrational temperatures:     37.50    44.94    69.36   138.90   153.47
          (Kelvin)            268.36   283.89   365.20   383.66   481.03
                              508.52   535.79   628.37   664.96   717.24
                              784.33   925.58   935.04   957.13  1071.89
                             1174.85  1187.78  1211.17  1225.95  1280.70
                             1309.71  1324.57  1358.10  1385.09  1411.47
                             1445.43  1518.48  1602.11  1614.71  1621.86
                             1631.46  1636.97  1644.59  1657.36  1671.44
                             1679.22  1767.51  1797.33  1819.27  1831.72
                             1862.74  1900.27  1917.33  1930.33  1972.63
                             1991.44  1997.24  2030.19  2052.99  2073.00
                             2088.73  2143.77  2169.61  2179.12  2186.87
                             2191.84  2211.64  2241.95  2362.81  4278.62
                             4304.55  4315.84  4330.16  4339.00  4394.79
                             4396.89  4458.25  4475.23  4476.41  4478.91
                             4714.46  4742.93  5040.37

 Zero-point correction=                           0.237534 (Hartree/Particle)
 Thermal correction to Energy=                    0.250038
 Thermal correction to Enthalpy=                  0.250982
 Thermal correction to Gibbs Free Energy=         0.196143
 Sum of electronic and zero-point Energies=           -686.314498
 Sum of electronic and thermal Energies=              -686.301995
 Sum of electronic and thermal Enthalpies=            -686.301051
 Sum of electronic and thermal Free Energies=         -686.355890

                     E (Thermal)             CV                S
                      KCal/Mol        Cal/Mol-Kelvin    Cal/Mol-Kelvin
 Total                  156.901             46.876            115.419
 Electronic               0.000              0.000              0.000
 Translational            0.889              2.981             41.756
 Rotational               0.889              2.981             32.149
 Vibrational            155.124             40.915             41.514
 Vibration     1          0.593              1.985              6.108
 Vibration     2          0.594              1.983              5.749
 Vibration     3          0.595              1.978              4.890
 Vibration     4          0.603              1.952              3.523
 Vibration     5          0.606              1.944              3.329
 Vibration     6          0.632              1.858              2.262
 Vibration     7          0.637              1.844              2.158
 Vibration     8          0.665              1.756              1.704
 Vibration     9          0.672              1.734              1.618
 Vibration    10          0.716              1.607              1.239
 Vibration    11          0.730              1.568              1.151
 Vibration    12          0.744              1.529              1.070
 Vibration    13          0.797              1.390              0.837
 Vibration    14          0.820              1.334              0.760
 Vibration    15          0.854              1.253              0.662
 Vibration    16          0.900              1.150              0.554

 Optimization completed.
    -- Stationary point found.
 Normal termination of Gaussian 16 at Thu Dec 10 10:39:14 2020.

 ----------------------------------------------------------------------
 # B3LYP/6-311++G(d,p) empiricaldispersion=gd3bj scf=xqc pop=npa geom=c
 heck
 ----------------------------------------------------------------------

 --------------------------------------
 CID_65967018_JID_4751_Energie_neutraal
 --------------------------------------
 Structure from the checkpoint file:  "JID_4751.chk"
 Charge =  0 Multiplicity = 1

 SCF Done:  E(RB3LYP) =  -686.750930298     A.U. after   14 cycles
 Normal termination of Gaussian 16 at Thu Dec 10 10:41:49 2020.

 ----------------------------------------------------------------------
 # B3LYP/6-311++G(d,p) empiricaldispersion=gd3bj scf=xqc pop=npa geom=c
 heck
 ----------------------------------------------------------------------

 ------------------------------------
 CID_65967018_JID_4751_Energie_kation
 ------------------------------------
 Structure from the checkpoint file:  "JID_4751.chk"
 Charge =  1 Multiplicity = 2

 SCF Done:  E(UB3LYP) =  -686.446206869     A.U. after   24 cycles
 Normal termination of Gaussian 16 at Thu Dec 10 10:48:07 2020.
 Gaussian 16:  ES64L-G16RevA.03 25-Dec-2016

 ----------------------------------------------------------------------
 # B3LYP/6-311++G(d,p) empiricaldispersion=gd3bj scf=xqc pop=npa geom=c
 heck
 ----------------------------------------------------------------------

 -----------------------------------
 CID_65967018_JID_4751_Energie_anion
 -----------------------------------
 Structure from the checkpoint file:  "JID_4751.chk"
 Charge = -1 Multiplicity = 2

                         Standard orientation:
 ---------------------------------------------------------------------
 Center     Atomic      Atomic             Coordinates (Angstroms)
 Number     Number       Type             X           Y           Z
 ---------------------------------------------------------------------
      1          6           0        3.771153    1.138841    0.143552
      2          6           0        2.933075    0.944486   -1.113258
      3          8           0        1.628248    0.495145   -0.765560
      4          6           0        1.676598   -0.725456   -0.016124
      5          6           0        2.529645   -0.521507    1.233431
      6          8           0        3.834063   -0.071135    0.888376
      7          6           0        0.237347   -1.100625    0.293297
      8          7           0       -0.488811   -1.318511   -0.953540
      9          6           0       -1.923544   -1.544912   -0.774553
     10          6           0       -2.677185   -0.426204   -0.127370
     11          6           0       -3.276248   -0.217283    1.074799
     12          7           0       -3.770272    1.084456    1.140625
     13          6           0       -3.446828    1.598479   -0.002102
     14          8           0       -2.781526    0.755528   -0.834959
     15          1           0        4.802187    1.408671   -0.105015
     16          1           0        3.330191    1.940588    0.758437
     17          1           0        3.421310    0.211017   -1.774334
     18          1           0        2.807123    1.885631   -1.657564
     19          1           0        2.136701   -1.507631   -0.640369
     20          1           0        2.659238   -1.462530    1.776505
     21          1           0        2.038187    0.209353    1.897031
     22          1           0        0.224683   -2.031977    0.875514
     23          1           0       -0.205083   -0.312218    0.927089
     24          1           0       -0.344482   -0.499574   -1.542244
     25          1           0       -2.353560   -1.756735   -1.760711
     26          1           0       -2.062324   -2.444170   -0.163027
     27          1           0       -3.393063   -0.908895    1.897007
     28          1           0       -3.637879    2.595634   -0.370809
 ---------------------------------------------------------------------

 SCF Done:  E(UB3LYP) =  -686.734719193     A.U. after   33 cycles
 SCF Done:  E(UB3LYP) =  -686.734719193     a.u. after    1 cycles

 The electronic state is 2-A.
 Alpha  occ. eigenvalues --  -19.11034 -19.03876 -19.03735 -14.22588 -14.20741
 Alpha  occ. eigenvalues --  -10.16824 -10.13963 -10.12997 -10.12691 -10.12492
 Alpha  occ. eigenvalues --  -10.12465 -10.11617 -10.10633 -10.09991  -1.04389
 Alpha  occ. eigenvalues --   -0.97011  -0.93255  -0.83481  -0.81904  -0.70798
 Alpha  occ. eigenvalues --   -0.68551  -0.63103  -0.60158  -0.57369  -0.53954
 Alpha  occ. eigenvalues --   -0.53025  -0.49046  -0.48824  -0.44897  -0.41961
 Alpha  occ. eigenvalues --   -0.40829  -0.39968  -0.39562  -0.38407  -0.36981
 Alpha  occ. eigenvalues --   -0.36352  -0.34763  -0.34156  -0.33800  -0.31273
 Alpha  occ. eigenvalues --   -0.30404  -0.29733  -0.28343  -0.27727  -0.27081
 Alpha  occ. eigenvalues --   -0.26410  -0.23635  -0.21685  -0.20960  -0.19892
 Alpha  occ. eigenvalues --   -0.16049  -0.15659  -0.14030   0.04481
 Alpha virt. eigenvalues --    0.05987   0.06908   0.07260   0.07716   0.08242
 Alpha virt. eigenvalues --    0.08771   0.09093   0.09755   0.10821   0.11249
 Alpha virt. eigenvalues --    0.11682   0.12094   0.12853   0.12968   0.13288

  Beta  occ. eigenvalues --  -19.11010 -19.03871 -19.03724 -14.22591 -14.20735
  Beta  occ. eigenvalues --  -10.16798 -10.13947 -10.12992 -10.12679 -10.12467
  Beta  occ. eigenvalues --  -10.12441 -10.11591 -10.10613 -10.09970  -1.04351
  Beta  occ. eigenvalues --   -0.96994  -0.93239  -0.83462  -0.81883  -0.70763
  Beta  occ. eigenvalues --   -0.68511  -0.63061  -0.60119  -0.57317  -0.53918
  Beta  occ. eigenvalues --   -0.52973  -0.48994  -0.48776  -0.44850  -0.41910
  Beta  occ. eigenvalues --   -0.40791  -0.39949  -0.39509  -0.38356  -0.36945
  Beta  occ. eigenvalues --   -0.36313  -0.34724  -0.34099  -0.33759  -0.31238
  Beta  occ. eigenvalues --   -0.30359  -0.29693  -0.28321  -0.27698  -0.27047
  Beta  occ. eigenvalues --   -0.26365  -0.23582  -0.21660  -0.20951  -0.19850
  Beta  occ. eigenvalues --   -0.15966  -0.15625  -0.14009
  Beta virt. eigenvalues --    0.06752   0.07383   0.07406   0.07600   0.08037
  Beta virt. eigenvalues --    0.08726   0.09305   0.09856   0.10316   0.11121
  Beta virt. eigenvalues --    0.11475   0.12030   0.12253   0.12971   0.13160

 Mulliken charges and spin densities:
               1          2
     1  C    0.414982  -0.694878
     2  C    0.320925  -0.414809
     3  O   -0.145659   0.057054
     4  C   -0.367403   0.281206
     5  C    0.275385  -0.616004
     6  O   -0.168126   0.063245
     7  C   -0.046315  -0.686969
     8  N   -0.116740   0.164869
     9  C    1.862604  -2.601310
    10  C   -0.161299   0.679301
    11  C   -0.658081   0.224208
    12  N   -0.104355   0.003640
    13  C    0.075560  -0.053755
    14  O   -0.056118   0.030408
    15  H   -0.559670   0.741054
    16  H    0.113071   0.011825
    17  H    0.124478   0.007666
    18  H   -0.696505   0.867612
    19  H    0.102927   0.074920
    20  H    0.015954   0.150895
    21  H   -0.127266   0.289637
    22  H   -0.413398   0.577575
    23  H    0.623375  -0.436444
    24  H    0.092825   0.166247
    25  H   -0.241606   0.440373
    26  H   -0.397190   0.583576
    27  H   -0.587394   0.742889
    28  H   -0.174960   0.345968
 Sum of Mulliken charges =  -1.00000   1.00000

 Dipole moment (field-independent basis, Debye):
    X=             -1.1555    Y=              0.4359    Z=             -0.2870  Tot=              1.2679
 Quadrupole moment (field-independent basis, Debye-Ang):
   XX=           -166.7309   YY=           -131.1405   ZZ=           -119.4034
   XY=            -13.8857   XZ=             10.1969   YZ=              5.7740

 Summary of Natural Population Analysis:

                                       Natural Population
                Natural  -----------------------------------------------
    Atom  No    Charge         Core      Valence    Rydberg      Total
 -----------------------------------------------------------------------
      C    1   -0.02509      0.99958     2.01202    0.01349     3.02509
      C    2   -0.02300      0.99958     2.01057    0.01284     3.02300
      O    3   -0.30548      0.99988     3.29580    0.00980     4.30548
      C    4    0.04923      0.99955     1.93772    0.01350     2.95077
      C    5   -0.01809      0.99954     2.00779    0.01075     3.01809
      O    6   -0.29819      0.99989     3.28847    0.00982     4.29819
      C    7   -0.09613      0.99958     2.08454    0.01200     3.09613
      N    8   -0.33298      0.99975     2.82161    0.01162     3.83298
      C    9   -0.11120      0.99958     2.09898    0.01263     3.11120
      C   10    0.12923      0.99947     1.85679    0.01451     2.87077
      C   11   -0.04481      0.99948     2.03205    0.01328     3.04481
      N   12   -0.25243      0.99972     2.74145    0.01125     3.75243
      C   13    0.18200      0.99964     1.79984    0.01852     2.81800
      O   14   -0.23732      0.99986     3.22897    0.00848     4.23732
      H   15    0.09549      0.00000     0.40254    0.00197     0.40451
      H   16    0.08014      0.00000     0.41829    0.00157     0.41986
      H   17    0.07988      0.00000     0.41858    0.00154     0.42012
      H   18    0.09662      0.00000     0.40136    0.00203     0.40338
      H   19    0.08526      0.00000     0.41255    0.00219     0.41474
      H   20    0.09491      0.00000     0.40364    0.00145     0.40509
      H   21    0.08094      0.00000     0.41745    0.00161     0.41906
      H   22    0.09701      0.00000     0.40113    0.00185     0.40299
      H   23    0.08682      0.00000     0.41094    0.00223     0.41318
      H   24    0.18019      0.00000     0.31563    0.00418     0.31981
      H   25    0.10529      0.00000     0.39336    0.00135     0.39471
      H   26    0.10577      0.00000     0.39195    0.00228     0.39423
      H   27    0.10601      0.00000     0.39237    0.00162     0.39399
      H   28    0.08991      0.00000     0.40885    0.00124     0.41009
 =======================================================================
   * Total *   -0.00000     13.99514    38.80525    0.19962    53.00000

 Normal termination of Gaussian 16 at Thu Dec 10 10:56:16 2020.
