 Gaussian 16, Revision A.03,

 -----------------------------------------------------------
 # opt freq B3LYP/6-31G(d) empiricaldispersion=gd3bj scf=xqc
 -----------------------------------------------------------

 ------------------------------
 CID_59734686_JID_5960_neutraal
 ------------------------------
 Symbolic Z-matrix:
 Charge =  0 Multiplicity = 1

 SCF Done:  E(RB3LYP) =  -623.229535908     A.U. after   14 cycles
 SCF Done:  E(RB3LYP) =  -623.233656747     A.U. after   12 cycles
 SCF Done:  E(RB3LYP) =  -623.233332410     A.U. after   12 cycles
 SCF Done:  E(RB3LYP) =  -623.229408351     A.U. after   13 cycles
 SCF Done:  E(RB3LYP) =  -623.227184776     A.U. after   12 cycles
 SCF Done:  E(RB3LYP) =  -623.233764446     A.U. after    8 cycles
 SCF Done:  E(RB3LYP) =  -623.234970758     A.U. after   12 cycles
 SCF Done:  E(RB3LYP) =  -623.234903053     A.U. after   12 cycles
 SCF Done:  E(RB3LYP) =  -623.235144433     A.U. after   12 cycles
 SCF Done:  E(RB3LYP) =  -623.235200959     A.U. after   10 cycles
 SCF Done:  E(RB3LYP) =  -623.235240596     A.U. after    8 cycles
 SCF Done:  E(RB3LYP) =  -623.235240713     A.U. after    7 cycles
 SCF Done:  E(RB3LYP) =  -623.235240754     A.U. after    6 cycles
 SCF Done:  E(RB3LYP) =  -623.235240782     A.U. after    6 cycles
 SCF Done:  E(RB3LYP) =  -623.235240784     A.U. after    6 cycles
 Optimization completed.
    -- Stationary point found.
 Normal termination of Gaussian 16 at Thu Dec 10 17:56:41 2020.

 --------------------------------------------------------------------
 #N Geom=AllCheck Guess=TCheck SCRF=Check GenChk RB3LYP/6-31G(d) Freq
 --------------------------------------------------------------------

 Structure from the checkpoint file:  "JID_5960.chk"
 ------------------------------
 CID_59734686_JID_5960_neutraal
 ------------------------------
 Charge =  0 Multiplicity = 1

 SCF Done:  E(RB3LYP) =  -623.235240784     A.U. after    1 cycles

  Exact polarizability: 173.377  -1.638 133.876   7.635   0.579 128.077
 Approx polarizability: 226.285  -7.400 194.050  22.735  -0.977 201.360

                      1                      2                      3
                      A                      A                      A
 Frequencies --     28.9392                43.5824                51.8983
 Red. masses --      2.8883                 4.1581                 3.1377
 Frc consts  --      0.0014                 0.0047                 0.0050
 IR Inten    --      0.1644                 1.4686                 0.8329

                      4                      5                      6
                      A                      A                      A
 Frequencies --     65.0837                95.2470               182.6572
 Red. masses --      3.9321                 2.0044                 2.2112
 Frc consts  --      0.0098                 0.0107                 0.0435
 IR Inten    --      0.5804                 0.0076                 0.5928

                      7                      8                      9
                      A                      A                      A
 Frequencies --    188.5620               214.3178               221.8262
 Red. masses --      2.6763                 1.5435                 1.6007
 Frc consts  --      0.0561                 0.0418                 0.0464
 IR Inten    --      0.7560                 0.2461                 0.3343

                     10                     11                     12
                      A                      A                      A
 Frequencies --    239.4109               249.6864               260.6148
 Red. masses --      1.5257                 1.4593                 2.1756
 Frc consts  --      0.0515                 0.0536                 0.0871
 IR Inten    --      0.0638                 0.0482                 0.0457

                     13                     14                     15
                      A                      A                      A
 Frequencies --    276.8129               277.5992               298.2938
 Red. masses --      1.1217                 1.2861                 1.1732
 Frc consts  --      0.0506                 0.0584                 0.0615
 IR Inten    --      0.2120                 0.0955                 0.1877

                     16                     17                     18
                      A                      A                      A
 Frequencies --    308.6436               316.3646               339.9315
 Red. masses --      2.1633                 1.1591                 2.4737
 Frc consts  --      0.1214                 0.0684                 0.1684
 IR Inten    --      0.0507                 0.0240                 1.4735

                     19                     20                     21
                      A                      A                      A
 Frequencies --    345.2819               368.5204               374.5920
 Red. masses --      2.5320                 2.7089                 2.4753
 Frc consts  --      0.1779                 0.2168                 0.2046
 IR Inten    --      0.4873                 3.9012                 0.7690

                     22                     23                     24
                      A                      A                      A
 Frequencies --    386.7462               403.9377               447.5550
 Red. masses --      2.2649                 2.6010                 3.2542
 Frc consts  --      0.1996                 0.2500                 0.3841
 IR Inten    --      0.1199                 0.0562                 3.8832

                     25                     26                     27
                      A                      A                      A
 Frequencies --    487.8248               557.0628               572.3259
 Red. masses --      3.4755                 2.4187                 2.9292
 Frc consts  --      0.4873                 0.4422                 0.5653
 IR Inten    --      2.8672                 8.1899                 0.0868

                     28                     29                     30
                      A                      A                      A
 Frequencies --    597.1063               630.7923               753.1913
 Red. masses --      3.8641                 2.6180                 4.3032
 Frc consts  --      0.8117                 0.6138                 1.4383
 IR Inten    --      4.4984                 0.7827                 0.2087

                     31                     32                     33
                      A                      A                      A
 Frequencies --    770.0517               811.2110               819.0970
 Red. masses --      4.9557                 3.0735                 2.1779
 Frc consts  --      1.7314                 1.1917                 0.8609
 IR Inten    --      2.2668                 6.6191                 1.2685

                     34                     35                     36
                      A                      A                      A
 Frequencies --    854.8697               884.2251               896.9884
 Red. masses --      1.9624                 2.4977                 1.6677
 Frc consts  --      0.8449                 1.1506                 0.7906
 IR Inten    --     10.3010                16.8439                11.8176

                     37                     38                     39
                      A                      A                      A
 Frequencies --    937.3468               942.0382               951.4388
 Red. masses --      2.6773                 1.7488                 1.7130
 Frc consts  --      1.3860                 0.9144                 0.9136
 IR Inten    --      3.9897                 1.1663                 0.6420

                     40                     41                     42
                      A                      A                      A
 Frequencies --    951.6499               957.3096               973.7866
 Red. masses --      1.7653                 1.6401                 1.1988
 Frc consts  --      0.9419                 0.8856                 0.6697
 IR Inten    --      2.5623                 2.0748                 0.0116

                     43                     44                     45
                      A                      A                      A
 Frequencies --    976.8958               997.2407              1018.9431
 Red. masses --      1.2003                 2.3774                 1.7952
 Frc consts  --      0.6749                 1.3930                 1.0982
 IR Inten    --      0.0255                 3.1610                35.7473

                     46                     47                     48
                      A                      A                      A
 Frequencies --   1047.1952              1055.6178              1060.1834
 Red. masses --      1.5196                 1.4476                 1.4496
 Frc consts  --      0.9819                 0.9504                 0.9600
 IR Inten    --      0.9168                 1.5363                 2.3580

                     49                     50                     51
                      A                      A                      A
 Frequencies --   1067.5724              1082.8492              1112.6721
 Red. masses --      1.5432                 2.4023                 1.9690
 Frc consts  --      1.0363                 1.6597                 1.4362
 IR Inten    --      2.2129                 3.5122                 7.4876

                     52                     53                     54
                      A                      A                      A
 Frequencies --   1135.9886              1208.6935              1236.5567
 Red. masses --      2.2754                 1.3234                 2.4702
 Frc consts  --      1.7300                 1.1391                 2.2254
 IR Inten    --     47.6118                13.2376                 1.8952

                     55                     56                     57
                      A                      A                      A
 Frequencies --   1242.2225              1244.5494              1261.3430
 Red. masses --      2.6540                 2.2295                 1.7363
 Frc consts  --      2.4130                 2.0346                 1.6276
 IR Inten    --      2.8782                 1.9693                 2.8841

                     58                     59                     60
                      A                      A                      A
 Frequencies --   1268.3655              1279.4253              1301.5551
 Red. masses --      1.7265                 1.5274                 1.8911
 Frc consts  --      1.6364                 1.4731                 1.8875
 IR Inten    --     11.5095                10.1356                 2.1670

                     61                     62                     63
                      A                      A                      A
 Frequencies --   1310.2129              1319.3944              1338.1851
 Red. masses --      1.6744                 2.1079                 1.2945
 Frc consts  --      1.6936                 2.1620                 1.3657
 IR Inten    --      5.7358                 3.4588                 4.3496

                     64                     65                     66
                      A                      A                      A
 Frequencies --   1345.1590              1379.8958              1419.0504
 Red. masses --      1.7289                 1.8869                 1.2078
 Frc consts  --      1.8432                 2.1169                 1.4330
 IR Inten    --      4.6612                 0.9228                 4.8934

                     67                     68                     69
                      A                      A                      A
 Frequencies --   1423.5573              1426.1157              1426.6348
 Red. masses --      1.2144                 1.2361                 1.2437
 Frc consts  --      1.4500                 1.4812                 1.4914
 IR Inten    --      4.7920                 3.8837                 5.5838

                     70                     71                     72
                      A                      A                      A
 Frequencies --   1454.6961              1455.6029              1508.3480
 Red. masses --      1.2202                 1.2205                 1.0530
 Frc consts  --      1.5213                 1.5236                 1.4115
 IR Inten    --     12.3888                 3.0782                 1.0094

                     73                     74                     75
                      A                      A                      A
 Frequencies --   1511.2582              1514.6376              1517.0023
 Red. masses --      1.0523                 1.0692                 1.0500
 Frc consts  --      1.4161                 1.4452                 1.4237
 IR Inten    --      0.0377                 0.4291                 0.5678

                     76                     77                     78
                      A                      A                      A
 Frequencies --   1518.7522              1519.4501              1521.6447
 Red. masses --      1.0466                 1.0490                 1.0476
 Frc consts  --      1.4223                 1.4269                 1.4292
 IR Inten    --      0.0618                 0.9176                 0.2415

                     79                     80                     81
                      A                      A                      A
 Frequencies --   1531.4779              1534.7153              1535.7906
 Red. masses --      1.0578                 1.0530                 1.0524
 Frc consts  --      1.4618                 1.4613                 1.4625
 IR Inten    --      6.4259                 5.6973                 5.7998

                     82                     83                     84
                      A                      A                      A
 Frequencies --   1537.4370              1542.1583              1551.3460
 Red. masses --      1.0569                 1.0723                 1.0622
 Frc consts  --      1.4719                 1.5026                 1.5062
 IR Inten    --      0.5141                 7.3022                10.5769

                     85                     86                     87
                      A                      A                      A
 Frequencies --   1556.4351              1714.2946              1780.2867
 Red. masses --      1.0615                 7.4667                11.3744
 Frc consts  --      1.5151                12.9285                21.2401
 IR Inten    --     12.9957                 1.2150               167.9092

                     88                     89                     90
                      A                      A                      A
 Frequencies --   3040.5723              3044.9927              3045.6242
 Red. masses --      1.0582                 1.0356                 1.0373
 Frc consts  --      5.7640                 5.6573                 5.6690
 IR Inten    --      9.9470                25.2375                34.6583

                     91                     92                     93
                      A                      A                      A
 Frequencies --   3050.3726              3052.8610              3053.0635
 Red. masses --      1.0367                 1.0372                 1.0392
 Frc consts  --      5.6834                 5.6955                 5.7069
 IR Inten    --     22.9048                11.0868                25.8282

                     94                     95                     96
                      A                      A                      A
 Frequencies --   3055.7511              3060.1273              3069.5909
 Red. masses --      1.0838                 1.0391                 1.0983
 Frc consts  --      5.9624                 5.7332                 6.0974
 IR Inten    --     16.2385                34.7485                23.9572

                     97                     98                     99
                      A                      A                      A
 Frequencies --   3090.1134              3109.9777              3111.2530
 Red. masses --      1.0625                 1.1013                 1.1028
 Frc consts  --      5.9777                 6.2759                 6.2898
 IR Inten    --     27.0135                18.7211                 4.1379

                    100                    101                    102
                      A                      A                      A
 Frequencies --   3112.6531              3114.8126              3117.6307
 Red. masses --      1.1025                 1.1017                 1.1027
 Frc consts  --      6.2936                 6.2975                 6.3149
 IR Inten    --      4.7797                12.3294                29.4420

                    103                    104                    105
                      A                      A                      A
 Frequencies --   3119.2816              3121.6030              3121.9136
 Red. masses --      1.1019                 1.1019                 1.1020
 Frc consts  --      6.3171                 6.3260                 6.3283
 IR Inten    --     70.1174                28.2276                63.0618

                    106                    107                    108
                      A                      A                      A
 Frequencies --   3124.8921              3127.8988              3142.7727
 Red. masses --      1.1014                 1.1052                 1.1003
 Frc consts  --      6.3366                 6.3707                 6.4032
 IR Inten    --     52.7658                17.6474                25.4942

                    109                    110                    111
                      A                      A                      A
 Frequencies --   3152.4653              3168.7040              3219.9531
 Red. masses --      1.1000                 1.0964                 1.0919
 Frc consts  --      6.4409                 6.4858                 6.6699
 IR Inten    --     17.9859                16.5240                10.0935

 - Thermochemistry -
 -------------------
 Temperature   298.150 Kelvin.  Pressure   1.00000 Atm.
 Atom     1 has atomic number  6 and mass  12.00000

 Molecular mass:   208.18272 amu.
 Principal axes and moments of inertia in atomic units:
                           1         2         3
     Eigenvalues --  1688.655295021.809495439.21826
           X            0.99989   0.01218  -0.00822
           Y           -0.01180   0.99896   0.04395
           Z            0.00875  -0.04385   0.99900
 This molecule is an asymmetric top.
 Rotational symmetry number  1.
 Warning -- assumption of classical behavior for rotation
           may cause significant error
 Rotational temperatures (Kelvin)      0.05129     0.01725     0.01592
 Rotational constants (GHZ):           1.06874     0.35938     0.33180
 Zero-point vibrational energy     930423.8 (Joules/Mol)
                                  222.37662 (Kcal/Mol)
 Warning -- explicit consideration of  28 degrees of freedom as
           vibrations may cause significant error
 Vibrational temperatures:     41.64    62.71    74.67    93.64   137.04
          (Kelvin)            262.80   271.30   308.36   319.16   344.46
                              359.24   374.97   398.27   399.40   429.18
                              444.07   455.18   489.09   496.78   530.22
                              538.95   556.44   581.18   643.93   701.87
                              801.49   823.45   859.10   907.57  1083.67
                             1107.93  1167.15  1178.50  1229.97  1272.20
                             1290.57  1348.63  1355.38  1368.91  1369.21
                             1377.35  1401.06  1405.54  1434.81  1466.03
                             1506.68  1518.80  1525.37  1536.00  1557.98
                             1600.89  1634.43  1739.04  1779.13  1787.28
                             1790.63  1814.79  1824.90  1840.81  1872.65
                             1885.10  1898.31  1925.35  1935.38  1985.36
                             2041.70  2048.18  2051.86  2052.61  2092.98
                             2094.29  2170.18  2174.36  2179.23  2182.63
                             2185.15  2186.15  2189.31  2203.46  2208.11
                             2209.66  2212.03  2218.82  2232.04  2239.36
                             2466.49  2561.44  4374.71  4381.07  4381.97
                             4388.81  4392.39  4392.68  4396.54  4402.84
                             4416.46  4445.98  4474.56  4476.40  4478.41
                             4481.52  4485.58  4487.95  4491.29  4491.74
                             4496.02  4500.35  4521.75  4535.69  4559.06
                             4632.79

 Zero-point correction=                           0.354380 (Hartree/Particle)
 Thermal correction to Energy=                    0.371683
 Thermal correction to Enthalpy=                  0.372628
 Thermal correction to Gibbs Free Energy=         0.309964
 Sum of electronic and zero-point Energies=           -622.880861
 Sum of electronic and thermal Energies=              -622.863557
 Sum of electronic and thermal Enthalpies=            -622.862613
 Sum of electronic and thermal Free Energies=         -622.925277

                     E (Thermal)             CV                S
                      KCal/Mol        Cal/Mol-Kelvin    Cal/Mol-Kelvin
 Total                  233.235             66.642            131.886
 Electronic               0.000              0.000              0.000
 Translational            0.889              2.981             41.904
 Rotational               0.889              2.981             32.200
 Vibrational            231.457             60.681             57.782
 Vibration     1          0.593              1.984              5.901
 Vibration     2          0.595              1.980              5.089
 Vibration     3          0.596              1.977              4.744
 Vibration     4          0.597              1.971              4.297
 Vibration     5          0.603              1.953              3.549
 Vibration     6          0.630              1.863              2.301
 Vibration     7          0.633              1.856              2.242
 Vibration     8          0.644              1.819              2.007
 Vibration     9          0.648              1.808              1.944
 Vibration    10          0.657              1.780              1.807
 Vibration    11          0.662              1.763              1.733
 Vibration    12          0.669              1.745              1.658
 Vibration    13          0.678              1.716              1.553
 Vibration    14          0.679              1.715              1.548
 Vibration    15          0.691              1.677              1.426
 Vibration    16          0.698              1.657              1.370
 Vibration    17          0.703              1.642              1.329
 Vibration    18          0.720              1.596              1.212
 Vibration    19          0.724              1.585              1.188
 Vibration    20          0.741              1.537              1.086
 Vibration    21          0.746              1.524              1.061
 Vibration    22          0.755              1.498              1.013
 Vibration    23          0.769              1.462              0.948
 Vibration    24          0.807              1.366              0.803
 Vibration    25          0.844              1.277              0.689
 Vibration    26          0.913              1.124              0.530
 Vibration    27          0.929              1.091              0.500
 Vibration    28          0.955              1.038              0.455

 Optimization completed.
    -- Stationary point found.
 Normal termination of Gaussian 16 at Thu Dec 10 18:12:48 2020.

 ----------------------------------------------------------------------
 # B3LYP/6-311++G(d,p) empiricaldispersion=gd3bj scf=xqc pop=npa geom=c
 heck
 ----------------------------------------------------------------------

 --------------------------------------
 CID_59734686_JID_5960_Energie_neutraal
 --------------------------------------
 Structure from the checkpoint file:  "JID_5960.chk"
 Charge =  0 Multiplicity = 1

 SCF Done:  E(RB3LYP) =  -623.407435626     A.U. after   14 cycles
 Normal termination of Gaussian 16 at Thu Dec 10 18:20:49 2020.

 ----------------------------------------------------------------------
 # B3LYP/6-311++G(d,p) empiricaldispersion=gd3bj scf=xqc pop=npa geom=c
 heck
 ----------------------------------------------------------------------

 ------------------------------------
 CID_59734686_JID_5960_Energie_kation
 ------------------------------------
 Structure from the checkpoint file:  "JID_5960.chk"
 Charge =  1 Multiplicity = 2

 SCF Done:  E(UB3LYP) =  -623.110996711     A.U. after   19 cycles
 Normal termination of Gaussian 16 at Thu Dec 10 18:35:59 2020.
 Gaussian 16:  ES64L-G16RevA.03 25-Dec-2016

 ----------------------------------------------------------------------
 # B3LYP/6-311++G(d,p) empiricaldispersion=gd3bj scf=xqc pop=npa geom=c
 heck
 ----------------------------------------------------------------------

 -----------------------------------
 CID_59734686_JID_5960_Energie_anion
 -----------------------------------
 Structure from the checkpoint file:  "JID_5960.chk"
 Charge = -1 Multiplicity = 2

                         Standard orientation:
 ---------------------------------------------------------------------
 Center     Atomic      Atomic             Coordinates (Angstroms)
 Number     Number       Type             X           Y           Z
 ---------------------------------------------------------------------
      1          6           0        2.809749   -1.343207   -1.285303
      2          6           0        2.745712   -0.375756   -0.093088
      3          6           0        2.861187   -1.190047    1.214258
      4          6           0        3.935444    0.604975   -0.183674
      5          6           0        1.444808    0.405519   -0.084068
      6          6           0        0.456031    0.340607   -0.985223
      7          6           0       -0.702413    1.261464   -0.696386
      8          6           0       -0.230290    2.036354    0.582442
      9          6           0        1.102505    1.382435    1.026643
     10          6           0       -2.107971    0.651835   -0.526928
     11          8           0       -3.047433    1.261000   -1.009254
     12          6           0       -2.360194   -0.681746    0.213868
     13          6           0       -2.007041   -1.828371   -0.762853
     14          6           0       -1.521371   -0.832729    1.495206
     15          6           0       -3.852662   -0.770407    0.568957
     16          1           0        3.752825   -1.900576   -1.269038
     17          1           0        2.753615   -0.806250   -2.238463
     18          1           0        1.989265   -2.068774   -1.253189
     19          1           0        3.790476   -1.771397    1.218252
     20          1           0        2.870623   -0.540426    2.095574
     21          1           0        2.023007   -1.888937    1.315778
     22          1           0        3.874947    1.207749   -1.096536
     23          1           0        3.963485    1.286725    0.672631
     24          1           0        4.882204    0.052583   -0.200919
     25          1           0        0.471744   -0.277961   -1.875606
     26          1           0       -0.846069    1.967456   -1.522470
     27          1           0       -0.080708    3.088347    0.326289
     28          1           0       -0.981108    2.013853    1.376632
     29          1           0        1.891531    2.130404    1.170368
     30          1           0        0.998676    0.863571    1.988576
     31          1           0       -0.936935   -1.861265   -0.983319
     32          1           0       -2.287008   -2.787600   -0.311707
     33          1           0       -2.555284   -1.724633   -1.705536
     34          1           0       -1.743805   -0.040899    2.218619
     35          1           0       -1.761943   -1.790164    1.971954
     36          1           0       -0.450809   -0.825724    1.285695
     37          1           0       -4.143684    0.037907    1.247924
     38          1           0       -4.477077   -0.690887   -0.323431
     39          1           0       -4.059457   -1.726665    1.062842
 ---------------------------------------------------------------------

 SCF Done:  E(UB3LYP) =  -623.395221565     A.U. after   33 cycles
 SCF Done:  E(UB3LYP) =  -623.395221565     a.u. after    1 cycles

 The electronic state is 2-A.
 Alpha  occ. eigenvalues --  -19.01392 -10.15852 -10.09922 -10.09205 -10.08628
 Alpha  occ. eigenvalues --  -10.07826 -10.07822 -10.07370 -10.07239 -10.06772
 Alpha  occ. eigenvalues --  -10.06534 -10.06505 -10.06019 -10.05973 -10.05906
 Alpha  occ. eigenvalues --   -0.94778  -0.76255  -0.72781  -0.71199  -0.62808
 Alpha  occ. eigenvalues --   -0.61800  -0.59843  -0.59361  -0.58789  -0.58673
 Alpha  occ. eigenvalues --   -0.52791  -0.49043  -0.48434  -0.42198  -0.41579
 Alpha  occ. eigenvalues --   -0.39462  -0.37523  -0.36720  -0.35531  -0.34973
 Alpha  occ. eigenvalues --   -0.34222  -0.33952  -0.32722  -0.31969  -0.31179
 Alpha  occ. eigenvalues --   -0.29592  -0.29301  -0.29164  -0.28567  -0.27958
 Alpha  occ. eigenvalues --   -0.27523  -0.27268  -0.26921  -0.25608  -0.24778
 Alpha  occ. eigenvalues --   -0.24442  -0.24094  -0.23944  -0.23479  -0.22846
 Alpha  occ. eigenvalues --   -0.22303  -0.16328  -0.13487   0.04238
 Alpha virt. eigenvalues --    0.06360   0.06538   0.07355   0.07513   0.08445
 Alpha virt. eigenvalues --    0.08773   0.09156   0.09390   0.09716   0.10021
 Alpha virt. eigenvalues --    0.10820   0.11121   0.11284   0.11775   0.12359

  Beta  occ. eigenvalues --  -19.01363 -10.15814 -10.09922 -10.09202 -10.08628
  Beta  occ. eigenvalues --  -10.07824 -10.07798 -10.07356 -10.07215 -10.06766
  Beta  occ. eigenvalues --  -10.06501 -10.06492 -10.05987 -10.05944 -10.05870
  Beta  occ. eigenvalues --   -0.94718  -0.76236  -0.72756  -0.71178  -0.62769
  Beta  occ. eigenvalues --   -0.61760  -0.59800  -0.59323  -0.58726  -0.58617
  Beta  occ. eigenvalues --   -0.52712  -0.48981  -0.48393  -0.42163  -0.41529
  Beta  occ. eigenvalues --   -0.39421  -0.37483  -0.36682  -0.35477  -0.34947
  Beta  occ. eigenvalues --   -0.34184  -0.33914  -0.32689  -0.31941  -0.31117
  Beta  occ. eigenvalues --   -0.29559  -0.29271  -0.29127  -0.28495  -0.27930
  Beta  occ. eigenvalues --   -0.27489  -0.27232  -0.26885  -0.25573  -0.24749
  Beta  occ. eigenvalues --   -0.24407  -0.24072  -0.23875  -0.23445  -0.22808
  Beta  occ. eigenvalues --   -0.22274  -0.16304  -0.13463
  Beta virt. eigenvalues --    0.06296   0.06782   0.07106   0.07977   0.08097
  Beta virt. eigenvalues --    0.08827   0.09166   0.09515   0.09847   0.09953
  Beta virt. eigenvalues --    0.10219   0.11102   0.11392   0.11580   0.12052

 Mulliken charges and spin densities:
               1          2
     1  C    0.510899  -1.051112
     2  C   -2.775045   3.380933
     3  C    0.653472  -1.344059
     4  C    0.611958  -1.305634
     5  C    1.346001  -0.940077
     6  C    0.234443  -0.532653
     7  C   -0.146179   0.450591
     8  C    0.808186  -1.252079
     9  C    0.258297  -0.823149
    10  C   -0.446961  -0.429097
    11  O   -0.224131   0.020133
    12  C   -0.045277   1.080289
    13  C   -0.339138  -0.307214
    14  C   -0.357977  -0.375709
    15  C   -0.139432  -0.335282
    16  H   -0.210899   0.371926
    17  H   -0.063891   0.201301
    18  H   -0.162425   0.288934
    19  H   -0.422480   0.595525
    20  H   -0.141095   0.296521
    21  H   -0.284226   0.450515
    22  H   -0.100458   0.253666
    23  H   -0.252995   0.390252
    24  H   -0.199741   0.361520
    25  H    0.074960   0.104384
    26  H    0.148334   0.107905
    27  H   -0.113203   0.286774
    28  H    0.173637  -0.005988
    29  H   -0.042349   0.217729
    30  H   -0.283028   0.446343
    31  H    0.208484  -0.062954
    32  H   -0.020175   0.169142
    33  H    0.017424   0.150229
    34  H   -0.256906   0.414855
    35  H   -0.137879   0.298903
    36  H    0.924058  -0.833133
    37  H    0.055049   0.094667
    38  H    0.101029   0.071770
    39  H    0.039657   0.093333
 Sum of Mulliken charges =  -1.00000   1.00000

 Dipole moment (field-independent basis, Debye):
    X=             -4.3514    Y=              0.2587    Z=             -1.6766  Tot=              4.6704
 Quadrupole moment (field-independent basis, Debye-Ang):
   XX=           -179.3327   YY=           -141.0110   ZZ=           -136.8512
   XY=              7.1879   XZ=             -4.5990   YZ=              2.3884

 Summary of Natural Population Analysis:

                                       Natural Population
                Natural  -----------------------------------------------
    Atom  No    Charge         Core      Valence    Rydberg      Total
 -----------------------------------------------------------------------
      C    1   -0.28305      0.99964     2.27577    0.00764     3.28305
      C    2   -0.06350      0.99953     2.05085    0.01312     3.06350
      C    3   -0.27930      0.99963     2.27230    0.00737     3.27930
      C    4   -0.27868      0.99963     2.27193    0.00713     3.27868
      C    5    0.01450      0.99945     1.97231    0.01374     2.98550
      C    6   -0.10709      0.99942     2.09936    0.00830     3.10709
      C    7   -0.16426      0.99955     2.15175    0.01296     3.16426
      C    8   -0.17851      0.99963     2.17086    0.00803     3.17851
      C    9   -0.20613      0.99959     2.19826    0.00828     3.20613
      C   10    0.31941      0.99958     1.65785    0.02317     2.68059
      O   11   -0.29268      0.99988     3.28612    0.00669     4.29268
      C   12   -0.08516      0.99954     2.07480    0.01083     3.08516
      C   13   -0.28126      0.99962     2.27467    0.00697     3.28126
      C   14   -0.28720      0.99963     2.27969    0.00788     3.28720
      C   15   -0.28191      0.99964     2.27545    0.00682     3.28191
      H   16    0.10198      0.00000     0.39697    0.00106     0.39802
      H   17    0.10043      0.00000     0.39857    0.00100     0.39957
      H   18    0.10056      0.00000     0.39821    0.00123     0.39944
      H   19    0.10160      0.00000     0.39708    0.00133     0.39840
      H   20    0.10108      0.00000     0.39754    0.00138     0.39892
      H   21    0.10092      0.00000     0.39751    0.00157     0.39908
      H   22    0.10075      0.00000     0.39816    0.00110     0.39925
      H   23    0.10087      0.00000     0.39784    0.00129     0.39913
      H   24    0.10062      0.00000     0.39825    0.00112     0.39938
      H   25    0.10407      0.00000     0.39476    0.00116     0.39593
      H   26    0.10971      0.00000     0.38840    0.00189     0.39029
      H   27    0.10231      0.00000     0.39653    0.00117     0.39769
      H   28    0.10118      0.00000     0.39777    0.00104     0.39882
      H   29    0.10558      0.00000     0.39303    0.00139     0.39442
      H   30    0.10333      0.00000     0.39513    0.00154     0.39667
      H   31    0.10622      0.00000     0.39266    0.00112     0.39378
      H   32    0.10068      0.00000     0.39853    0.00079     0.39932
      H   33    0.10034      0.00000     0.39879    0.00086     0.39966
      H   34    0.10073      0.00000     0.39811    0.00116     0.39927
      H   35    0.10146      0.00000     0.39751    0.00104     0.39854
      H   36    0.10683      0.00000     0.39078    0.00239     0.39317
      H   37    0.10163      0.00000     0.39753    0.00083     0.39837
      H   38    0.10625      0.00000     0.39282    0.00093     0.39375
      H   39    0.09569      0.00000     0.40343    0.00088     0.40431
 =======================================================================
   * Total *   -0.00000     14.99394    42.82787    0.17819    58.00000

 Normal termination of Gaussian 16 at Thu Dec 10 19:02:15 2020.
