 Gaussian 16, Revision A.03,

 -----------------------------------------------------------
 # opt freq B3LYP/6-31G(d) empiricaldispersion=gd3bj scf=xqc
 -----------------------------------------------------------

 -------------------------------
 CID_130488781_JID_4586_neutraal
 -------------------------------
 Symbolic Z-matrix:
 Charge =  0 Multiplicity = 1

 SCF Done:  E(RB3LYP) =  -921.656644072     A.U. after   15 cycles
 SCF Done:  E(RB3LYP) =  -921.665221977     A.U. after   12 cycles
 SCF Done:  E(RB3LYP) =  -921.666081845     A.U. after   11 cycles
 SCF Done:  E(RB3LYP) =  -921.666140307     A.U. after   12 cycles
 SCF Done:  E(RB3LYP) =  -921.666184229     A.U. after   11 cycles
 SCF Done:  E(RB3LYP) =  -921.666423647     A.U. after   11 cycles
 SCF Done:  E(RB3LYP) =  -921.666563848     A.U. after   11 cycles
 SCF Done:  E(RB3LYP) =  -921.666628893     A.U. after   12 cycles
 SCF Done:  E(RB3LYP) =  -921.666839120     A.U. after   11 cycles
 SCF Done:  E(RB3LYP) =  -921.666787451     A.U. after   11 cycles
 SCF Done:  E(RB3LYP) =  -921.675864877     A.U. after   10 cycles
 SCF Done:  E(RB3LYP) =  -921.675837346     A.U. after   10 cycles
 SCF Done:  E(RB3LYP) =  -921.675871480     A.U. after   10 cycles
 SCF Done:  E(RB3LYP) =  -921.675872556     A.U. after    8 cycles
 SCF Done:  E(RB3LYP) =  -921.675872709     A.U. after    7 cycles
 Optimization completed.
    -- Stationary point found.
 Normal termination of Gaussian 16 at Thu Dec 10 10:22:53 2020.

 --------------------------------------------------------------------
 #N Geom=AllCheck Guess=TCheck SCRF=Check GenChk RB3LYP/6-31G(d) Freq
 --------------------------------------------------------------------

 Structure from the checkpoint file:  "JID_4586.chk"
 -------------------------------
 CID_130488781_JID_4586_neutraal
 -------------------------------
 Charge =  0 Multiplicity = 1

 SCF Done:  E(RB3LYP) =  -921.675872709     A.U. after    1 cycles

  Exact polarizability: 160.314  -8.441 149.455   8.465   9.111 117.847
 Approx polarizability: 224.167 -12.470 230.549  26.407  26.114 188.127

                      1                      2                      3
                      A                      A                      A
 Frequencies --     40.5926                73.6859                77.8482
 Red. masses --      5.3091                 3.0006                 4.1071
 Frc consts  --      0.0052                 0.0096                 0.0147
 IR Inten    --      0.4878                 0.6798                 0.1208

                      4                      5                      6
                      A                      A                      A
 Frequencies --     97.8858               115.3737               129.5864
 Red. masses --      2.2600                 2.5691                 3.1693
 Frc consts  --      0.0128                 0.0201                 0.0314
 IR Inten    --      1.3990                 1.1107                 1.0502

                      7                      8                      9
                      A                      A                      A
 Frequencies --    169.4343               182.7611               204.8303
 Red. masses --      1.3365                 1.0759                 1.7967
 Frc consts  --      0.0226                 0.0212                 0.0444
 IR Inten    --      0.1383                 0.0284                 0.2444

                     10                     11                     12
                      A                      A                      A
 Frequencies --    221.4741               247.1073               262.1761
 Red. masses --      2.3880                 1.2579                 2.3263
 Frc consts  --      0.0690                 0.0453                 0.0942
 IR Inten    --      0.0352                 0.6846                 1.0884

                     13                     14                     15
                      A                      A                      A
 Frequencies --    267.4955               278.2823               315.7476
 Red. masses --      2.0957                 2.9837                 1.8970
 Frc consts  --      0.0884                 0.1361                 0.1114
 IR Inten    --      1.5058                 0.1618                 0.8450

                     16                     17                     18
                      A                      A                      A
 Frequencies --    325.5000               360.2274               398.6510
 Red. masses --      2.8141                 2.5729                 2.5586
 Frc consts  --      0.1757                 0.1967                 0.2396
 IR Inten    --      0.0759                 0.8919                 0.9951

                     19                     20                     21
                      A                      A                      A
 Frequencies --    419.6950               511.0377               536.8472
 Red. masses --      3.2485                 3.4911                 3.7587
 Frc consts  --      0.3371                 0.5372                 0.6383
 IR Inten    --      0.3953                 2.3762                 2.7199

                     22                     23                     24
                      A                      A                      A
 Frequencies --    557.6907               580.1092               619.5330
 Red. masses --      3.6722                 2.9851                 3.9695
 Frc consts  --      0.6729                 0.5919                 0.8977
 IR Inten    --      0.7005                 2.1249                 0.5154

                     25                     26                     27
                      A                      A                      A
 Frequencies --    653.7278               702.9494               718.5052
 Red. masses --      5.1741                 1.2134                 3.4284
 Frc consts  --      1.3028                 0.3533                 1.0428
 IR Inten    --      1.1985                56.6511                 2.2792

                     28                     29                     30
                      A                      A                      A
 Frequencies --    747.9400               787.4242               813.0255
 Red. masses --      6.4500                 2.1214                 1.5355
 Frc consts  --      2.1259                 0.7750                 0.5980
 IR Inten    --      0.0285                27.4008                54.8467

                     31                     32                     33
                      A                      A                      A
 Frequencies --    844.7917               861.0385               908.0099
 Red. masses --      1.2922                 4.1004                 1.3239
 Frc consts  --      0.5433                 1.7911                 0.6431
 IR Inten    --      8.8089                14.3047                 1.0414

                     34                     35                     36
                      A                      A                      A
 Frequencies --    910.4270               976.7025               979.4877
 Red. masses --      2.8677                 1.5085                 1.7229
 Frc consts  --      1.4005                 0.8479                 0.9739
 IR Inten    --      6.7056                 2.0283                 1.8652

                     37                     38                     39
                      A                      A                      A
 Frequencies --    986.3343              1003.9418              1036.0137
 Red. masses --      1.4157                 1.5843                 1.8226
 Frc consts  --      0.8115                 0.9408                 1.1526
 IR Inten    --      0.5195                 4.1496                20.7024

                     40                     41                     42
                      A                      A                      A
 Frequencies --   1052.7808              1064.0939              1079.3429
 Red. masses --      1.5937                 1.3616                 1.8436
 Frc consts  --      1.0407                 0.9084                 1.2654
 IR Inten    --      2.8874                 2.0334                 6.8827

                     43                     44                     45
                      A                      A                      A
 Frequencies --   1109.4398              1121.9358              1126.2940
 Red. masses --      1.8346                 1.2374                 1.9265
 Frc consts  --      1.3305                 0.9177                 1.4398
 IR Inten    --      2.5573                 4.5333                 7.7673

                     46                     47                     48
                      A                      A                      A
 Frequencies --   1148.6997              1162.0782              1174.0668
 Red. masses --      1.8314                 2.1401                 2.3148
 Frc consts  --      1.4238                 1.7028                 1.8800
 IR Inten    --      2.9300                20.4348                36.5364

                     49                     50                     51
                      A                      A                      A
 Frequencies --   1200.0468              1212.1862              1230.3985
 Red. masses --      1.9625                 2.0647                 2.7348
 Frc consts  --      1.6652                 1.7875                 2.4393
 IR Inten    --      3.9327                 1.1753                 5.6433

                     52                     53                     54
                      A                      A                      A
 Frequencies --   1264.8869              1296.4166              1314.7324
 Red. masses --      1.5377                 1.3662                 3.0130
 Frc consts  --      1.4495                 1.3528                 3.0684
 IR Inten    --     16.8370                 2.6542                 2.0834

                     55                     56                     57
                      A                      A                      A
 Frequencies --   1345.8621              1393.2552              1398.8767
 Red. masses --      1.5008                 1.6515                 2.3058
 Frc consts  --      1.6017                 1.8888                 2.6584
 IR Inten    --      2.4744                 6.0771                 1.3235

                     58                     59                     60
                      A                      A                      A
 Frequencies --   1434.2526              1442.3943              1455.6459
 Red. masses --      1.2758                 1.2488                 1.2817
 Frc consts  --      1.5462                 1.5307                 1.6001
 IR Inten    --      0.1524                 2.9601                 2.6540

                     61                     62                     63
                      A                      A                      A
 Frequencies --   1472.0511              1484.5992              1502.4645
 Red. masses --      1.7708                 1.2781                 4.6299
 Frc consts  --      2.2608                 1.6597                 6.1579
 IR Inten    --      3.9113                 1.2760                 7.0842

                     64                     65                     66
                      A                      A                      A
 Frequencies --   1503.6260              1510.0699              1517.3027
 Red. masses --      1.2478                 1.0572                 1.0600
 Frc consts  --      1.6621                 1.4204                 1.4378
 IR Inten    --     26.5953                 3.4540                 5.0076

                     67                     68                     69
                      A                      A                      A
 Frequencies --   1519.3036              1521.5156              1527.5106
 Red. masses --      1.0802                 1.0576                 1.0651
 Frc consts  --      1.4690                 1.4425                 1.4642
 IR Inten    --      3.5159                 8.7082                 3.5865

                     70                     71                     72
                      A                      A                      A
 Frequencies --   1535.2575              1543.9020              1545.8408
 Red. masses --      1.0629                 1.0505                 1.1194
 Frc consts  --      1.4760                 1.4753                 1.5761
 IR Inten    --     10.2887                 9.2066                 8.8849

                     73                     74                     75
                      A                      A                      A
 Frequencies --   1557.4970              1601.8775              2947.3545
 Red. masses --      1.0758                 5.4334                 1.0612
 Frc consts  --      1.5375                 8.2145                 5.4316
 IR Inten    --      3.4670                 2.8948                87.5434

                     76                     77                     78
                      A                      A                      A
 Frequencies --   2987.1330              3033.0871              3037.5681
 Red. masses --      1.0671                 1.0924                 1.0412
 Frc consts  --      5.6098                 5.9210                 5.6601
 IR Inten    --     54.6387                34.0676                16.5056

                     79                     80                     81
                      A                      A                      A
 Frequencies --   3042.3906              3052.3400              3070.2540
 Red. masses --      1.0407                 1.0371                 1.0728
 Frc consts  --      5.6754                 5.6928                 5.9583
 IR Inten    --     61.7988                27.6781                50.9955

                     82                     83                     84
                      A                      A                      A
 Frequencies --   3091.2207              3095.0920              3112.3713
 Red. masses --      1.1008                 1.0999                 1.1022
 Frc consts  --      6.1975                 6.2082                 6.2903
 IR Inten    --      1.2476                58.0555                18.2967

                     85                     86                     87
                      A                      A                      A
 Frequencies --   3118.7211              3129.9739              3139.4917
 Red. masses --      1.1019                 1.1008                 1.0904
 Frc consts  --      6.3144                 6.3541                 6.3323
 IR Inten    --     34.9723                25.3034                 0.2722

                     88                     89                     90
                      A                      A                      A
 Frequencies --   3148.4682              3151.8064              3216.5470
 Red. masses --      1.0939                 1.0961                 1.0882
 Frc consts  --      6.3888                 6.4156                 6.6337
 IR Inten    --     49.3075                26.0788                 9.8240

                     91                     92                     93
                      A                      A                      A
 Frequencies --   3231.7760              3269.6293              3490.9859
 Red. masses --      1.0952                 1.0971                 1.0737
 Frc consts  --      6.7395                 6.9099                 7.7098
 IR Inten    --      7.1098                 1.7034                 1.1742

 - Thermochemistry -
 -------------------
 Temperature   298.150 Kelvin.  Pressure   1.00000 Atm.
 Atom     1 has atomic number  6 and mass  12.00000

 Molecular mass:   209.12382 amu.
 Principal axes and moments of inertia in atomic units:
                           1         2         3
     Eigenvalues --  2155.462584083.186335057.16878
           X            0.99984   0.01274  -0.01271
           Y           -0.01286   0.99987  -0.01000
           Z            0.01259   0.01016   0.99987
 This molecule is an asymmetric top.
 Rotational symmetry number  1.
 Warning -- assumption of classical behavior for rotation
           may cause significant error
 Rotational temperatures (Kelvin)      0.04018     0.02121     0.01713
 Rotational constants (GHZ):           0.83729     0.44199     0.35687
 Zero-point vibrational energy     757598.7 (Joules/Mol)
                                  181.07043 (Kcal/Mol)
 Warning -- explicit consideration of  24 degrees of freedom as
           vibrations may cause significant error
 Vibrational temperatures:     58.40   106.02   112.01   140.84   166.00
          (Kelvin)            186.45   243.78   262.95   294.71   318.65
                              355.53   377.21   384.87   400.39   454.29
                              468.32   518.29   573.57   603.85   735.27
                              772.40   802.39   834.65   891.37   940.57
                             1011.39  1033.77  1076.12  1132.93  1169.76
                             1215.47  1238.84  1306.42  1309.90  1405.26
                             1409.26  1419.12  1444.45  1490.59  1514.72
                             1530.99  1552.93  1596.24  1614.22  1620.49
                             1652.72  1671.97  1689.22  1726.60  1744.07
                             1770.27  1819.89  1865.25  1891.61  1936.40
                             2004.58  2012.67  2063.57  2075.28  2094.35
                             2117.95  2136.01  2161.71  2163.38  2172.65
                             2183.06  2185.94  2189.12  2197.75  2208.89
                             2221.33  2224.12  2240.89  2304.74  4240.59
                             4297.82  4363.94  4370.38  4377.32  4391.64
                             4417.41  4447.58  4453.15  4478.01  4487.14
                             4503.33  4517.03  4529.94  4534.75  4627.89
                             4649.80  4704.27  5022.75

 Zero-point correction=                           0.288554 (Hartree/Particle)
 Thermal correction to Energy=                    0.304164
 Thermal correction to Enthalpy=                  0.305109
 Thermal correction to Gibbs Free Energy=         0.246102
 Sum of electronic and zero-point Energies=           -921.387319
 Sum of electronic and thermal Energies=              -921.371708
 Sum of electronic and thermal Enthalpies=            -921.370764
 Sum of electronic and thermal Free Energies=         -921.429771

                     E (Thermal)             CV                S
                      KCal/Mol        Cal/Mol-Kelvin    Cal/Mol-Kelvin
 Total                  190.866             58.977            124.191
 Electronic               0.000              0.000              0.000
 Translational            0.889              2.981             41.917
 Rotational               0.889              2.981             32.165
 Vibrational            189.089             53.015             50.109
 Vibration     1          0.594              1.981              5.230
 Vibration     2          0.599              1.966              4.052
 Vibration     3          0.599              1.964              3.944
 Vibration     4          0.603              1.951              3.496
 Vibration     5          0.608              1.937              3.176
 Vibration     6          0.612              1.924              2.952
 Vibration     7          0.625              1.880              2.442
 Vibration     8          0.630              1.863              2.300
 Vibration     9          0.640              1.833              2.089
 Vibration    10          0.648              1.808              1.947
 Vibration    11          0.661              1.768              1.751
 Vibration    12          0.669              1.742              1.647
 Vibration    13          0.673              1.733              1.612
 Vibration    14          0.679              1.714              1.544
 Vibration    15          0.703              1.644              1.332
 Vibration    16          0.710              1.624              1.282
 Vibration    17          0.735              1.554              1.121
 Vibration    18          0.765              1.473              0.968
 Vibration    19          0.782              1.427              0.893
 Vibration    20          0.866              1.226              0.631
 Vibration    21          0.892              1.169              0.572
 Vibration    22          0.913              1.123              0.528
 Vibration    23          0.937              1.074              0.485
 Vibration    24          0.979              0.991              0.417

                           ! Non-Optimized Parameters !
 Normal termination of Gaussian 16 at Thu Dec 10 10:33:26 2020.

 ----------------------------------------------------------------------
 # B3LYP/6-311++G(d,p) empiricaldispersion=gd3bj scf=xqc pop=npa geom=c
 heck
 ----------------------------------------------------------------------

 ---------------------------------------
 CID_130488781_JID_4586_Energie_neutraal
 ---------------------------------------
 Structure from the checkpoint file:  "JID_4586.chk"
 Charge =  0 Multiplicity = 1

 SCF Done:  E(RB3LYP) =  -921.846972710     A.U. after   15 cycles
 Normal termination of Gaussian 16 at Thu Dec 10 10:41:07 2020.

 ----------------------------------------------------------------------
 # B3LYP/6-311++G(d,p) empiricaldispersion=gd3bj scf=xqc pop=npa geom=c
 heck
 ----------------------------------------------------------------------

 -------------------------------------
 CID_130488781_JID_4586_Energie_kation
 -------------------------------------
 Structure from the checkpoint file:  "JID_4586.chk"
 Charge =  1 Multiplicity = 2

 SCF Done:  E(UB3LYP) =  -921.562706117     A.U. after   28 cycles
 Normal termination of Gaussian 16 at Thu Dec 10 10:56:34 2020.
 Gaussian 16:  ES64L-G16RevA.03 25-Dec-2016

 ----------------------------------------------------------------------
 # B3LYP/6-311++G(d,p) empiricaldispersion=gd3bj scf=xqc pop=npa geom=c
 heck
 ----------------------------------------------------------------------

 ------------------------------------
 CID_130488781_JID_4586_Energie_anion
 ------------------------------------
 Structure from the checkpoint file:  "JID_4586.chk"
 Charge = -1 Multiplicity = 2

                         Standard orientation:
 ---------------------------------------------------------------------
 Center     Atomic      Atomic             Coordinates (Angstroms)
 Number     Number       Type             X           Y           Z
 ---------------------------------------------------------------------
      1          6           0       -1.201534    2.823064    0.378779
      2          6           0       -0.784117    1.362231    0.379731
      3          6           0       -1.299692    0.459213   -0.727081
      4          6           0        0.172855    0.843671   -0.701814
      5          6           0        0.675906    1.788224   -1.790988
      6          6           0        1.201863   -0.170735   -0.338146
      7          6           0        1.359629   -1.454576   -0.793627
      8          6           0        2.538576   -2.098092   -0.305671
      9          6           0        3.281677   -1.292618    0.510876
     10         16           0        2.546604    0.268706    0.700077
     11          6           0       -1.842056   -0.926154   -0.461597
     12          7           0       -3.238989   -0.833153   -0.040645
     13          6           0       -3.811109   -2.130900    0.291740
     14          6           0       -0.662673    0.807851    1.790037
     15          1           0       -2.122389    2.949226    0.961854
     16          1           0       -1.398385    3.206926   -0.624963
     17          1           0       -0.431073    3.455290    0.838299
     18          1           0       -1.872981    0.974786   -1.496500
     19          1           0        1.524121    2.383670   -1.433637
     20          1           0        1.018691    1.207400   -2.654219
     21          1           0       -0.101517    2.474681   -2.135764
     22          1           0        0.651212   -1.924206   -1.466428
     23          1           0        2.817238   -3.116177   -0.554931
     24          1           0        4.208615   -1.522819    1.018194
     25          1           0       -1.813462   -1.517166   -1.388423
     26          1           0       -1.211982   -1.466097    0.264167
     27          1           0       -3.286379   -0.224342    0.774536
     28          1           0       -3.237124   -2.701376    1.046845
     29          1           0       -4.832557   -1.999110    0.663117
     30          1           0       -3.862471   -2.746215   -0.614655
     31          1           0        0.074875    1.379102    2.366253
     32          1           0       -1.623641    0.889521    2.314748
     33          1           0       -0.349482   -0.237401    1.811364
 ---------------------------------------------------------------------

 SCF Done:  E(UB3LYP) =  -921.831420419     A.U. after   33 cycles
 SCF Done:  E(UB3LYP) =  -921.831420419     a.u. after    1 cycles

 The electronic state is 2-A.
 Alpha  occ. eigenvalues --  -88.77697 -14.19951 -10.10821 -10.10216 -10.10127
 Alpha  occ. eigenvalues --  -10.09434 -10.09417 -10.08744 -10.08094 -10.08047
 Alpha  occ. eigenvalues --  -10.07768 -10.07317 -10.06905 -10.06462  -7.86325
 Alpha  occ. eigenvalues --   -5.82603  -5.82242  -5.81932  -0.81326  -0.79409
 Alpha  occ. eigenvalues --   -0.76966  -0.66309  -0.64197  -0.63334  -0.62290
 Alpha  occ. eigenvalues --   -0.59392  -0.58826  -0.53687  -0.50078  -0.46546
 Alpha  occ. eigenvalues --   -0.44572  -0.42695  -0.40478  -0.39425  -0.36635
 Alpha  occ. eigenvalues --   -0.35316  -0.35147  -0.34547  -0.32709  -0.31371
 Alpha  occ. eigenvalues --   -0.30907  -0.30417  -0.29943  -0.29306  -0.29021
 Alpha  occ. eigenvalues --   -0.28676  -0.28306  -0.27803  -0.27062  -0.25391
 Alpha  occ. eigenvalues --   -0.24600  -0.24055  -0.18390  -0.17722  -0.15857
 Alpha  occ. eigenvalues --   -0.13793  -0.12851   0.04325
 Alpha virt. eigenvalues --    0.06092   0.06508   0.06990   0.07204   0.08175
 Alpha virt. eigenvalues --    0.08674   0.09027   0.09158   0.09848   0.10517
 Alpha virt. eigenvalues --    0.11088   0.11365   0.11655   0.12227   0.12583

  Beta  occ. eigenvalues --  -88.77693 -14.19936 -10.10816 -10.10214 -10.10105
  Beta  occ. eigenvalues --  -10.09432 -10.09404 -10.08711 -10.08088 -10.08033
  Beta  occ. eigenvalues --  -10.07759 -10.07300 -10.06880 -10.06435  -7.86321
  Beta  occ. eigenvalues --   -5.82600  -5.82239  -5.81927  -0.81306  -0.79390
  Beta  occ. eigenvalues --   -0.76948  -0.66282  -0.64169  -0.63303  -0.62255
  Beta  occ. eigenvalues --   -0.59346  -0.58783  -0.53618  -0.50044  -0.46500
  Beta  occ. eigenvalues --   -0.44538  -0.42656  -0.40440  -0.39392  -0.36597
  Beta  occ. eigenvalues --   -0.35281  -0.35119  -0.34508  -0.32683  -0.31337
  Beta  occ. eigenvalues --   -0.30875  -0.30387  -0.29916  -0.29278  -0.28993
  Beta  occ. eigenvalues --   -0.28649  -0.28276  -0.27768  -0.27018  -0.25365
  Beta  occ. eigenvalues --   -0.24579  -0.24028  -0.18373  -0.17703  -0.15833
  Beta  occ. eigenvalues --   -0.13756  -0.12815
  Beta virt. eigenvalues --    0.06300   0.06957   0.07066   0.07239   0.07753
  Beta virt. eigenvalues --    0.08765   0.09038   0.09426   0.09463   0.10225
  Beta virt. eigenvalues --    0.10762   0.11357   0.11524   0.11981   0.12501

 Mulliken charges and spin densities:
               1          2
     1  C    1.283903  -1.579368
     2  C   -1.455329   1.447711
     3  C    0.884536  -0.973207
     4  C    0.436121  -0.158582
     5  C   -0.141584  -0.496770
     6  C    0.725005  -1.266735
     7  C   -1.930565   2.937575
     8  C    1.787390  -2.433666
     9  C   -0.339962   0.376250
    10  S    0.567243  -0.817465
    11  C   -0.950193   0.053520
    12  N   -0.126743   0.062345
    13  C    0.612679  -0.932672
    14  C   -0.286070  -0.297690
    15  H   -0.138793   0.297710
    16  H   -0.114275   0.241988
    17  H    0.015525   0.138526
    18  H    0.025353   0.197308
    19  H   -0.032466   0.182887
    20  H    0.043177   0.118233
    21  H   -0.021390   0.135279
    22  H   -0.187080   0.376008
    23  H   -0.595285   0.755429
    24  H   -0.552002   0.796398
    25  H   -0.051962   0.234680
    26  H    0.596971  -0.489355
    27  H    0.277513  -0.056531
    28  H   -0.271427   0.391156
    29  H   -0.397960   0.532039
    30  H   -0.194058   0.321375
    31  H   -0.012805   0.174312
    32  H   -0.354184   0.481264
    33  H   -0.101285   0.250050
 Sum of Mulliken charges =  -1.00000   1.00000

 Dipole moment (field-independent basis, Debye):
    X=              1.6107    Y=              3.2509    Z=             -1.4005  Tot=              3.8889
 Quadrupole moment (field-independent basis, Debye-Ang):
   XX=           -173.2573   YY=           -150.9668   ZZ=           -131.8555
   XY=              4.2019   XZ=              2.8166   YZ=              0.1376

 Summary of Natural Population Analysis:

                                       Natural Population
                Natural  -----------------------------------------------
    Atom  No    Charge         Core      Valence    Rydberg      Total
 -----------------------------------------------------------------------
      C    1   -0.28173      0.99962     2.27566    0.00645     3.28173
      C    2   -0.02935      0.99952     2.01746    0.01238     3.02935
      C    3   -0.09751      0.99951     2.08601    0.01200     3.09751
      C    4   -0.05583      0.99945     2.04193    0.01446     3.05583
      C    5   -0.27391      0.99962     2.26906    0.00522     3.27391
      C    6   -0.08718      0.99945     2.07240    0.01533     3.08718
      C    7   -0.12659      0.99945     2.11676    0.01038     3.12659
      C    8   -0.12502      0.99953     2.11435    0.01114     3.12502
      C    9   -0.19503      0.99954     2.18351    0.01198     3.19503
      S   10    0.20231      4.99941     2.77905    0.01923     7.79769
      C   11   -0.09228      0.99960     2.07967    0.01300     3.09228
      N   12   -0.33404      0.99975     2.82361    0.01068     3.83404
      C   13   -0.17539      0.99967     2.16891    0.00682     3.17539
      C   14   -0.28999      0.99962     2.28273    0.00764     3.28999
      H   15    0.10214      0.00000     0.39684    0.00102     0.39786
      H   16    0.10056      0.00000     0.39834    0.00110     0.39944
      H   17    0.09904      0.00000     0.39997    0.00099     0.40096
      H   18    0.10451      0.00000     0.39370    0.00179     0.39549
      H   19    0.10072      0.00000     0.39813    0.00115     0.39928
      H   20    0.10254      0.00000     0.39639    0.00107     0.39746
      H   21    0.10022      0.00000     0.39882    0.00096     0.39978
      H   22    0.10912      0.00000     0.38903    0.00185     0.39088
      H   23    0.10843      0.00000     0.38996    0.00161     0.39157
      H   24    0.11070      0.00000     0.38778    0.00152     0.38930
      H   25    0.09249      0.00000     0.40599    0.00152     0.40751
      H   26    0.08735      0.00000     0.41047    0.00218     0.41265
      H   27    0.17040      0.00000     0.32543    0.00416     0.32960
      H   28    0.07896      0.00000     0.41883    0.00221     0.42104
      H   29    0.09431      0.00000     0.40447    0.00122     0.40569
      H   30    0.08952      0.00000     0.40884    0.00163     0.41048
      H   31    0.10301      0.00000     0.39579    0.00119     0.39699
      H   32    0.09977      0.00000     0.39881    0.00142     0.40023
      H   33    0.10775      0.00000     0.39092    0.00133     0.39225
 =======================================================================
   * Total *    0.00000     17.99373    38.81961    0.18666    57.00000

 Normal termination of Gaussian 16 at Thu Dec 10 11:10:55 2020.
