 Gaussian 16, Revision A.03,

 -----------------------------------------------------------
 # opt freq B3LYP/6-31G(d) empiricaldispersion=gd3bj scf=xqc
 -----------------------------------------------------------

 -------------------------------
 CID_131439941_JID_4836_neutraal
 -------------------------------
 Symbolic Z-matrix:
 Charge =  0 Multiplicity = 1

 SCF Done:  E(RB3LYP) =  -956.382833037     A.U. after   14 cycles
 SCF Done:  E(RB3LYP) =  -956.386927342     A.U. after   12 cycles
 SCF Done:  E(RB3LYP) =  -956.388054847     A.U. after   12 cycles
 SCF Done:  E(RB3LYP) =  -956.390292560     A.U. after   15 cycles
 SCF Done:  E(RB3LYP) =  -956.391352340     A.U. after   12 cycles
 SCF Done:  E(RB3LYP) =  -956.392373497     A.U. after   13 cycles
 SCF Done:  E(RB3LYP) =  -956.392715405     A.U. after   12 cycles
 SCF Done:  E(RB3LYP) =  -956.392503132     A.U. after   12 cycles
 SCF Done:  E(RB3LYP) =  -956.392937890     A.U. after   12 cycles
 SCF Done:  E(RB3LYP) =  -956.392982746     A.U. after   10 cycles
 SCF Done:  E(RB3LYP) =  -956.393003151     A.U. after   11 cycles
 SCF Done:  E(RB3LYP) =  -956.393005359     A.U. after    8 cycles
 SCF Done:  E(RB3LYP) =  -956.393005742     A.U. after    8 cycles
 SCF Done:  E(RB3LYP) =  -956.393005814     A.U. after    7 cycles
 Optimization completed.
    -- Stationary point found.
 Normal termination of Gaussian 16 at Thu Dec 10 10:40:28 2020.

 --------------------------------------------------------------------
 #N Geom=AllCheck Guess=TCheck SCRF=Check GenChk RB3LYP/6-31G(d) Freq
 --------------------------------------------------------------------

 Structure from the checkpoint file:  "JID_4836.chk"
 -------------------------------
 CID_131439941_JID_4836_neutraal
 -------------------------------
 Charge =  0 Multiplicity = 1

 SCF Done:  E(RB3LYP) =  -956.393005814     A.U. after    1 cycles

  Exact polarizability: 202.747  -0.017 182.211  -5.845  -0.046  76.089
 Approx polarizability: 302.172  -5.574 268.654 -13.679   0.589 117.394

                      1                      2                      3
                      A                      A                      A
 Frequencies --     36.3413                47.2819                67.1885
 Red. masses --      3.3448                 3.5163                 3.6263
 Frc consts  --      0.0026                 0.0046                 0.0096
 IR Inten    --      0.5473                 3.4333                 2.6087

                      4                      5                      6
                      A                      A                      A
 Frequencies --     87.2207               107.4439               112.5748
 Red. masses --      3.8613                 3.3782                 3.3178
 Frc consts  --      0.0173                 0.0230                 0.0248
 IR Inten    --      1.2828                 0.3451                 0.4707

                      7                      8                      9
                      A                      A                      A
 Frequencies --    177.5940               198.9061               207.5510
 Red. masses --      1.1211                 2.6984                 3.1083
 Frc consts  --      0.0208                 0.0629                 0.0789
 IR Inten    --      5.2733                 4.4314                 0.4164

                     10                     11                     12
                      A                      A                      A
 Frequencies --    242.5501               282.5308               285.3573
 Red. masses --      1.1858                 2.3402                 1.6780
 Frc consts  --      0.0411                 0.1101                 0.0805
 IR Inten    --      1.2422                26.3554                31.3906

                     13                     14                     15
                      A                      A                      A
 Frequencies --    293.4802               304.4603               328.7682
 Red. masses --      1.8366                 2.7294                 3.8408
 Frc consts  --      0.0932                 0.1491                 0.2446
 IR Inten    --     26.7689                 0.2905                 3.9589

                     16                     17                     18
                      A                      A                      A
 Frequencies --    338.9016               348.0997               363.3067
 Red. masses --      1.5455                 3.9294                 2.9941
 Frc consts  --      0.1046                 0.2805                 0.2328
 IR Inten    --     65.2503                 1.8536                10.8537

                     19                     20                     21
                      A                      A                      A
 Frequencies --    403.6390               458.0246               543.2873
 Red. masses --      5.6515                 3.8265                 3.6251
 Frc consts  --      0.5425                 0.4730                 0.6304
 IR Inten    --      4.5537                15.8483                 1.0127

                     22                     23                     24
                      A                      A                      A
 Frequencies --    561.5918               569.7965               602.7208
 Red. masses --      5.2866                 3.9424                 5.7096
 Frc consts  --      0.9824                 0.7541                 1.2220
 IR Inten    --      0.9820                 3.1060                 2.8683

                     25                     26                     27
                      A                      A                      A
 Frequencies --    674.1335               709.8282               728.9819
 Red. masses --      5.8986                 4.7837                 6.0521
 Frc consts  --      1.5794                 1.4201                 1.8949
 IR Inten    --      6.2830                 1.6632                 0.2092

                     28                     29                     30
                      A                      A                      A
 Frequencies --    742.5543               793.5053               843.7519
 Red. masses --      5.7672                 1.2848                 1.6370
 Frc consts  --      1.8736                 0.4766                 0.6866
 IR Inten    --      2.5021                21.6819                41.0321

                     31                     32                     33
                      A                      A                      A
 Frequencies --    889.3749               917.8848               923.6199
 Red. masses --      1.4440                 4.8423                 1.3472
 Frc consts  --      0.6729                 2.4037                 0.6771
 IR Inten    --     88.1646                52.2245                 2.5772

                     34                     35                     36
                      A                      A                      A
 Frequencies --    940.2032               967.7670               989.3975
 Red. masses --      1.9302                 2.0973                 1.1845
 Frc consts  --      1.0053                 1.1573                 0.6832
 IR Inten    --     48.8043                 4.2684                 5.8285

                     37                     38                     39
                      A                      A                      A
 Frequencies --   1005.2829              1022.3064              1041.7335
 Red. masses --      1.3008                 1.1165                 2.2414
 Frc consts  --      0.7745                 0.6875                 1.4331
 IR Inten    --      9.1463                24.9481                 6.2430

                     40                     41                     42
                      A                      A                      A
 Frequencies --   1063.7208              1070.5437              1148.0232
 Red. masses --      2.3974                 1.4523                 2.4252
 Frc consts  --      1.5983                 0.9806                 1.8832
 IR Inten    --      4.3482                 1.4922                 5.0316

                     43                     44                     45
                      A                      A                      A
 Frequencies --   1180.1275              1182.1016              1229.4078
 Red. masses --      1.3455                 1.6493                 1.5001
 Frc consts  --      1.1040                 1.3579                 1.3359
 IR Inten    --      3.1929                17.9957                 6.6963

                     46                     47                     48
                      A                      A                      A
 Frequencies --   1259.9148              1285.8611              1297.2671
 Red. masses --      2.7022                 2.8963                 1.4533
 Frc consts  --      2.5273                 2.8215                 1.4410
 IR Inten    --     76.2507                 5.1776                 5.5684

                     49                     50                     51
                      A                      A                      A
 Frequencies --   1314.0996              1342.6329              1356.8891
 Red. masses --      2.0034                 1.3104                 2.6030
 Frc consts  --      2.0383                 1.3917                 2.8237
 IR Inten    --     53.2129                 0.9704                16.8053

                     52                     53                     54
                      A                      A                      A
 Frequencies --   1386.6724              1389.1064              1439.1153
 Red. masses --      1.2675                 1.3145                 1.4450
 Frc consts  --      1.4359                 1.4945                 1.7632
 IR Inten    --      9.5813                 6.0303                74.1904

                     55                     56                     57
                      A                      A                      A
 Frequencies --   1440.6679              1481.3643              1498.7978
 Red. masses --      1.3565                 2.6871                 1.1257
 Frc consts  --      1.6589                 3.4742                 1.4900
 IR Inten    --      4.8074                11.8367                13.3572

                     58                     59                     60
                      A                      A                      A
 Frequencies --   1502.8218              1521.3811              1522.0254
 Red. masses --      2.0525                 1.0458                 1.1223
 Frc consts  --      2.7312                 1.4262                 1.5318
 IR Inten    --    116.3986                 7.3549                 2.7454

                     61                     62                     63
                      A                      A                      A
 Frequencies --   1530.7979              1534.9972              1623.1661
 Red. masses --      1.0953                 1.1487                 5.4342
 Frc consts  --      1.5123                 1.5947                 8.4356
 IR Inten    --      0.1421                 9.3208                14.3564

                     64                     65                     66
                      A                      A                      A
 Frequencies --   1659.7488              1690.3490              1728.4440
 Red. masses --      6.1476                 1.1057                 5.3987
 Frc consts  --      9.9780                 1.8614                 9.5028
 IR Inten    --     28.1935                25.0299                 2.6860

                     67                     68                     69
                      A                      A                      A
 Frequencies --   2960.5392              3013.9571              3031.7817
 Red. masses --      1.0707                 1.0431                 1.0896
 Frc consts  --      5.5291                 5.5827                 5.9007
 IR Inten    --     67.9243                44.8952                45.4998

                     70                     71                     72
                      A                      A                      A
 Frequencies --   3057.2343              3064.8720              3131.5601
 Red. masses --      1.1000                 1.0300                 1.0946
 Frc consts  --      6.0576                 5.7003                 6.3244
 IR Inten    --     25.3548                24.9020                11.3254

                     73                     74                     75
                      A                      A                      A
 Frequencies --   3141.8111              3148.5881              3158.8840
 Red. masses --      1.0866                 1.1076                 1.1045
 Frc consts  --      6.3194                 6.4695                 6.4936
 IR Inten    --     11.4189                 9.9772                 5.5753

                     76                     77                     78
                      A                      A                      A
 Frequencies --   3182.8702              3232.2905              3238.5907
 Red. masses --      1.0895                 1.0894                 1.0904
 Frc consts  --      6.5027                 6.7057                 6.7385
 IR Inten    --     16.5533                 2.9621                11.6174

                     79                     80                     81
                      A                      A                      A
 Frequencies --   3458.8260              3548.0481              3767.1840
 Red. masses --      1.0494                 1.0928                 1.0652
 Frc consts  --      7.3966                 8.1054                 8.9068
 IR Inten    --     11.2221                 2.6894                54.5946

 - Thermochemistry -
 -------------------
 Temperature   298.150 Kelvin.  Pressure   1.00000 Atm.
 Atom     1 has atomic number  6 and mass  12.00000

 Molecular mass:   209.08744 amu.
 Principal axes and moments of inertia in atomic units:
                           1         2         3
     Eigenvalues --  2803.012043949.603546649.25857
           X            0.99975   0.02219   0.00012
           Y           -0.02219   0.99975   0.00328
           Z           -0.00005  -0.00328   0.99999
 This molecule is an asymmetric top.
 Rotational symmetry number  1.
 Warning -- assumption of classical behavior for rotation
           may cause significant error
 Rotational temperatures (Kelvin)      0.03090     0.02193     0.01303
 Rotational constants (GHZ):           0.64386     0.45694     0.27142
 Zero-point vibrational energy     633877.4 (Joules/Mol)
                                  151.50033 (Kcal/Mol)
 Warning -- explicit consideration of  24 degrees of freedom as
           vibrations may cause significant error
 Vibrational temperatures:     52.29    68.03    96.67   125.49   154.59
          (Kelvin)            161.97   255.52   286.18   298.62   348.98
                              406.50   410.57   422.25   438.05   473.02
                              487.60   500.84   522.72   580.75   659.00
                              781.67   808.01   819.81   867.18   969.93
                             1021.28  1048.84  1068.37  1141.68  1213.97
                             1279.61  1320.63  1328.88  1352.74  1392.40
                             1423.52  1446.38  1470.87  1498.82  1530.46
                             1540.27  1651.75  1697.94  1700.78  1768.84
                             1812.74  1850.07  1866.48  1890.70  1931.75
                             1952.26  1995.11  1998.61  2070.57  2072.80
                             2131.35  2156.44  2162.23  2188.93  2189.86
                             2202.48  2208.52  2335.37  2388.01  2432.04
                             2486.85  4259.56  4336.41  4362.06  4398.68
                             4409.67  4505.62  4520.37  4530.12  4544.93
                             4579.44  4650.55  4659.61  4976.48  5104.85
                             5420.14

 Zero-point correction=                           0.241431 (Hartree/Particle)
 Thermal correction to Energy=                    0.256857
 Thermal correction to Enthalpy=                  0.257801
 Thermal correction to Gibbs Free Energy=         0.198237
 Sum of electronic and zero-point Energies=           -956.151575
 Sum of electronic and thermal Energies=              -956.136149
 Sum of electronic and thermal Enthalpies=            -956.135204
 Sum of electronic and thermal Free Energies=         -956.194769

                     E (Thermal)             CV                S
                      KCal/Mol        Cal/Mol-Kelvin    Cal/Mol-Kelvin
 Total                  161.180             56.989            125.363
 Electronic               0.000              0.000              0.000
 Translational            0.889              2.981             41.917
 Rotational               0.889              2.981             32.665
 Vibrational            159.403             51.027             50.782
 Vibration     1          0.594              1.982              5.449
 Vibration     2          0.595              1.979              4.928
 Vibration     3          0.598              1.970              4.234
 Vibration     4          0.601              1.958              3.721
 Vibration     5          0.606              1.943              3.315
 Vibration     6          0.607              1.939              3.224
 Vibration     7          0.628              1.870              2.354
 Vibration     8          0.637              1.841              2.143
 Vibration     9          0.641              1.829              2.065
 Vibration    10          0.659              1.775              1.784
 Vibration    11          0.682              1.706              1.518
 Vibration    12          0.683              1.701              1.501
 Vibration    13          0.688              1.686              1.454
 Vibration    14          0.695              1.665              1.392
 Vibration    15          0.712              1.618              1.266
 Vibration    16          0.719              1.598              1.217
 Vibration    17          0.726              1.579              1.175
 Vibration    18          0.737              1.548              1.108
 Vibration    19          0.769              1.462              0.949
 Vibration    20          0.816              1.343              0.772
 Vibration    21          0.898              1.154              0.558
 Vibration    22          0.917              1.114              0.521
 Vibration    23          0.926              1.097              0.505
 Vibration    24          0.961              1.026              0.445

                           ! Non-Optimized Parameters !
 Normal termination of Gaussian 16 at Thu Dec 10 10:47:59 2020.

 ----------------------------------------------------------------------
 # B3LYP/6-311++G(d,p) empiricaldispersion=gd3bj scf=xqc pop=npa geom=c
 heck
 ----------------------------------------------------------------------

 ---------------------------------------
 CID_131439941_JID_4836_Energie_neutraal
 ---------------------------------------
 Structure from the checkpoint file:  "JID_4836.chk"
 Charge =  0 Multiplicity = 1

 SCF Done:  E(RB3LYP) =  -956.587323146     A.U. after   16 cycles
 Normal termination of Gaussian 16 at Thu Dec 10 10:52:08 2020.

 ----------------------------------------------------------------------
 # B3LYP/6-311++G(d,p) empiricaldispersion=gd3bj scf=xqc pop=npa geom=c
 heck
 ----------------------------------------------------------------------

 -------------------------------------
 CID_131439941_JID_4836_Energie_kation
 -------------------------------------
 Structure from the checkpoint file:  "JID_4836.chk"
 Charge =  1 Multiplicity = 2

 SCF Done:  E(UB3LYP) =  -956.319555335     A.U. after   28 cycles
 Normal termination of Gaussian 16 at Thu Dec 10 11:00:28 2020.
 Gaussian 16:  ES64L-G16RevA.03 25-Dec-2016

 ----------------------------------------------------------------------
 # B3LYP/6-311++G(d,p) empiricaldispersion=gd3bj scf=xqc pop=npa geom=c
 heck
 ----------------------------------------------------------------------

 ------------------------------------
 CID_131439941_JID_4836_Energie_anion
 ------------------------------------
 Structure from the checkpoint file:  "JID_4836.chk"
 Charge = -1 Multiplicity = 2

                         Standard orientation:
 ---------------------------------------------------------------------
 Center     Atomic      Atomic             Coordinates (Angstroms)
 Number     Number       Type             X           Y           Z
 ---------------------------------------------------------------------
      1          6           0       -1.452277   -3.659553    0.030236
      2          6           0       -1.376749   -2.152534    0.009763
      3          6           0       -0.130869   -1.503417   -0.002406
      4          6           0       -0.008363   -0.098039   -0.013390
      5          6           0       -1.208130    0.659535   -0.027495
      6          6           0       -2.452767    0.025360   -0.021351
      7          6           0       -2.524862   -1.364204    0.002683
      8         16           0       -1.061084    2.440744   -0.104616
      9          6           0       -2.761567    3.003259    0.223603
     10          6           0        1.289995    0.587534    0.036370
     11          6           0        2.483478    0.160478   -0.403163
     12          6           0        3.734322    0.980640   -0.284925
     13          7           0        4.776711    0.208611    0.409647
     14          8           0        1.025608   -2.235356    0.013020
     15          1           0       -0.963028   -4.112481   -0.844051
     16          1           0       -0.987491   -4.090336    0.929801
     17          1           0       -2.493436   -3.992937    0.023025
     18          1           0       -3.370455    0.598479   -0.047287
     19          1           0       -3.498208   -1.848401    0.006528
     20          1           0       -3.442004    2.746843   -0.592681
     21          1           0       -3.138593    2.599666    1.166846
     22          1           0       -2.699528    4.091617    0.300104
     23          1           0        1.254608    1.581787    0.481931
     24          1           0        2.601548   -0.816771   -0.857564
     25          1           0        4.119819    1.203536   -1.290702
     26          1           0        3.494340    1.951585    0.184361
     27          1           0        5.629145    0.763478    0.473376
     28          1           0        4.473748    0.033738    1.366865
     29          1           0        0.801770   -3.173488    0.102061
 ---------------------------------------------------------------------

 SCF Done:  E(UB3LYP) =  -956.576894301     A.U. after   33 cycles
 SCF Done:  E(UB3LYP) =  -956.576894300     a.u. after    1 cycles

 The electronic state is 2-A.
 Alpha  occ. eigenvalues --  -88.74519 -19.04948 -14.19141 -10.12382 -10.09732
 Alpha  occ. eigenvalues --  -10.09564 -10.08863 -10.07781 -10.07047 -10.06998
 Alpha  occ. eigenvalues --  -10.06027 -10.05881 -10.05290 -10.04485  -7.83107
 Alpha  occ. eigenvalues --   -5.79511  -5.79102  -5.78505  -0.96167  -0.78007
 Alpha  occ. eigenvalues --   -0.75686  -0.70286  -0.68133  -0.65105  -0.62757
 Alpha  occ. eigenvalues --   -0.59764  -0.55575  -0.53619  -0.50241  -0.48725
 Alpha  occ. eigenvalues --   -0.44566  -0.41574  -0.39007  -0.38624  -0.37042
 Alpha  occ. eigenvalues --   -0.35279  -0.33860  -0.33387  -0.33176  -0.31876
 Alpha  occ. eigenvalues --   -0.31467  -0.30038  -0.29609  -0.29036  -0.28933
 Alpha  occ. eigenvalues --   -0.26639  -0.26283  -0.25225  -0.24008  -0.23359
 Alpha  occ. eigenvalues --   -0.20340  -0.18056  -0.16203  -0.14511  -0.10934
 Alpha  occ. eigenvalues --   -0.10020   0.04308
 Alpha virt. eigenvalues --    0.05791   0.06029   0.07348   0.07949   0.09114
 Alpha virt. eigenvalues --    0.09441   0.09836   0.10310   0.10515   0.10894
 Alpha virt. eigenvalues --    0.11053   0.11884   0.12500   0.13115   0.13450

  Beta  occ. eigenvalues --  -88.74514 -19.04927 -14.19093 -10.12334 -10.09687
  Beta  occ. eigenvalues --  -10.09514 -10.08870 -10.07746 -10.07053 -10.06953
  Beta  occ. eigenvalues --  -10.05927 -10.05871 -10.05265 -10.04338  -7.83102
  Beta  occ. eigenvalues --   -5.79500  -5.79095  -5.78500  -0.96115  -0.77906
  Beta  occ. eigenvalues --   -0.75572  -0.70193  -0.67983  -0.65012  -0.62586
  Beta  occ. eigenvalues --   -0.59662  -0.55454  -0.53534  -0.50166  -0.48590
  Beta  occ. eigenvalues --   -0.44406  -0.41513  -0.38926  -0.38549  -0.36968
  Beta  occ. eigenvalues --   -0.35181  -0.33760  -0.33336  -0.33115  -0.31802
  Beta  occ. eigenvalues --   -0.31394  -0.29955  -0.29511  -0.28952  -0.28864
  Beta  occ. eigenvalues --   -0.26538  -0.26192  -0.25170  -0.23800  -0.23272
  Beta  occ. eigenvalues --   -0.20249  -0.17647  -0.15899  -0.14456  -0.10623
  Beta  occ. eigenvalues --   -0.09667
  Beta virt. eigenvalues --    0.06421   0.06626   0.06754   0.08318   0.08447
  Beta virt. eigenvalues --    0.09426   0.09607   0.10066   0.10448   0.10705
  Beta virt. eigenvalues --    0.11102   0.11274   0.11983   0.12622   0.13309

 Mulliken charges and spin densities:
               1          2
     1  C    2.090420  -2.690136
     2  C   -0.838873   1.390928
     3  C   -2.001263   1.150870
     4  C    0.729628   0.358650
     5  C    0.706195  -0.344138
     6  C   -0.416348   0.167985
     7  C    0.762342  -1.317535
     8  S   -0.360511  -0.444052
     9  C   -0.061060  -0.438364
    10  C   -0.050167   0.327464
    11  C   -0.066579   0.118600
    12  C   -0.320999  -0.402950
    13  N   -0.293869  -0.022903
    14  O   -0.201657   0.019118
    15  H   -0.015578   0.165627
    16  H   -0.149717   0.298009
    17  H   -0.396724   0.577850
    18  H   -0.006145   0.132541
    19  H   -0.398413   0.520850
    20  H   -0.165526   0.347973
    21  H   -0.021576   0.198211
    22  H   -0.182870   0.352860
    23  H    0.068287  -0.003106
    24  H    0.148558  -0.009518
    25  H    0.067493   0.071973
    26  H    0.078753   0.060128
    27  H   -0.101141   0.320077
    28  H    0.155261   0.049040
    29  H    0.242080   0.043947
 Sum of Mulliken charges =  -1.00000   1.00000

 Dipole moment (field-independent basis, Debye):
    X=              0.5412    Y=              0.8898    Z=             -0.4020  Tot=              1.1163
 Quadrupole moment (field-independent basis, Debye-Ang):
   XX=           -169.9950   YY=           -140.7479   ZZ=           -112.2263
   XY=             -3.0766   XZ=              2.8867   YZ=              3.3342

 Summary of Natural Population Analysis:

                                       Natural Population
                Natural  -----------------------------------------------
    Atom  No    Charge         Core      Valence    Rydberg      Total
 -----------------------------------------------------------------------
      C    1   -0.30400      0.99964     2.29746    0.00690     3.30400
      C    2   -0.06206      0.99948     2.05361    0.00896     3.06206
      C    3    0.17974      0.99931     1.80830    0.01266     2.82026
      C    4   -0.05957      0.99942     2.04970    0.01045     3.05957
      C    5   -0.06104      0.99940     2.05084    0.01080     3.06104
      C    6   -0.13615      0.99950     2.12548    0.01118     3.13615
      C    7   -0.06829      0.99952     2.05890    0.00987     3.06829
      S    8    0.12640      4.99954     2.85425    0.01981     7.87360
      C    9   -0.35548      0.99963     2.34930    0.00656     3.35548
      C   10   -0.10975      0.99951     2.09935    0.01089     3.10975
      C   11   -0.05333      0.99953     2.04415    0.00965     3.05333
      C   12   -0.10562      0.99962     2.09345    0.01254     3.10562
      N   13   -0.41978      0.99977     2.90903    0.01098     3.91978
      O   14   -0.33990      0.99987     3.33362    0.00641     4.33990
      H   15    0.09927      0.00000     0.39959    0.00114     0.40073
      H   16    0.10070      0.00000     0.39777    0.00153     0.39930
      H   17    0.11062      0.00000     0.38816    0.00122     0.38938
      H   18    0.10046      0.00000     0.39760    0.00194     0.39954
      H   19    0.09654      0.00000     0.40245    0.00101     0.40346
      H   20    0.10283      0.00000     0.39525    0.00192     0.39717
      H   21    0.10501      0.00000     0.39337    0.00162     0.39499
      H   22    0.10801      0.00000     0.39100    0.00098     0.39199
      H   23    0.09725      0.00000     0.40129    0.00146     0.40275
      H   24    0.10085      0.00000     0.39806    0.00109     0.39915
      H   25    0.09147      0.00000     0.40733    0.00120     0.40853
      H   26    0.07747      0.00000     0.42084    0.00169     0.42253
      H   27    0.17151      0.00000     0.32529    0.00320     0.32849
      H   28    0.17126      0.00000     0.32717    0.00157     0.32874
      H   29    0.23559      0.00000     0.26178    0.00263     0.26441
 =======================================================================
   * Total *   -0.00000     17.99376    37.83439    0.17185    56.00000

 Normal termination of Gaussian 16 at Thu Dec 10 11:09:14 2020.
