 Gaussian 16, Revision A.03,

 -----------------------------------------------------------
 # opt freq B3LYP/6-31G(d) empiricaldispersion=gd3bj scf=xqc
 -----------------------------------------------------------

 -----------------------------
 CID_23084416_JID_406_neutraal
 -----------------------------
 Symbolic Z-matrix:
 Charge =  0 Multiplicity = 1

 SCF Done:  E(RB3LYP) =  -423.986281366     A.U. after   13 cycles
 SCF Done:  E(RB3LYP) =  -423.994228362     A.U. after   11 cycles
 SCF Done:  E(RB3LYP) =  -423.995593952     A.U. after   11 cycles
 SCF Done:  E(RB3LYP) =  -423.996468156     A.U. after   12 cycles
 SCF Done:  E(RB3LYP) =  -423.996686810     A.U. after   10 cycles
 SCF Done:  E(RB3LYP) =  -423.996732293     A.U. after   10 cycles
 SCF Done:  E(RB3LYP) =  -423.996778986     A.U. after    9 cycles
 SCF Done:  E(RB3LYP) =  -423.996807214     A.U. after    9 cycles
 SCF Done:  E(RB3LYP) =  -423.996819429     A.U. after   10 cycles
 SCF Done:  E(RB3LYP) =  -423.996882275     A.U. after   10 cycles
 SCF Done:  E(RB3LYP) =  -423.996187047     A.U. after   11 cycles
 SCF Done:  E(RB3LYP) =  -423.997007734     A.U. after   10 cycles
 SCF Done:  E(RB3LYP) =  -423.997026564     A.U. after   10 cycles
 SCF Done:  E(RB3LYP) =  -423.997028192     A.U. after    8 cycles
 SCF Done:  E(RB3LYP) =  -423.997028684     A.U. after    7 cycles
 SCF Done:  E(RB3LYP) =  -423.997028724     A.U. after    7 cycles
 Optimization completed.
    -- Stationary point found.

 1\1\GINC-NODE353\FOpt\RB3LYP\6-31G(d)\C8H16N2\VSC10255\08-Dec-2020\0\\
 # opt freq B3LYP/6-31G(d) empiricaldispersion=gd3bj scf=xqc\\CID_23084
 416_JID_406_neutraal\\0,1\C,0.9818943525,0.1305701364,0.0551635422\C,0
 .8551053668,0.3693646318,-1.4510946218\C,1.2312693599,-0.846880649,-2.
 3096668571\N,0.4243009334,-1.9829226388,-1.8847132345\C,0.5999846376,-
 3.1890071367,-2.6948941222\C,2.0697182979,-3.4631152876,-2.8333737577\
 C,2.9671452191,-2.5042105254,-2.5676981797\N,2.6536906329,-1.199481669
 3,-2.178812131\C,3.608552185,-0.1628758865,-2.5895462486\C,4.300330951

 Normal termination of Gaussian 16 at Tue Dec  8 10:42:31 2020.

 --------------------------------------------------------------------
 #N Geom=AllCheck Guess=TCheck SCRF=Check GenChk RB3LYP/6-31G(d) Freq
 --------------------------------------------------------------------

 Structure from the checkpoint file:  "JID_406.chk"
 -----------------------------
 CID_23084416_JID_406_neutraal
 -----------------------------
 Charge =  0 Multiplicity = 1

 SCF Done:  E(RB3LYP) =  -423.997028724     A.U. after    1 cycles

  Exact polarizability: 120.515  -1.574  96.292  -3.304  -3.716  74.249
 Approx polarizability: 165.806  -5.231 128.983  -6.164  -5.815 110.427

                      1                      2                      3
                      A                      A                      A
 Frequencies --     68.3682                81.0982               131.4637
 Red. masses --      2.4606                 2.7476                 2.8262
 Frc consts  --      0.0068                 0.0106                 0.0288
 IR Inten    --      0.0669                 0.5206                 0.7379

                      4                      5                      6
                      A                      A                      A
 Frequencies --    155.0416               183.1823               226.5538
 Red. masses --      1.9478                 1.2342                 2.4090
 Frc consts  --      0.0276                 0.0244                 0.0728
 IR Inten    --      0.1079                 0.1911                 3.2782

                      7                      8                      9
                      A                      A                      A
 Frequencies --    240.7186               282.4472               331.0901
 Red. masses --      1.1878                 2.6790                 2.1461
 Frc consts  --      0.0406                 0.1259                 0.1386
 IR Inten    --      0.3225                 0.3622                 2.6584

                     10                     11                     12
                      A                      A                      A
 Frequencies --    371.4081               406.5450               458.5922
 Red. masses --      2.8907                 2.2516                 2.5479
 Frc consts  --      0.2349                 0.2193                 0.3157
 IR Inten    --      6.3127                 3.7700                18.2671

                     13                     14                     15
                      A                      A                      A
 Frequencies --    497.5872               543.4114               607.5155
 Red. masses --      3.5252                 3.2399                 2.9018
 Frc consts  --      0.5143                 0.5637                 0.6310
 IR Inten    --     10.5225                 3.0631                 7.9047

                     16                     17                     18
                      A                      A                      A
 Frequencies --    699.9686               716.7501               774.7914
 Red. masses --      1.3349                 1.8631                 2.4327
 Frc consts  --      0.3854                 0.5639                 0.8604
 IR Inten    --     25.6703                53.3535                 5.2210

                     19                     20                     21
                      A                      A                      A
 Frequencies --    790.2976               817.1087               851.0048
 Red. masses --      1.2015                 1.3334                 3.3743
 Frc consts  --      0.4421                 0.5245                 1.4398
 IR Inten    --      3.9238                10.0993                15.6651

                     22                     23                     24
                      A                      A                      A
 Frequencies --    928.6605               938.2151               968.2605
 Red. masses --      2.4283                 1.3765                 1.9324
 Frc consts  --      1.2339                 0.7139                 1.0674
 IR Inten    --      4.8971                 3.3268                 9.9116

                     25                     26                     27
                      A                      A                      A
 Frequencies --    986.3488              1012.2336              1040.1827
 Red. masses --      2.2406                 1.8388                 1.7310
 Frc consts  --      1.2843                 1.1101                 1.1035
 IR Inten    --      3.2464                 8.6664                15.1785

                     28                     29                     30
                      A                      A                      A
 Frequencies --   1070.1893              1094.2459              1113.9793
 Red. masses --      1.8714                 1.7856                 2.3365
 Frc consts  --      1.2628                 1.2597                 1.7083
 IR Inten    --     19.0319                13.1265                21.3444

                     31                     32                     33
                      A                      A                      A
 Frequencies --   1117.6203              1148.9939              1177.5376
 Red. masses --      1.9931                 1.8014                 2.3180
 Frc consts  --      1.4668                 1.4012                 1.8937
 IR Inten    --     16.0106                23.7571                 0.6270

                     34                     35                     36
                      A                      A                      A
 Frequencies --   1198.6036              1220.7500              1249.4430
 Red. masses --      1.7548                 1.6848                 1.3385
 Frc consts  --      1.4854                 1.4793                 1.2312
 IR Inten    --     29.9644                35.1010                 9.5949

                     37                     38                     39
                      A                      A                      A
 Frequencies --   1290.3317              1315.7354              1336.2455
 Red. masses --      1.4134                 1.2103                 1.2025
 Frc consts  --      1.3864                 1.2345                 1.2650
 IR Inten    --     41.8646                 1.0829                 6.6252

                     40                     41                     42
                      A                      A                      A
 Frequencies --   1373.1236              1398.0881              1406.6396
 Red. masses --      1.6107                 1.3782                 1.3925
 Frc consts  --      1.7893                 1.5872                 1.6234
 IR Inten    --      1.8109                20.2400                14.4841

                     43                     44                     45
                      A                      A                      A
 Frequencies --   1417.1078              1435.6854              1439.1523
 Red. masses --      1.2679                 1.5432                 1.2743
 Frc consts  --      1.5001                 1.8741                 1.5550
 IR Inten    --     33.6254                31.5633                22.2669

                     46                     47                     48
                      A                      A                      A
 Frequencies --   1446.6510              1455.3152              1507.8670
 Red. masses --      1.3746                 1.5711                 1.2759
 Frc consts  --      1.6949                 1.9605                 1.7092
 IR Inten    --     43.9207                35.2070                12.0432

                     49                     50                     51
                      A                      A                      A
 Frequencies --   1514.4695              1517.8198              1521.2959
 Red. masses --      1.0781                 1.0426                 1.0595
 Frc consts  --      1.4569                 1.4151                 1.4447
 IR Inten    --      2.9158                 4.0115                 4.9102

                     52                     53                     54
                      A                      A                      A
 Frequencies --   1533.4609              1536.0722              1541.3146
 Red. masses --      1.0722                 1.0954                 1.1176
 Frc consts  --      1.4856                 1.5228                 1.5643
 IR Inten    --      6.8722                 3.7556                 5.3960

                     55                     56                     57
                      A                      A                      A
 Frequencies --   1546.9167              1738.4824              2833.2168
 Red. masses --      1.0607                 6.1796                 1.0796
 Frc consts  --      1.4955                11.0039                 5.1058
 IR Inten    --      5.5341               117.1069               107.7643

                     58                     59                     60
                      A                      A                      A
 Frequencies --   2902.3684              3020.9331              3036.9659
 Red. masses --      1.0755                 1.0663                 1.0700
 Frc consts  --      5.3380                 5.7333                 5.8143
 IR Inten    --    133.2577                37.9564                45.0938

                     61                     62                     63
                      A                      A                      A
 Frequencies --   3041.7927              3053.5869              3063.8609
 Red. masses --      1.0844                 1.0387                 1.0402
 Frc consts  --      5.9116                 5.7066                 5.7533
 IR Inten    --     57.7320                26.7255                33.5691

                     64                     65                     66
                      A                      A                      A
 Frequencies --   3073.4297              3087.6156              3119.4016
 Red. masses --      1.0966                 1.0926                 1.1005
 Frc consts  --      6.1031                 6.1371                 6.3094
 IR Inten    --     22.6073                24.9576                35.6398

                     67                     68                     69
                      A                      A                      A
 Frequencies --   3132.8131              3143.3181              3151.4934
 Red. masses --      1.0980                 1.1014                 1.1017
 Frc consts  --      6.3493                 6.4116                 6.4468
 IR Inten    --     39.3967                35.4153                14.8615

                     70                     71                     72
                      A                      A                      A
 Frequencies --   3182.5579              3219.4091              3516.5678
 Red. masses --      1.0880                 1.0949                 1.0743
 Frc consts  --      6.4929                 6.6860                 7.8275
 IR Inten    --     14.5837                19.0690                 0.6815

 - Thermochemistry -
 -------------------
 Temperature   298.150 Kelvin.  Pressure   1.00000 Atm.
 Atom     1 has atomic number  6 and mass  12.00000

 Molecular mass:   140.13135 amu.
 Principal axes and moments of inertia in atomic units:
                           1         2         3
     Eigenvalues --  1040.474001503.354052237.29580
           X            0.99990  -0.01220   0.00668
           Y            0.01219   0.99992   0.00236
           Z           -0.00671  -0.00228   0.99997
 This molecule is an asymmetric top.
 Rotational symmetry number  1.
 Warning -- assumption of classical behavior for rotation
           may cause significant error
 Rotational temperatures (Kelvin)      0.08324     0.05761     0.03871
 Rotational constants (GHZ):           1.73454     1.20048     0.80666
 Zero-point vibrational energy     624159.5 (Joules/Mol)
                                  149.17769 (Kcal/Mol)
 Warning -- explicit consideration of  15 degrees of freedom as
           vibrations may cause significant error
 Vibrational temperatures:     98.37   116.68   189.15   223.07   263.56
          (Kelvin)            325.96   346.34   406.38   476.36   534.37
                              584.93   659.81   715.92   781.85   874.08
                             1007.10  1031.24  1114.75  1137.06  1175.64
                             1224.41  1336.14  1349.88  1393.11  1419.14
                             1456.38  1496.59  1539.76  1574.38  1602.77
                             1608.01  1653.15  1694.21  1724.52  1756.39
                             1797.67  1856.50  1893.05  1922.56  1975.62
                             2011.54  2023.84  2038.90  2065.63  2070.62
                             2081.41  2093.87  2169.48  2178.98  2183.80
                             2188.81  2206.31  2210.07  2217.61  2225.67
                             2501.29  4076.37  4175.86  4346.45  4369.52
                             4376.46  4393.43  4408.21  4421.98  4442.39
                             4488.12  4507.42  4522.53  4534.30  4578.99
                             4632.01  5059.56

 Zero-point correction=                           0.237730 (Hartree/Particle)
 Thermal correction to Energy=                    0.248423
 Thermal correction to Enthalpy=                  0.249368
 Thermal correction to Gibbs Free Energy=         0.201877
 Sum of electronic and zero-point Energies=           -423.759299
 Sum of electronic and thermal Energies=              -423.748605
 Sum of electronic and thermal Enthalpies=            -423.747661
 Sum of electronic and thermal Free Energies=         -423.795152

                     E (Thermal)             CV                S
                      KCal/Mol        Cal/Mol-Kelvin    Cal/Mol-Kelvin
 Total                  155.888             40.775             99.952
 Electronic               0.000              0.000              0.000
 Translational            0.889              2.981             40.724
 Rotational               0.889              2.981             29.638
 Vibrational            154.111             34.813             29.590
 Vibration     1          0.598              1.969              4.200
 Vibration     2          0.600              1.962              3.864
 Vibration     3          0.612              1.922              2.925
 Vibration     4          0.620              1.897              2.609
 Vibration     5          0.631              1.863              2.296
 Vibration     6          0.650              1.801              1.906
 Vibration     7          0.658              1.778              1.798
 Vibration     8          0.681              1.706              1.519
 Vibration     9          0.713              1.613              1.255
 Vibration    10          0.743              1.531              1.074
 Vibration    11          0.771              1.456              0.939
 Vibration    12          0.817              1.342              0.770
 Vibration    13          0.853              1.255              0.664
 Vibration    14          0.899              1.154              0.558
 Vibration    15          0.966              1.016              0.437

 Optimization completed.
    -- Stationary point found.

 1\1\GINC-NODE353\Freq\RB3LYP\6-31G(d)\C8H16N2\VSC10255\08-Dec-2020\0\\
 #N Geom=AllCheck Guess=TCheck SCRF=Check GenChk RB3LYP/6-31G(d) Freq\\
 CID_23084416_JID_406_neutraal\\0,1\C,0.9818943525,0.1305701364,0.05516
 35422\C,0.8551053668,0.3693646318,-1.4510946218\C,1.2312693599,-0.8468
 80649,-2.3096668571\N,0.4243009334,-1.9829226388,-1.8847132345\C,0.599
 9846376,-3.1890071367,-2.6948941222\C,2.0697182979,-3.4631152876,-2.83
 33737577\C,2.9671452191,-2.5042105254,-2.5676981797\N,2.6536906329,-1.
 1994816693,-2.178812131\C,3.608552185,-0.1628758865,-2.5895462486\C,4.

 Normal termination of Gaussian 16 at Tue Dec  8 10:50:20 2020.

 ----------------------------------------------------------------------
 # B3LYP/6-311++G(d,p) empiricaldispersion=gd3bj scf=xqc pop=npa geom=c
 heck
 ----------------------------------------------------------------------

 -------------------------------------
 CID_23084416_JID_406_Energie_neutraal
 -------------------------------------
 Structure from the checkpoint file:  "JID_406.chk"
 Charge =  0 Multiplicity = 1

 SCF Done:  E(RB3LYP) =  -424.119566660     A.U. after   13 cycles
 Normal termination of Gaussian 16 at Tue Dec  8 10:53:40 2020.

 ----------------------------------------------------------------------
 # B3LYP/6-311++G(d,p) empiricaldispersion=gd3bj scf=xqc pop=npa geom=c
 heck
 ----------------------------------------------------------------------

 -----------------------------------
 CID_23084416_JID_406_Energie_kation
 -----------------------------------
 Structure from the checkpoint file:  "JID_406.chk"
 Charge =  1 Multiplicity = 2

 SCF Done:  E(UB3LYP) =  -423.856199858     A.U. after   19 cycles
 Normal termination of Gaussian 16 at Tue Dec  8 10:59:39 2020.
 Gaussian 16:  ES64L-G16RevA.03 25-Dec-2016

 ----------------------------------
 CID_23084416_JID_406_Energie_anion
 ----------------------------------
 Structure from the checkpoint file:  "JID_406.chk"
 Charge = -1 Multiplicity = 2

                         Standard orientation:
 ---------------------------------------------------------------------
 Center     Atomic      Atomic             Coordinates (Angstroms)
 Number     Number       Type             X           Y           Z
 ---------------------------------------------------------------------
      1          6           0        1.220280    2.105811    0.841111
      2          6           0        0.894226    1.630758   -0.576608
      3          6           0       -0.205116    0.560491   -0.638840
      4          7           0       -1.391671    1.073762    0.032736
      5          6           0       -2.560865    0.197062   -0.046520
      6          6           0       -2.147601   -1.189844    0.353646
      7          6           0       -0.852642   -1.533648    0.372041
      8          7           0        0.204209   -0.693503    0.012840
      9          6           0        1.381429   -1.356418   -0.561363
     10          6           0        2.645120   -1.212808    0.287755
     11          1           0        0.356122    2.593827    1.298330
     12          1           0        2.056589    2.813757    0.829935
     13          1           0        1.487564    1.259930    1.480181
     14          1           0        0.561029    2.478780   -1.191689
     15          1           0        1.794015    1.247097   -1.070204
     16          1           0       -0.404154    0.331594   -1.711426
     17          1           0       -1.607408    1.989806   -0.351876
     18          1           0       -3.319629    0.587541    0.644909
     19          1           0       -3.029816    0.187439   -1.051802
     20          1           0       -2.902436   -1.900455    0.671345
     21          1           0       -0.540111   -2.524090    0.692859
     22          1           0        1.155524   -2.421353   -0.687665
     23          1           0        1.558527   -0.969829   -1.575380
     24          1           0        2.469759   -1.598592    1.297453
     25          1           0        3.472208   -1.777324   -0.159743
     26          1           0        2.955472   -0.168358    0.378408
 ---------------------------------------------------------------------

 SCF Done:  E(UB3LYP) =  -424.102448775     A.U. after   31 cycles

 The electronic state is 2-A.
 Alpha  occ. eigenvalues --  -14.20976 -14.18742 -10.11895 -10.09378 -10.08459
 Alpha  occ. eigenvalues --  -10.08434 -10.05832 -10.05451 -10.04544 -10.04167
 Alpha  occ. eigenvalues --   -0.85144  -0.77880  -0.68524  -0.65315  -0.62844
 Alpha  occ. eigenvalues --   -0.55747  -0.55137  -0.51339  -0.48040  -0.41433
 Alpha  occ. eigenvalues --   -0.40004  -0.38500  -0.36058  -0.34825  -0.32873
 Alpha  occ. eigenvalues --   -0.32127  -0.31696  -0.30972  -0.29519  -0.27677
 Alpha  occ. eigenvalues --   -0.26485  -0.25258  -0.24467  -0.24010  -0.22831
 Alpha  occ. eigenvalues --   -0.22464  -0.19173  -0.12117  -0.08562   0.04819
 Alpha virt. eigenvalues --    0.06887   0.07454   0.08273   0.09277   0.09459
 Alpha virt. eigenvalues --    0.10330   0.10513   0.11057   0.11835   0.12578
 Alpha virt. eigenvalues --    0.12928   0.13685   0.14033   0.14506   0.15327

  Beta  occ. eigenvalues --  -14.20975 -14.18716 -10.11883 -10.09354 -10.08439
  Beta  occ. eigenvalues --  -10.08421 -10.05801 -10.05423 -10.04530 -10.04146
  Beta  occ. eigenvalues --   -0.85123  -0.77846  -0.68475  -0.65269  -0.62793
  Beta  occ. eigenvalues --   -0.55703  -0.55077  -0.51270  -0.47973  -0.41374
  Beta  occ. eigenvalues --   -0.39940  -0.38462  -0.35994  -0.34772  -0.32832
  Beta  occ. eigenvalues --   -0.32096  -0.31664  -0.30937  -0.29465  -0.27636
  Beta  occ. eigenvalues --   -0.26448  -0.25220  -0.24420  -0.23981  -0.22795
  Beta  occ. eigenvalues --   -0.22414  -0.19110  -0.12071  -0.08498
  Beta virt. eigenvalues --    0.07158   0.07955   0.08225   0.08754   0.09855
  Beta virt. eigenvalues --    0.10167   0.10759   0.10950   0.11531   0.12269
  Beta virt. eigenvalues --    0.13005   0.13242   0.14157   0.14363   0.14845

 Mulliken charges and spin densities:
               1          2
     1  C    0.553654  -0.962465
     2  C   -0.079106  -0.131328
     3  C   -0.274220  -0.651426
     4  N   -0.245324   0.248789
     5  C    1.244355  -1.537845
     6  C    0.332537  -0.568899
     7  C   -0.536435   0.544001
     8  N    0.263949   0.128060
     9  C   -0.352567   0.094917
    10  C    0.848205  -1.294712
    11  H    0.147764  -0.019011
    12  H   -0.281165   0.426291
    13  H    0.162857  -0.027728
    14  H   -0.722637   0.898577
    15  H    0.081897   0.044350
    16  H   -0.191315   0.355037
    17  H   -0.043896   0.294514
    18  H   -0.136089   0.276423
    19  H   -0.306279   0.435276
    20  H   -0.168485   0.320978
    21  H   -0.360929   0.489234
    22  H   -0.046321   0.192367
    23  H   -0.335526   0.472632
    24  H   -0.061036   0.202767
    25  H   -0.518206   0.640339
    26  H    0.024319   0.128859
 Sum of Mulliken charges =  -1.00000   1.00000

 Dipole moment (field-independent basis, Debye):
    X=             -0.5858    Y=             -0.8417    Z=              2.3765  Tot=              2.5883
 Quadrupole moment (field-independent basis, Debye-Ang):
   XX=           -115.8847   YY=           -113.1212   ZZ=            -96.5982
   XY=              5.1731   XZ=              0.5109   YZ=              3.5676

 Summary of Natural Population Analysis:

                                       Natural Population
                Natural  -----------------------------------------------
    Atom  No    Charge         Core      Valence    Rydberg      Total
 -----------------------------------------------------------------------
      C    1   -0.28919      0.99966     2.28289    0.00664     3.28919
      C    2   -0.19640      0.99962     2.18687    0.00991     3.19640
      C    3    0.09994      0.99959     1.88552    0.01495     2.90006
      N    4   -0.34221      0.99972     2.83067    0.01182     3.84221
      C    5   -0.09541      0.99962     2.08416    0.01163     3.09541
      C    6   -0.14776      0.99955     2.13849    0.00973     3.14776
      C    7    0.01511      0.99950     1.97255    0.01284     2.98489
      N    8   -0.27239      0.99965     2.75965    0.01310     3.77239
      C    9   -0.08307      0.99961     2.07229    0.01116     3.08307
      C   10   -0.28745      0.99966     2.28209    0.00571     3.28745
      H   11    0.10272      0.00000     0.39614    0.00114     0.39728
      H   12    0.09484      0.00000     0.40433    0.00083     0.40516
      H   13    0.10084      0.00000     0.39793    0.00123     0.39916
      H   14    0.09969      0.00000     0.39800    0.00232     0.40031
      H   15    0.09909      0.00000     0.39942    0.00150     0.40091
      H   16    0.07216      0.00000     0.42518    0.00265     0.42784
      H   17    0.17955      0.00000     0.31683    0.00362     0.32045
      H   18    0.09403      0.00000     0.40471    0.00126     0.40597
      H   19    0.08362      0.00000     0.41431    0.00207     0.41638
      H   20    0.09913      0.00000     0.40001    0.00086     0.40087
      H   21    0.09417      0.00000     0.40470    0.00113     0.40583
      H   22    0.09349      0.00000     0.40456    0.00194     0.40651
      H   23    0.09194      0.00000     0.40623    0.00182     0.40806
      H   24    0.09721      0.00000     0.40162    0.00117     0.40279
      H   25    0.09777      0.00000     0.40065    0.00158     0.40223
      H   26    0.09855      0.00000     0.40013    0.00131     0.40145
 =======================================================================
   * Total *   -0.00000      9.99617    28.86992    0.13391    39.00000

 Normal termination of Gaussian 16 at Tue Dec  8 11:07:23 2020.
