 Gaussian 16, Revision A.03,

 -----------------------------------------------------------
 # opt freq B3LYP/6-31G(d) empiricaldispersion=gd3bj scf=xqc
 -----------------------------------------------------------

 -------------------------------
 CID_131253582_JID_3262_neutraal
 -------------------------------
 Symbolic Z-matrix:
 Charge =  0 Multiplicity = 1

 SCF Done:  E(RB3LYP) =  -544.596314006     A.U. after   15 cycles
 SCF Done:  E(RB3LYP) =  -544.598604225     A.U. after   13 cycles
 SCF Done:  E(RB3LYP) =  -544.598337908     A.U. after   13 cycles
 SCF Done:  E(RB3LYP) =  -544.599397403     A.U. after   11 cycles
 SCF Done:  E(RB3LYP) =  -544.600038677     A.U. after   12 cycles
 SCF Done:  E(RB3LYP) =  -544.600429356     A.U. after   12 cycles
 SCF Done:  E(RB3LYP) =  -544.601041801     A.U. after   15 cycles
 SCF Done:  E(RB3LYP) =  -544.601196551     A.U. after   13 cycles
 SCF Done:  E(RB3LYP) =  -544.601364724     A.U. after   12 cycles
 SCF Done:  E(RB3LYP) =  -544.601784073     A.U. after   13 cycles
 SCF Done:  E(RB3LYP) =  -544.601891914     A.U. after   12 cycles
 SCF Done:  E(RB3LYP) =  -544.601897220     A.U. after   10 cycles
 SCF Done:  E(RB3LYP) =  -544.601898653     A.U. after    9 cycles
 SCF Done:  E(RB3LYP) =  -544.601899155     A.U. after    8 cycles
 SCF Done:  E(RB3LYP) =  -544.601899262     A.U. after    7 cycles
 SCF Done:  E(RB3LYP) =  -544.601899302     A.U. after    7 cycles
 Optimization completed.
    -- Stationary point found.
 Normal termination of Gaussian 16 at Wed Dec  9 22:38:34 2020.

 --------------------------------------------------------------------
 #N Geom=AllCheck Guess=TCheck SCRF=Check GenChk RB3LYP/6-31G(d) Freq
 --------------------------------------------------------------------

 Structure from the checkpoint file:  "JID_3262.chk"
 -------------------------------
 CID_131253582_JID_3262_neutraal
 -------------------------------
 Charge =  0 Multiplicity = 1

 SCF Done:  E(RB3LYP) =  -544.601899302     A.U. after    1 cycles

  Exact polarizability: 169.119   0.552 116.573   7.672  -5.440 102.515
 Approx polarizability: 233.215  -3.758 163.435  24.341 -11.277 159.424

                      1                      2                      3
                      A                      A                      A
 Frequencies --     31.7873                38.9210               121.0488
 Red. masses --      3.8267                 3.7125                 2.7004
 Frc consts  --      0.0023                 0.0033                 0.0233
 IR Inten    --      3.1715                 0.4969                 0.7208

                      4                      5                      6
                      A                      A                      A
 Frequencies --    143.2855               171.7844               181.5272
 Red. masses --      2.8695                 2.2571                 1.1657
 Frc consts  --      0.0347                 0.0392                 0.0226
 IR Inten    --      0.1030                 0.8442                 0.4332

                      7                      8                      9
                      A                      A                      A
 Frequencies --    222.2368               245.8429               253.2171
 Red. masses --      3.2566                 2.5096                 1.3828
 Frc consts  --      0.0948                 0.0894                 0.0522
 IR Inten    --      1.2407                 0.0714                 0.6821

                     10                     11                     12
                      A                      A                      A
 Frequencies --    260.2261               269.3004               291.6153
 Red. masses --      1.1066                 1.4962                 1.5398
 Frc consts  --      0.0441                 0.0639                 0.0772
 IR Inten    --      0.5234                 0.0045                 1.1257

                     13                     14                     15
                      A                      A                      A
 Frequencies --    316.2775               336.4418               358.9516
 Red. masses --      2.0088                 2.6567                 2.6326
 Frc consts  --      0.1184                 0.1772                 0.1998
 IR Inten    --      0.7832                 1.4573                 0.6723

                     16                     17                     18
                      A                      A                      A
 Frequencies --    389.5181               407.7293               433.1484
 Red. masses --      2.5634                 2.0717                 2.0203
 Frc consts  --      0.2292                 0.2029                 0.2233
 IR Inten    --      0.7524                 0.1518                 0.7066

                     19                     20                     21
                      A                      A                      A
 Frequencies --    479.8955               537.4950               573.4543
 Red. masses --      2.5820                 4.0721                 2.7684
 Frc consts  --      0.3503                 0.6931                 0.5364
 IR Inten    --      0.5968                 8.2863                11.4040

                     22                     23                     24
                      A                      A                      A
 Frequencies --    584.8452               619.3611               696.6267
 Red. masses --      2.4391                 2.7400                 3.5674
 Frc consts  --      0.4915                 0.6193                 1.0200
 IR Inten    --      2.4744                 1.6901                 1.0209

                     25                     26                     27
                      A                      A                      A
 Frequencies --    728.7427               775.5079               815.5682
 Red. masses --      2.5590                 3.2690                 3.3355
 Frc consts  --      0.8007                 1.1583                 1.3072
 IR Inten    --      1.2557                 4.4414                 0.6347

                     28                     29                     30
                      A                      A                      A
 Frequencies --    849.8427               891.9119               920.3540
 Red. masses --      1.9096                 1.9510                 1.3958
 Frc consts  --      0.8126                 0.9145                 0.6966
 IR Inten    --      1.5789                 6.1240                 5.9374

                     31                     32                     33
                      A                      A                      A
 Frequencies --    923.2707               936.0215               958.1142
 Red. masses --      1.9565                 1.9855                 1.5293
 Frc consts  --      0.9826                 1.0249                 0.8271
 IR Inten    --      2.9990                 6.5563                 0.7148

                     34                     35                     36
                      A                      A                      A
 Frequencies --    981.7888              1008.8701              1017.1880
 Red. masses --      1.6202                 1.4620                 1.7156
 Frc consts  --      0.9202                 0.8767                 1.0459
 IR Inten    --      0.3732                 0.4348                 5.2899

                     37                     38                     39
                      A                      A                      A
 Frequencies --   1025.9009              1050.0633              1056.1562
 Red. masses --      2.0373                 1.6446                 1.8469
 Frc consts  --      1.2633                 1.0684                 1.2138
 IR Inten    --     12.4708                 3.7097                 6.6217

                     40                     41                     42
                      A                      A                      A
 Frequencies --   1059.3704              1075.7415              1123.7641
 Red. masses --      1.5360                 1.9401                 1.7107
 Frc consts  --      1.0157                 1.3228                 1.2728
 IR Inten    --      3.1800                 0.1232                 2.7200

                     43                     44                     45
                      A                      A                      A
 Frequencies --   1166.1603              1182.0099              1210.0031
 Red. masses --      1.8686                 1.6604                 1.9197
 Frc consts  --      1.4972                 1.3668                 1.6560
 IR Inten    --      6.0679                 2.4243                10.7007

                     46                     47                     48
                      A                      A                      A
 Frequencies --   1231.1017              1255.8395              1295.6128
 Red. masses --      1.8774                 1.4559                 2.8648
 Frc consts  --      1.6765                 1.3529                 2.8333
 IR Inten    --      8.5796                 4.5525                82.4825

                     49                     50                     51
                      A                      A                      A
 Frequencies --   1309.1121              1325.6475              1347.5072
 Red. masses --      1.7553                 1.7370                 1.3346
 Frc consts  --      1.7724                 1.7984                 1.4278
 IR Inten    --     70.3528                 3.5601                 1.0464

                     52                     53                     54
                      A                      A                      A
 Frequencies --   1368.6554              1374.0548              1386.3322
 Red. masses --      1.3260                 1.6091                 1.4439
 Frc consts  --      1.4635                 1.7900                 1.6350
 IR Inten    --      1.6603                 1.7437                 0.5806

                     55                     56                     57
                      A                      A                      A
 Frequencies --   1404.0566              1411.8633              1424.4629
 Red. masses --      1.3827                 1.3689                 1.4119
 Frc consts  --      1.6060                 1.6077                 1.6879
 IR Inten    --      2.7882                39.9421                 0.4396

                     58                     59                     60
                      A                      A                      A
 Frequencies --   1429.1625              1438.6202              1454.1853
 Red. masses --      1.2551                 1.2366                 1.2326
 Frc consts  --      1.5104                 1.5080                 1.5357
 IR Inten    --      4.0470                 6.9349                10.2886

                     61                     62                     63
                      A                      A                      A
 Frequencies --   1498.8046              1506.5693              1510.2745
 Red. masses --      1.0622                 1.0847                 1.0658
 Frc consts  --      1.4058                 1.4506                 1.4323
 IR Inten    --     12.0155                 2.1653                 7.8039

                     64                     65                     66
                      A                      A                      A
 Frequencies --   1512.3763              1516.2707              1520.7511
 Red. masses --      1.0566                 1.0469                 1.0539
 Frc consts  --      1.4240                 1.4181                 1.4361
 IR Inten    --      8.5731                 1.9478                 4.3480

                     67                     68                     69
                      A                      A                      A
 Frequencies --   1529.4896              1531.0277              1533.5885
 Red. masses --      1.0807                 1.0606                 1.0607
 Frc consts  --      1.4896                 1.4648                 1.4698
 IR Inten    --      2.8912                 5.5050                 5.3125

                     70                     71                     72
                      A                      A                      A
 Frequencies --   1543.3323              1550.4443              1700.7255
 Red. masses --      1.0693                 1.0554                 7.5809
 Frc consts  --      1.5007                 1.4948                12.9194
 IR Inten    --      8.0731                 8.9304                79.0381

                     73                     74                     75
                      A                      A                      A
 Frequencies --   1752.8086              3026.1069              3030.8505
 Red. masses --      9.4765                 1.0612                 1.0589
 Frc consts  --     17.1540                 5.7257                 5.7309
 IR Inten    --    227.7704                19.2159                13.6741

                     76                     77                     78
                      A                      A                      A
 Frequencies --   3039.1412              3045.5188              3049.2368
 Red. masses --      1.0391                 1.0713                 1.0747
 Frc consts  --      5.6545                 5.8543                 5.8875
 IR Inten    --     33.5856                17.7210                37.0849

                     79                     80                     81
                      A                      A                      A
 Frequencies --   3051.9939              3055.0673              3059.4120
 Red. masses --      1.0444                 1.0374                 1.0430
 Frc consts  --      5.7314                 5.7050                 5.7520
 IR Inten    --     20.2013                 4.5130                29.6665

                     82                     83                     84
                      A                      A                      A
 Frequencies --   3066.9851              3074.5164              3103.8582
 Red. masses --      1.1030                 1.1019                 1.1024
 Frc consts  --      6.1127                 6.1366                 6.2576
 IR Inten    --     27.4882                44.1947                 1.5926

                     85                     86                     87
                      A                      A                      A
 Frequencies --   3109.4328              3110.6069              3119.4996
 Red. masses --      1.1021                 1.1016                 1.1006
 Frc consts  --      6.2782                 6.2803                 6.3101
 IR Inten    --     45.7358                58.2872                 9.9695

                     88                     89                     90
                      A                      A                      A
 Frequencies --   3120.8942              3136.7625              3154.7087
 Red. masses --      1.1025                 1.0996                 1.0948
 Frc consts  --      6.3266                 6.3745                 6.4194
 IR Inten    --     28.1693                42.4788                30.1849

                     91                     92                     93
                      A                      A                      A
 Frequencies --   3161.3866              3162.5447              3191.5242
 Red. masses --      1.0963                 1.0929                 1.0860
 Frc consts  --      6.4557                 6.4405                 6.5176
 IR Inten    --     21.7297                11.4786                10.3686

 - Thermochemistry -
 -------------------
 Temperature   298.150 Kelvin.  Pressure   1.00000 Atm.
 Atom     1 has atomic number  6 and mass  12.00000

 Molecular mass:   180.15142 amu.
 Principal axes and moments of inertia in atomic units:
                           1         2         3
     Eigenvalues --  1271.216804090.729894576.28289
           X            0.99992   0.00801  -0.00984
           Y           -0.00797   0.99996   0.00383
           Z            0.00987  -0.00375   0.99994
 This molecule is an asymmetric top.
 Rotational symmetry number  1.
 Warning -- assumption of classical behavior for rotation
           may cause significant error
 Rotational temperatures (Kelvin)      0.06813     0.02117     0.01893
 Rotational constants (GHZ):           1.41970     0.44118     0.39437
 Zero-point vibrational energy     785070.9 (Joules/Mol)
                                  187.63646 (Kcal/Mol)
 Warning -- explicit consideration of  23 degrees of freedom as
           vibrations may cause significant error
 Vibrational temperatures:     45.73    56.00   174.16   206.16   247.16
          (Kelvin)            261.18   319.75   353.71   364.32   374.41
                              387.46   419.57   455.05   484.06   516.45
                              560.43   586.63   623.20   690.46   773.34
                              825.07   841.46   891.12  1002.29  1048.50
                             1115.78  1173.42  1222.73  1283.26  1324.18
                             1328.38  1346.73  1378.51  1412.58  1451.54
                             1463.51  1476.04  1510.81  1519.57  1524.20
                             1547.75  1616.85  1677.84  1700.65  1740.92
                             1771.28  1806.87  1864.10  1883.52  1907.31
                             1938.76  1969.19  1976.96  1994.62  2020.12
                             2031.36  2049.48  2056.25  2069.85  2092.25
                             2156.45  2167.62  2172.95  2175.97  2181.58
                             2188.02  2200.59  2202.81  2206.49  2220.51
                             2230.74  2446.96  2521.90  4353.89  4360.72
                             4372.65  4381.82  4387.17  4391.14  4395.56
                             4401.81  4412.71  4423.54  4465.76  4473.78
                             4475.47  4488.26  4490.27  4513.10  4538.92
                             4548.53  4550.20  4591.89

 Zero-point correction=                           0.299018 (Hartree/Particle)
 Thermal correction to Energy=                    0.313161
 Thermal correction to Enthalpy=                  0.314105
 Thermal correction to Gibbs Free Energy=         0.258515
 Sum of electronic and zero-point Energies=           -544.302882
 Sum of electronic and thermal Energies=              -544.288739
 Sum of electronic and thermal Enthalpies=            -544.287794
 Sum of electronic and thermal Free Energies=         -544.343384

                     E (Thermal)             CV                S
                      KCal/Mol        Cal/Mol-Kelvin    Cal/Mol-Kelvin
 Total                  196.511             54.899            116.999
 Electronic               0.000              0.000              0.000
 Translational            0.889              2.981             41.473
 Rotational               0.889              2.981             31.543
 Vibrational            194.734             48.938             43.983
 Vibration     1          0.594              1.983              5.715
 Vibration     2          0.594              1.981              5.313
 Vibration     3          0.609              1.932              3.084
 Vibration     4          0.616              1.910              2.760
 Vibration     5          0.626              1.877              2.416
 Vibration     6          0.630              1.865              2.313
 Vibration     7          0.648              1.807              1.941
 Vibration     8          0.660              1.770              1.760
 Vibration     9          0.664              1.757              1.708
 Vibration    10          0.668              1.745              1.660
 Vibration    11          0.674              1.730              1.601
 Vibration    12          0.687              1.689              1.465
 Vibration    13          0.703              1.643              1.329
 Vibration    14          0.717              1.603              1.229
 Vibration    15          0.734              1.557              1.127
 Vibration    16          0.757              1.493              1.002
 Vibration    17          0.772              1.453              0.935
 Vibration    18          0.794              1.398              0.848
 Vibration    19          0.836              1.295              0.710
 Vibration    20          0.893              1.167              0.571
 Vibration    21          0.930              1.089              0.498
 Vibration    22          0.942              1.064              0.476
 Vibration    23          0.979              0.991              0.418

                           ! Non-Optimized Parameters !
 Normal termination of Gaussian 16 at Wed Dec  9 22:49:06 2020.

 ----------------------------------------------------------------------
 # B3LYP/6-311++G(d,p) empiricaldispersion=gd3bj scf=xqc pop=npa geom=c
 heck
 ----------------------------------------------------------------------

 ---------------------------------------
 CID_131253582_JID_3262_Energie_neutraal
 ---------------------------------------
 Structure from the checkpoint file:  "JID_3262.chk"
 Charge =  0 Multiplicity = 1

 SCF Done:  E(RB3LYP) =  -544.754022517     A.U. after   15 cycles
 Normal termination of Gaussian 16 at Wed Dec  9 22:54:31 2020.

 ----------------------------------------------------------------------
 # B3LYP/6-311++G(d,p) empiricaldispersion=gd3bj scf=xqc pop=npa geom=c
 heck
 ----------------------------------------------------------------------

 -------------------------------------
 CID_131253582_JID_3262_Energie_kation
 -------------------------------------
 Structure from the checkpoint file:  "JID_3262.chk"
 Charge =  1 Multiplicity = 2

 SCF Done:  E(UB3LYP) =  -544.428016002     A.U. after   27 cycles
 Normal termination of Gaussian 16 at Wed Dec  9 23:08:04 2020.
 Gaussian 16:  ES64L-G16RevA.03 25-Dec-2016

 ----------------------------------------------------------------------
 # B3LYP/6-311++G(d,p) empiricaldispersion=gd3bj scf=xqc pop=npa geom=c
 heck
 ----------------------------------------------------------------------

 ------------------------------------
 CID_131253582_JID_3262_Energie_anion
 ------------------------------------
 Structure from the checkpoint file:  "JID_3262.chk"
 Charge = -1 Multiplicity = 2

                         Standard orientation:
 ---------------------------------------------------------------------
 Center     Atomic      Atomic             Coordinates (Angstroms)
 Number     Number       Type             X           Y           Z
 ---------------------------------------------------------------------
      1          6           0        0.742835    2.403266    0.794649
      2          6           0        0.410231    1.434483   -0.358194
      3          6           0        1.635543    0.709314   -0.967906
      4          6           0        2.193506   -0.509582   -0.195591
      5          6           0        1.017370   -1.427118    0.198498
      6          6           0       -0.125348   -0.683990    0.919632
      7          6           0       -0.655393    0.430237    0.053529
      8          6           0       -1.914540    0.601669   -0.399391
      9          6           0       -3.174861   -0.155387   -0.202622
     10          8           0       -4.188945    0.273218   -0.741696
     11          6           0       -3.256919   -1.426745    0.626424
     12          6           0        3.001407   -0.098570    1.049514
     13          6           0        3.139086   -1.281448   -1.132519
     14          1           0       -0.133850    3.015019    1.031724
     15          1           0        1.559977    3.073460    0.504720
     16          1           0        1.043850    1.891478    1.711649
     17          1           0       -0.008829    2.053040   -1.160800
     18          1           0        1.328717    0.352327   -1.960172
     19          1           0        2.439235    1.438312   -1.137378
     20          1           0        1.380918   -2.244873    0.833999
     21          1           0        0.606721   -1.890464   -0.709033
     22          1           0        0.258025   -0.254039    1.854704
     23          1           0       -0.896971   -1.394577    1.205173
     24          1           0       -2.099509    1.462409   -1.040415
     25          1           0       -2.598252   -2.206143    0.227111
     26          1           0       -2.965055   -1.243968    1.666551
     27          1           0       -4.289153   -1.781071    0.600270
     28          1           0        3.490422   -0.975885    1.489649
     29          1           0        3.783890    0.621560    0.783735
     30          1           0        2.386527    0.356836    1.828817
     31          1           0        2.618100   -1.609007   -2.039714
     32          1           0        3.986240   -0.655584   -1.438061
     33          1           0        3.543049   -2.171348   -0.635100
 ---------------------------------------------------------------------

 SCF Done:  E(UB3LYP) =  -544.753346207     A.U. after   32 cycles

 The electronic state is 2-A.
 Alpha  occ. eigenvalues --  -18.93718 -10.08867 -10.07269 -10.05985 -10.05292
 Alpha  occ. eigenvalues --  -10.05189 -10.05064 -10.04980 -10.04941 -10.04707
 Alpha  occ. eigenvalues --  -10.04087 -10.03643 -10.01807  -0.87653  -0.73639
 Alpha  occ. eigenvalues --   -0.68299  -0.64603  -0.61280  -0.58884  -0.58278
 Alpha  occ. eigenvalues --   -0.57239  -0.52220  -0.49026  -0.44647  -0.40602
 Alpha  occ. eigenvalues --   -0.38423  -0.35892  -0.34143  -0.34011  -0.33332
 Alpha  occ. eigenvalues --   -0.31790  -0.31416  -0.30540  -0.29870  -0.29017
 Alpha  occ. eigenvalues --   -0.28067  -0.27247  -0.26594  -0.25985  -0.25181
 Alpha  occ. eigenvalues --   -0.24624  -0.23434  -0.22798  -0.22163  -0.21149
 Alpha  occ. eigenvalues --   -0.20693  -0.19278  -0.18033  -0.12206  -0.09890
 Alpha  occ. eigenvalues --    0.04580
 Alpha virt. eigenvalues --    0.06850   0.08323   0.08374   0.08951   0.10053
 Alpha virt. eigenvalues --    0.10343   0.10922   0.10975   0.11191   0.12387
 Alpha virt. eigenvalues --    0.13124   0.13322   0.13697   0.13904   0.14248

  Beta  occ. eigenvalues --  -18.93302 -10.08634 -10.07270 -10.06009 -10.05264
  Beta  occ. eigenvalues --  -10.05164 -10.05033 -10.04931 -10.04912 -10.04732
  Beta  occ. eigenvalues --  -10.04104 -10.03279 -10.01785  -0.86909  -0.73505
  Beta  occ. eigenvalues --   -0.68065  -0.64468  -0.61024  -0.58740  -0.58213
  Beta  occ. eigenvalues --   -0.57176  -0.52000  -0.48873  -0.44354  -0.40278
  Beta  occ. eigenvalues --   -0.38216  -0.35759  -0.34091  -0.33925  -0.33173
  Beta  occ. eigenvalues --   -0.31708  -0.31184  -0.30152  -0.29770  -0.28904
  Beta  occ. eigenvalues --   -0.28019  -0.27166  -0.26295  -0.25910  -0.25115
  Beta  occ. eigenvalues --   -0.24508  -0.23294  -0.22738  -0.21132  -0.20687
  Beta  occ. eigenvalues --   -0.20324  -0.19190  -0.17907  -0.10714  -0.09525
  Beta virt. eigenvalues --    0.07002   0.08399   0.08632   0.09065   0.10214
  Beta virt. eigenvalues --    0.10338   0.10615   0.11017   0.11125   0.11345
  Beta virt. eigenvalues --    0.12444   0.13233   0.13370   0.13755   0.14068

 Mulliken charges and spin densities:
               1          2
     1  C   -0.602383  -0.072080
     2  C   -0.077386   0.513891
     3  C    0.176153  -1.049911
     4  C   -0.824656   1.713149
     5  C   -0.088335  -0.714515
     6  C   -0.141379  -0.067078
     7  C    0.112109   0.430872
     8  C    0.274332  -0.616465
     9  C   -0.331554   0.317023
    10  O   -0.368323   0.135794
    11  C   -0.325818  -0.140417
    12  C    0.425014  -1.105309
    13  C    0.204304  -0.639688
    14  H    0.135382   0.010992
    15  H    0.111041  -0.001981
    16  H    0.114457   0.023011
    17  H    0.174139   0.012844
    18  H    0.136564  -0.007500
    19  H   -0.019844   0.183083
    20  H   -0.249002   0.401749
    21  H    0.197514  -0.047383
    22  H    0.070502   0.078485
    23  H    0.052612   0.103330
    24  H    0.167274  -0.004399
    25  H    0.045326   0.083468
    26  H    0.133101   0.006905
    27  H    0.149998   0.001551
    28  H   -0.192793   0.337063
    29  H   -0.024913   0.175621
    30  H   -0.031728   0.136401
    31  H   -0.080327   0.207576
    32  H   -0.174490   0.309853
    33  H   -0.146890   0.284068
 Sum of Mulliken charges =  -1.00000   1.00000

 Dipole moment (field-independent basis, Debye):
    X=              2.5082    Y=              1.5925    Z=              1.0425  Tot=              3.1486
 Quadrupole moment (field-independent basis, Debye-Ang):
   XX=           -162.2800   YY=           -105.8985   ZZ=           -103.3300
   XY=             10.9964   XZ=             -7.9484   YZ=              2.1259

 Summary of Natural Population Analysis:

                                       Natural Population
                Natural  -----------------------------------------------
    Atom  No    Charge         Core      Valence    Rydberg      Total
 -----------------------------------------------------------------------
      C    1   -0.27580      0.99964     2.27171    0.00445     3.27580
      C    2   -0.12238      0.99957     2.11296    0.00985     3.12238
      C    3   -0.17999      0.99958     2.17004    0.01037     3.17999
      C    4   -0.04953      0.99957     2.03894    0.01103     3.04953
      C    5   -0.17918      0.99959     2.16956    0.01003     3.17918
      C    6   -0.21532      0.99958     2.20628    0.00946     3.21532
      C    7    0.08889      0.99949     1.90044    0.01119     2.91111
      C    8   -0.15301      0.99943     2.14320    0.01038     3.15301
      C    9    0.28556      0.99966     1.69523    0.01954     2.71444
      O   10   -0.26760      0.99988     3.26113    0.00660     4.26760
      C   11   -0.33153      0.99964     2.32714    0.00475     3.33153
      C   12   -0.28428      0.99962     2.27751    0.00714     3.28428
      C   13   -0.28061      0.99963     2.27357    0.00741     3.28061
      H   14    0.09850      0.00000     0.40066    0.00084     0.40150
      H   15    0.09228      0.00000     0.40689    0.00083     0.40772
      H   16    0.09428      0.00000     0.40475    0.00097     0.40572
      H   17    0.09530      0.00000     0.40302    0.00169     0.40470
      H   18    0.09924      0.00000     0.39966    0.00110     0.40076
      H   19    0.09524      0.00000     0.40376    0.00100     0.40476
      H   20    0.09885      0.00000     0.39972    0.00143     0.40115
      H   21    0.09641      0.00000     0.40240    0.00120     0.40359
      H   22    0.10017      0.00000     0.39852    0.00131     0.39983
      H   23    0.10503      0.00000     0.39354    0.00143     0.39497
      H   24    0.09320      0.00000     0.40454    0.00226     0.40680
      H   25    0.10218      0.00000     0.39629    0.00153     0.39782
      H   26    0.10093      0.00000     0.39788    0.00120     0.39907
      H   27    0.10285      0.00000     0.39553    0.00162     0.39715
      H   28    0.09917      0.00000     0.39981    0.00101     0.40083
      H   29    0.09711      0.00000     0.40200    0.00089     0.40289
      H   30    0.09886      0.00000     0.40018    0.00096     0.40114
      H   31    0.09784      0.00000     0.40130    0.00086     0.40216
      H   32    0.09779      0.00000     0.40124    0.00097     0.40221
      H   33    0.09955      0.00000     0.39940    0.00105     0.40045
 =======================================================================
   * Total *   -0.00000     12.99487    36.85879    0.14634    50.00000

 Normal termination of Gaussian 16 at Wed Dec  9 23:24:00 2020.
