 Gaussian 16, Revision A.03,

 -----------------------------------------------------------
 # opt freq B3LYP/6-31G(d) empiricaldispersion=gd3bj scf=xqc
 -----------------------------------------------------------

 ------------------------------
 CID_62342401_JID_1208_neutraal
 ------------------------------
 Symbolic Z-matrix:
 Charge =  0 Multiplicity = 1

 SCF Done:  E(RB3LYP) =  -484.373516254     A.U. after   13 cycles
 SCF Done:  E(RB3LYP) =  -484.375125323     A.U. after   12 cycles
 SCF Done:  E(RB3LYP) =  -484.372436558     A.U. after   13 cycles
 SCF Done:  E(RB3LYP) =  -484.375839699     A.U. after   12 cycles
 SCF Done:  E(RB3LYP) =  -484.376959279     A.U. after   12 cycles
 SCF Done:  E(RB3LYP) =  -484.377206783     A.U. after   12 cycles
 SCF Done:  E(RB3LYP) =  -484.377502725     A.U. after   11 cycles
 SCF Done:  E(RB3LYP) =  -484.377642168     A.U. after   10 cycles
 SCF Done:  E(RB3LYP) =  -484.377660473     A.U. after    9 cycles
 SCF Done:  E(RB3LYP) =  -484.377661889     A.U. after    8 cycles
 SCF Done:  E(RB3LYP) =  -484.377664042     A.U. after    8 cycles
 SCF Done:  E(RB3LYP) =  -484.377664247     A.U. after    7 cycles
 SCF Done:  E(RB3LYP) =  -484.377664375     A.U. after    7 cycles
 SCF Done:  E(RB3LYP) =  -484.377664371     A.U. after    7 cycles
 SCF Done:  E(RB3LYP) =  -484.377664386     A.U. after    6 cycles
 Optimization completed.
    -- Stationary point found.
 Normal termination of Gaussian 16 at Tue Dec  8 19:28:36 2020.

 --------------------------------------------------------------------
 #N Geom=AllCheck Guess=TCheck SCRF=Check GenChk RB3LYP/6-31G(d) Freq
 --------------------------------------------------------------------

 Structure from the checkpoint file:  "JID_1208.chk"
 ------------------------------
 CID_62342401_JID_1208_neutraal
 ------------------------------
 Charge =  0 Multiplicity = 1

 SCF Done:  E(RB3LYP) =  -484.377664386     A.U. after    1 cycles

  Exact polarizability: 112.700   6.637 108.345  -3.263  -2.024  92.121
 Approx polarizability: 145.487  13.877 157.418  -4.942  -5.976 132.015

                      1                      2                      3
                      A                      A                      A
 Frequencies --     32.4372                44.3361                62.8750
 Red. masses --      2.8593                 2.9722                 3.2251
 Frc consts  --      0.0018                 0.0034                 0.0075
 IR Inten    --      0.6922                 0.1038                 0.2191

                      4                      5                      6
                      A                      A                      A
 Frequencies --     90.7679               116.6719               152.5819
 Red. masses --      2.9690                 2.5064                 1.8014
 Frc consts  --      0.0144                 0.0201                 0.0247
 IR Inten    --      0.7827                 0.1767                 2.9731

                      7                      8                      9
                      A                      A                      A
 Frequencies --    171.0375               205.1376               240.1711
 Red. masses --      1.5708                 2.9639                 1.1202
 Frc consts  --      0.0271                 0.0735                 0.0381
 IR Inten    --      0.9759                 1.1262                 0.8904

                     10                     11                     12
                      A                      A                      A
 Frequencies --    260.6402               289.1024               322.8752
 Red. masses --      2.0572                 1.1052                 2.8146
 Frc consts  --      0.0823                 0.0544                 0.1729
 IR Inten    --      4.1908                 0.3133                 2.1622

                     13                     14                     15
                      A                      A                      A
 Frequencies --    345.8022               380.5162               411.8967
 Red. masses --      2.8456                 2.1221                 2.1581
 Frc consts  --      0.2005                 0.1810                 0.2157
 IR Inten    --      3.8539                 1.0879                 6.6543

                     16                     17                     18
                      A                      A                      A
 Frequencies --    421.7323               455.2623               482.9916
 Red. masses --      2.1762                 1.9056                 2.1320
 Frc consts  --      0.2280                 0.2327                 0.2930
 IR Inten    --      2.9352                 0.6476                 3.6569

                     19                     20                     21
                      A                      A                      A
 Frequencies --    495.6529               577.4133               723.6581
 Red. masses --      2.3099                 2.9162                 1.2979
 Frc consts  --      0.3343                 0.5728                 0.4005
 IR Inten    --      0.2440                 5.9848                18.4170

                     22                     23                     24
                      A                      A                      A
 Frequencies --    732.8888               814.0182               834.5879
 Red. masses --      1.8535                 2.4416                 2.9724
 Frc consts  --      0.5866                 0.9532                 1.2198
 IR Inten    --     32.1682                 2.7166                 2.7859

                     25                     26                     27
                      A                      A                      A
 Frequencies --    874.1234               908.3777               934.4383
 Red. masses --      1.8031                 1.9933                 1.3289
 Frc consts  --      0.8117                 0.9690                 0.6837
 IR Inten    --     17.7432                 2.5073                42.0514

                     28                     29                     30
                      A                      A                      A
 Frequencies --    937.1724               957.5238               969.3233
 Red. masses --      1.2498                 1.4372                 2.2709
 Frc consts  --      0.6468                 0.7764                 1.2572
 IR Inten    --      7.6750                 0.6542                15.6268

                     31                     32                     33
                      A                      A                      A
 Frequencies --    989.0235              1003.3882              1021.6533
 Red. masses --      1.4727                 1.8321                 1.6833
 Frc consts  --      0.8488                 1.0868                 1.0352
 IR Inten    --      1.7017                19.4313                 2.6185

                     34                     35                     36
                      A                      A                      A
 Frequencies --   1067.7287              1076.6173              1107.2989
 Red. masses --      1.5821                 2.2639                 1.7906
 Frc consts  --      1.0627                 1.5461                 1.2936
 IR Inten    --      4.7253                 2.7391                 1.9138

                     37                     38                     39
                      A                      A                      A
 Frequencies --   1135.7521              1151.5198              1160.0574
 Red. masses --      3.6274                 2.2244                 2.5950
 Frc consts  --      2.7569                 1.7378                 2.0575
 IR Inten    --    153.3709                 9.9710                22.7088

                     40                     41                     42
                      A                      A                      A
 Frequencies --   1205.4270              1214.3858              1292.6122
 Red. masses --      1.8415                 2.0363                 1.2711
 Frc consts  --      1.5766                 1.7693                 1.2514
 IR Inten    --     24.5038                15.2588                 9.4026

                     43                     44                     45
                      A                      A                      A
 Frequencies --   1309.3694              1325.7494              1342.6413
 Red. masses --      1.6184                 1.7747                 1.2591
 Frc consts  --      1.6348                 1.8378                 1.3373
 IR Inten    --      7.8588                 8.9334                 0.4484

                     46                     47                     48
                      A                      A                      A
 Frequencies --   1369.9907              1375.7653              1398.0125
 Red. masses --      1.2601                 1.2500                 1.2302
 Frc consts  --      1.3935                 1.3939                 1.4166
 IR Inten    --     14.5530                 7.4770                10.1985

                     49                     50                     51
                      A                      A                      A
 Frequencies --   1408.7622              1423.9201              1430.6848
 Red. masses --      1.2643                 1.2834                 1.2780
 Frc consts  --      1.4784                 1.5331                 1.5413
 IR Inten    --      7.3131                 7.3819                 4.2228

                     52                     53                     54
                      A                      A                      A
 Frequencies --   1440.8658              1442.6400              1475.8285
 Red. masses --      1.2442                 1.2531                 1.1992
 Frc consts  --      1.5219                 1.5366                 1.5389
 IR Inten    --      8.8186                 7.8862                 3.1470

                     55                     56                     57
                      A                      A                      A
 Frequencies --   1504.2408              1512.9958              1514.9121
 Red. masses --      1.0503                 1.0728                 1.0673
 Frc consts  --      1.4002                 1.4469                 1.4432
 IR Inten    --      2.2760                10.0228                 1.5777

                     58                     59                     60
                      A                      A                      A
 Frequencies --   1515.9785              1517.1421              1523.0566
 Red. masses --      1.0775                 1.0611                 1.0668
 Frc consts  --      1.4590                 1.4391                 1.4580
 IR Inten    --      2.8541                 7.7715                10.2803

                     61                     62                     63
                      A                      A                      A
 Frequencies --   1525.7736              1529.6836              1539.7719
 Red. masses --      1.0867                 1.0672                 1.0537
 Frc consts  --      1.4906                 1.4713                 1.4719
 IR Inten    --      1.2732                10.2532                 6.2295

                     64                     65                     66
                      A                      A                      A
 Frequencies --   1553.1435              1733.4576              3018.5855
 Red. masses --      1.1396                 4.9624                 1.0643
 Frc consts  --      1.6197                 8.7856                 5.7136
 IR Inten    --     18.5411                11.5997                29.0892

                     67                     68                     69
                      A                      A                      A
 Frequencies --   3024.2311              3026.1947              3030.2774
 Red. masses --      1.0771                 1.0692                 1.0660
 Frc consts  --      5.8041                 5.7688                 5.7671
 IR Inten    --     18.1861                16.1026                64.6641

                     70                     71                     72
                      A                      A                      A
 Frequencies --   3037.0527              3043.7415              3044.4978
 Red. masses --      1.0375                 1.0399                 1.0408
 Frc consts  --      5.6381                 5.6761                 5.6838
 IR Inten    --     23.6255                27.4321                17.9141

                     73                     74                     75
                      A                      A                      A
 Frequencies --   3071.9212              3075.1346              3097.8575
 Red. masses --      1.1004                 1.0997                 1.0977
 Frc consts  --      6.1179                 6.1271                 6.2066
 IR Inten    --     46.7884                19.0227                51.0524

                     76                     77                     78
                      A                      A                      A
 Frequencies --   3100.7500              3101.3238              3110.0164
 Red. masses --      1.0959                 1.0990                 1.0986
 Frc consts  --      6.2081                 6.2281                 6.2608
 IR Inten    --     21.9019                 5.1261                90.9527

                     79                     80                     81
                      A                      A                      A
 Frequencies --   3113.5262              3136.4017              3136.7344
 Red. masses --      1.1012                 1.1030                 1.1024
 Frc consts  --      6.2896                 6.3930                 6.3908
 IR Inten    --     30.3808                16.5220                28.4346

                     82                     83                     84
                      A                      A                      A
 Frequencies --   3152.7567              3229.7501              3522.4181
 Red. masses --      1.0601                 1.1157                 1.0726
 Frc consts  --      6.2086                 6.8571                 7.8410
 IR Inten    --      6.0856                16.8647                20.1683

 - Thermochemistry -
 -------------------
 Temperature   298.150 Kelvin.  Pressure   1.00000 Atm.
 Atom     1 has atomic number  6 and mass  12.00000

 Molecular mass:   157.14666 amu.
 Principal axes and moments of inertia in atomic units:
                           1         2         3
     Eigenvalues --  1241.508922692.868163167.25189
           X            1.00000  -0.00208  -0.00194
           Y            0.00207   0.99998  -0.00592
           Z            0.00195   0.00591   0.99998
 This molecule is an asymmetric top.
 Rotational symmetry number  1.
 Warning -- assumption of classical behavior for rotation
           may cause significant error
 Rotational temperatures (Kelvin)      0.06977     0.03216     0.02735
 Rotational constants (GHZ):           1.45367     0.67019     0.56981
 Zero-point vibrational energy     720505.0 (Joules/Mol)
                                  172.20484 (Kcal/Mol)
 Warning -- explicit consideration of  20 degrees of freedom as
           vibrations may cause significant error
 Vibrational temperatures:     46.67    63.79    90.46   130.59   167.86
          (Kelvin)            219.53   246.08   295.15   345.55   375.00
                              415.95   464.55   497.53   547.48   592.63
                              606.78   655.02   694.92   713.13   830.77
                             1041.18  1054.46  1171.19  1200.79  1257.67
                             1306.95  1344.45  1348.38  1377.66  1394.64
                             1422.98  1443.65  1469.93  1536.22  1549.01
                             1593.16  1634.09  1656.78  1669.06  1734.34
                             1747.23  1859.78  1883.89  1907.46  1931.76
                             1971.11  1979.42  2011.43  2026.89  2048.70
                             2058.44  2073.08  2075.64  2123.39  2164.27
                             2176.86  2179.62  2181.15  2182.83  2191.34
                             2195.25  2200.87  2215.39  2234.63  2494.06
                             4343.07  4351.19  4354.02  4359.89  4369.64
                             4379.27  4380.35  4419.81  4424.43  4457.13
                             4461.29  4462.11  4474.62  4479.67  4512.58
                             4513.06  4536.11  4646.89  5067.97

 Zero-point correction=                           0.274426 (Hartree/Particle)
 Thermal correction to Energy=                    0.288088
 Thermal correction to Enthalpy=                  0.289032
 Thermal correction to Gibbs Free Energy=         0.233681
 Sum of electronic and zero-point Energies=           -484.103239
 Sum of electronic and thermal Energies=              -484.089576
 Sum of electronic and thermal Enthalpies=            -484.088632
 Sum of electronic and thermal Free Energies=         -484.143984

                     E (Thermal)             CV                S
                      KCal/Mol        Cal/Mol-Kelvin    Cal/Mol-Kelvin
 Total                  180.778             50.033            116.497
 Electronic               0.000              0.000              0.000
 Translational            0.889              2.981             41.065
 Rotational               0.889              2.981             30.738
 Vibrational            179.001             44.071             44.693
 Vibration     1          0.594              1.983              5.674
 Vibration     2          0.595              1.980              5.055
 Vibration     3          0.597              1.972              4.365
 Vibration     4          0.602              1.956              3.643
 Vibration     5          0.608              1.936              3.155
 Vibration     6          0.619              1.900              2.640
 Vibration     7          0.626              1.878              2.424
 Vibration     8          0.640              1.833              2.087
 Vibration     9          0.657              1.779              1.802
 Vibration    10          0.669              1.745              1.657
 Vibration    11          0.686              1.694              1.479
 Vibration    12          0.708              1.630              1.296
 Vibration    13          0.724              1.584              1.185
 Vibration    14          0.750              1.512              1.037
 Vibration    15          0.776              1.444              0.920
 Vibration    16          0.784              1.423              0.886
 Vibration    17          0.814              1.349              0.780
 Vibration    18          0.839              1.288              0.702
 Vibration    19          0.851              1.260              0.669
 Vibration    20          0.934              1.080              0.490

 Optimization completed.
    -- Stationary point found.
 Normal termination of Gaussian 16 at Tue Dec  8 19:35:22 2020.

 ----------------------------------------------------------------------
 # B3LYP/6-311++G(d,p) empiricaldispersion=gd3bj scf=xqc pop=npa geom=c
 heck
 ----------------------------------------------------------------------

 --------------------------------------
 CID_62342401_JID_1208_Energie_neutraal
 --------------------------------------
 Structure from the checkpoint file:  "JID_1208.chk"
 Charge =  0 Multiplicity = 1

 SCF Done:  E(RB3LYP) =  -484.521785922     A.U. after   13 cycles
 Normal termination of Gaussian 16 at Tue Dec  8 19:37:47 2020.

 ----------------------------------------------------------------------
 # B3LYP/6-311++G(d,p) empiricaldispersion=gd3bj scf=xqc pop=npa geom=c
 heck
 ----------------------------------------------------------------------

 ------------------------------------
 CID_62342401_JID_1208_Energie_kation
 ------------------------------------
 Structure from the checkpoint file:  "JID_1208.chk"
 Charge =  1 Multiplicity = 2

 SCF Done:  E(UB3LYP) =  -484.225224923     A.U. after   20 cycles
 Normal termination of Gaussian 16 at Tue Dec  8 19:43:16 2020.
 Gaussian 16:  ES64L-G16RevA.03 25-Dec-2016

 ----------------------------------------------------------------------
 # B3LYP/6-311++G(d,p) empiricaldispersion=gd3bj scf=xqc pop=npa geom=c
 heck
 ----------------------------------------------------------------------

 -----------------------------------
 CID_62342401_JID_1208_Energie_anion
 -----------------------------------
 Structure from the checkpoint file:  "JID_1208.chk"
 Charge = -1 Multiplicity = 2

                         Standard orientation:
 ---------------------------------------------------------------------
 Center     Atomic      Atomic             Coordinates (Angstroms)
 Number     Number       Type             X           Y           Z
 ---------------------------------------------------------------------
      1          6           0        3.083039    1.255070   -0.568138
      2          6           0        2.497492   -0.029281    0.022214
      3          6           0        2.257101    0.125313    1.534815
      4          7           0        1.308175   -0.390928   -0.758669
      5          6           0        0.676342   -1.668405   -0.417552
      6          6           0       -0.550822   -1.610556    0.511365
      7          8           0       -1.796946   -1.483831   -0.169590
      8          6           0       -1.961254   -0.307942   -0.951375
      9          6           0       -1.963141    0.972123   -0.141579
     10          6           0       -1.261929    2.039470   -0.538289
     11          6           0       -2.831215    0.971599    1.087390
     12          1           0        2.381705    2.090571   -0.440541
     13          1           0        3.272425    1.131430   -1.638345
     14          1           0        4.018947    1.529548   -0.069349
     15          1           0        3.225665   -0.839001   -0.127984
     16          1           0        1.523985    0.919487    1.725428
     17          1           0        1.876931   -0.799976    1.981438
     18          1           0        3.184783    0.388493    2.057214
     19          1           0        0.633756    0.364810   -0.669692
     20          1           0        0.361103   -2.186950   -1.334389
     21          1           0        1.436311   -2.308088    0.047152
     22          1           0       -0.648662   -2.552328    1.061339
     23          1           0       -0.425744   -0.801445    1.245535
     24          1           0       -1.212312   -0.252197   -1.754925
     25          1           0       -2.942009   -0.436526   -1.426296
     26          1           0       -1.292131    2.979928    0.006062
     27          1           0       -0.653314    2.019687   -1.439913
     28          1           0       -3.876033    0.764292    0.820404
     29          1           0       -2.529803    0.179395    1.781396
     30          1           0       -2.790932    1.931674    1.609762
 ---------------------------------------------------------------------

 SCF Done:  E(UB3LYP) =  -484.505115538     A.U. after   33 cycles
 SCF Done:  E(UB3LYP) =  -484.505115538     a.u. after    1 cycles

 The electronic state is 2-A.
 Alpha  occ. eigenvalues --  -19.02684 -14.19070 -10.12150 -10.11429 -10.09815
 Alpha  occ. eigenvalues --  -10.09299 -10.08797 -10.06618 -10.06452 -10.05743
 Alpha  occ. eigenvalues --  -10.05419  -0.93754  -0.80542  -0.71284  -0.67382
 Alpha  occ. eigenvalues --   -0.63026  -0.59378  -0.58653  -0.57151  -0.50820
 Alpha  occ. eigenvalues --   -0.48589  -0.43668  -0.40493  -0.39035  -0.38014
 Alpha  occ. eigenvalues --   -0.36578  -0.35641  -0.33613  -0.33314  -0.32173
 Alpha  occ. eigenvalues --   -0.30868  -0.29594  -0.28756  -0.28265  -0.28005
 Alpha  occ. eigenvalues --   -0.27429  -0.26374  -0.25803  -0.24074  -0.23530
 Alpha  occ. eigenvalues --   -0.21299  -0.16811  -0.16425  -0.12150   0.04587
 Alpha virt. eigenvalues --    0.06479   0.07238   0.07612   0.08665   0.09155
 Alpha virt. eigenvalues --    0.09248   0.09683   0.10419   0.10645   0.11650
 Alpha virt. eigenvalues --    0.11868   0.12508   0.12861   0.13461   0.13975

  Beta  occ. eigenvalues --  -19.02684 -14.19067 -10.12134 -10.11411 -10.09803
  Beta  occ. eigenvalues --  -10.09288 -10.08788 -10.06589 -10.06414 -10.05721
  Beta  occ. eigenvalues --  -10.05387  -0.93748  -0.80529  -0.71250  -0.67352
  Beta  occ. eigenvalues --   -0.62991  -0.59317  -0.58601  -0.57111  -0.50770
  Beta  occ. eigenvalues --   -0.48540  -0.43602  -0.40465  -0.39003  -0.37981
  Beta  occ. eigenvalues --   -0.36543  -0.35615  -0.33575  -0.33278  -0.32133
  Beta  occ. eigenvalues --   -0.30826  -0.29561  -0.28725  -0.28232  -0.27968
  Beta  occ. eigenvalues --   -0.27394  -0.26348  -0.25770  -0.24042  -0.23488
  Beta  occ. eigenvalues --   -0.21282  -0.16791  -0.16366  -0.12138
  Beta virt. eigenvalues --    0.06765   0.07340   0.07935   0.08184   0.09128
  Beta virt. eigenvalues --    0.09736   0.09763   0.10013   0.10777   0.11042
  Beta virt. eigenvalues --    0.12088   0.12262   0.12893   0.13287   0.13893

 Mulliken charges and spin densities:
               1          2
     1  C    0.530985  -1.105109
     2  C   -1.696240   1.574889
     3  C    1.327435  -1.829927
     4  N    0.139702  -0.069057
     5  C    0.485200  -0.662529
     6  C   -0.565647   0.156396
     7  O   -0.082429   0.012014
     8  C   -0.493926  -0.095152
     9  C   -0.942499   1.770130
    10  C    0.534638  -1.300145
    11  C    1.803345  -2.345532
    12  H   -0.072426   0.209098
    13  H   -0.023841   0.178941
    14  H   -0.249627   0.382191
    15  H   -0.301283   0.451183
    16  H   -0.120107   0.274762
    17  H   -0.283389   0.424256
    18  H   -0.354930   0.497757
    19  H    0.638872  -0.559165
    20  H    0.131683   0.059836
    21  H    0.012563   0.126301
    22  H   -0.394564   0.578009
    23  H    0.555219  -0.427891
    24  H   -0.080550   0.259511
    25  H   -0.263534   0.451407
    26  H   -0.508616   0.646829
    27  H    0.116099   0.029681
    28  H   -0.239707   0.395500
    29  H   -0.219271   0.384973
    30  H   -0.383154   0.530843
 Sum of Mulliken charges =  -1.00000   1.00000

 Dipole moment (field-independent basis, Debye):
    X=              0.2537    Y=             -1.8827    Z=             -2.8274  Tot=              3.4064
 Quadrupole moment (field-independent basis, Debye-Ang):
   XX=           -143.1939   YY=           -116.2645   ZZ=           -110.0001
   XY=              2.1071   XZ=             -1.9428   YZ=             -0.7414

 Summary of Natural Population Analysis:

                                       Natural Population
                Natural  -----------------------------------------------
    Atom  No    Charge         Core      Valence    Rydberg      Total
 -----------------------------------------------------------------------
      C    1   -0.28592      0.99965     2.27985    0.00642     3.28592
      C    2   -0.00847      0.99962     1.99678    0.01207     3.00847
      C    3   -0.29701      0.99965     2.29103    0.00633     3.29701
      N    4   -0.35554      0.99974     2.84384    0.01196     3.85554
      C    5   -0.10646      0.99962     2.09599    0.01085     3.10646
      C    6   -0.02149      0.99957     2.00921    0.01272     3.02149
      O    7   -0.30026      0.99989     3.29076    0.00961     4.30026
      C    8   -0.02719      0.99950     2.01387    0.01382     3.02719
      C    9   -0.01620      0.99953     2.00608    0.01060     3.01620
      C   10   -0.19849      0.99948     2.18954    0.00947     3.19849
      C   11   -0.30143      0.99961     2.29449    0.00734     3.30143
      H   12    0.09593      0.00000     0.40279    0.00128     0.40407
      H   13    0.10194      0.00000     0.39689    0.00117     0.39806
      H   14    0.09946      0.00000     0.39961    0.00093     0.40054
      H   15    0.08734      0.00000     0.41125    0.00141     0.41266
      H   16    0.09805      0.00000     0.40030    0.00165     0.40195
      H   17    0.09861      0.00000     0.39993    0.00146     0.40139
      H   18    0.10082      0.00000     0.39787    0.00131     0.39918
      H   19    0.17682      0.00000     0.31780    0.00538     0.32318
      H   20    0.09395      0.00000     0.40477    0.00127     0.40605
      H   21    0.09808      0.00000     0.40052    0.00140     0.40192
      H   22    0.09236      0.00000     0.40624    0.00140     0.40764
      H   23    0.08312      0.00000     0.41501    0.00187     0.41688
      H   24    0.08467      0.00000     0.41378    0.00156     0.41533
      H   25    0.09743      0.00000     0.40102    0.00156     0.40257
      H   26    0.09798      0.00000     0.40085    0.00117     0.40202
      H   27    0.09435      0.00000     0.40435    0.00129     0.40565
      H   28    0.10598      0.00000     0.39233    0.00169     0.39402
      H   29    0.10748      0.00000     0.39112    0.00140     0.39252
      H   30    0.10410      0.00000     0.39461    0.00129     0.39590
 =======================================================================
   * Total *   -0.00000     10.99585    32.86246    0.14168    44.00000

 Normal termination of Gaussian 16 at Tue Dec  8 19:54:52 2020.
