 Gaussian 16, Revision A.03,

 -----------------------------------------------------------
 # opt freq B3LYP/6-31G(d) empiricaldispersion=gd3bj scf=xqc
 -----------------------------------------------------------

 -------------------------------
 CID_141348790_JID_3949_neutraal
 -------------------------------
 Symbolic Z-matrix:
 Charge =  0 Multiplicity = 1

 SCF Done:  E(RB3LYP) =  -1389.61523031     A.U. after   17 cycles
 SCF Done:  E(RB3LYP) =  -1389.61239759     A.U. after   15 cycles
 SCF Done:  E(RB3LYP) =  -1389.62296776     A.U. after   13 cycles
 SCF Done:  E(RB3LYP) =  -1389.62384635     A.U. after   12 cycles
 SCF Done:  E(RB3LYP) =  -1389.62400094     A.U. after   11 cycles
 SCF Done:  E(RB3LYP) =  -1389.62400668     A.U. after   12 cycles
 SCF Done:  E(RB3LYP) =  -1389.62410805     A.U. after   11 cycles
 SCF Done:  E(RB3LYP) =  -1389.62414401     A.U. after   11 cycles
 SCF Done:  E(RB3LYP) =  -1389.62417037     A.U. after   11 cycles
 SCF Done:  E(RB3LYP) =  -1389.62420894     A.U. after   10 cycles
 SCF Done:  E(RB3LYP) =  -1389.62422913     A.U. after   10 cycles
 SCF Done:  E(RB3LYP) =  -1389.62423940     A.U. after   10 cycles
 SCF Done:  E(RB3LYP) =  -1389.62424676     A.U. after   10 cycles
 SCF Done:  E(RB3LYP) =  -1389.62424831     A.U. after    8 cycles
 SCF Done:  E(RB3LYP) =  -1389.62424940     A.U. after    9 cycles
 SCF Done:  E(RB3LYP) =  -1389.62424955     A.U. after    8 cycles
 Optimization completed.
    -- Stationary point found.
 Normal termination of Gaussian 16 at Sun Dec 13 16:00:18 2020.

 --------------------------------------------------------------------
 #N Geom=AllCheck Guess=TCheck SCRF=Check GenChk RB3LYP/6-31G(d) Freq
 --------------------------------------------------------------------

 Structure from the checkpoint file:  "JID_3949.chk"
 -------------------------------
 CID_141348790_JID_3949_neutraal
 -------------------------------
 Charge =  0 Multiplicity = 1

 SCF Done:  E(RB3LYP) =  -1389.62424955     A.U. after    1 cycles

  Exact polarizability: 138.664   3.573 114.165   6.870   0.867  93.766
 Approx polarizability: 178.576   3.260 168.025  12.734   2.645 153.401

                      1                      2                      3
                      A                      A                      A
 Frequencies --     24.6481                32.5464                54.1902
 Red. masses --      5.9397                 3.8616                 3.6218
 Frc consts  --      0.0021                 0.0024                 0.0063
 IR Inten    --      1.3693                 0.7129                 0.8662

                      4                      5                      6
                      A                      A                      A
 Frequencies --     57.3865                80.6285                96.7181
 Red. masses --      5.4649                 5.6752                 3.7875
 Frc consts  --      0.0106                 0.0217                 0.0209
 IR Inten    --      0.6072                 1.0594                 1.9213

                      7                      8                      9
                      A                      A                      A
 Frequencies --    147.0991               184.5366               187.8700
 Red. masses --      3.3914                 5.0939                 4.1579
 Frc consts  --      0.0432                 0.1022                 0.0865
 IR Inten    --     11.6732                 8.0065                 1.3727

                     10                     11                     12
                      A                      A                      A
 Frequencies --    232.9992               237.9204               249.5247
 Red. masses --      1.8186                 1.1562                 1.3695
 Frc consts  --      0.0582                 0.0386                 0.0502
 IR Inten    --     14.3752                 6.9632                38.0748

                     13                     14                     15
                      A                      A                      A
 Frequencies --    263.6779               272.7154               322.1430
 Red. masses --      2.4989                 1.3201                 7.8427
 Frc consts  --      0.1024                 0.0578                 0.4795
 IR Inten    --      7.5795                 3.4726                 7.5713

                     16                     17                     18
                      A                      A                      A
 Frequencies --    355.6475               385.0482               406.4757
 Red. masses --      2.6808                 3.6724                 2.0256
 Frc consts  --      0.1998                 0.3208                 0.1972
 IR Inten    --      0.9826                29.3745                 1.5404

                     19                     20                     21
                      A                      A                      A
 Frequencies --    426.9940               435.2504               479.3961
 Red. masses --      2.2867                 1.8874                 9.5467
 Frc consts  --      0.2456                 0.2107                 1.2927
 IR Inten    --      1.2866                 0.1826                15.7978

                     22                     23                     24
                      A                      A                      A
 Frequencies --    483.0059               528.6937               546.7434
 Red. masses --     10.1256                15.3398                 2.3034
 Frc consts  --      1.3918                 2.5263                 0.4057
 IR Inten    --     33.5343                30.6378                 8.1667

                     25                     26                     27
                      A                      A                      A
 Frequencies --    629.8165               695.1622               738.8177
 Red. masses --      3.5997                10.9419                 2.3582
 Frc consts  --      0.8413                 3.1154                 0.7584
 IR Inten    --      7.2335                54.2032                46.6614

                     28                     29                     30
                      A                      A                      A
 Frequencies --    745.6717               808.2412               823.0376
 Red. masses --      7.1093                 2.3978                17.5389
 Frc consts  --      2.3290                 0.9229                 6.9999
 IR Inten    --    246.4008                 4.0962               250.1111

                     31                     32                     33
                      A                      A                      A
 Frequencies --    834.0383               905.6477               965.8350
 Red. masses --      2.4139                 2.0964                 2.1415
 Frc consts  --      0.9893                 1.0131                 1.1770
 IR Inten    --     30.3069                 2.3770                 0.8740

                     34                     35                     36
                      A                      A                      A
 Frequencies --    996.6121              1071.2884              1089.5372
 Red. masses --      1.7947                 1.9695                 1.4754
 Frc consts  --      1.0503                 1.3317                 1.0319
 IR Inten    --     17.7070                 6.3618                 8.2106

                     37                     38                     39
                      A                      A                      A
 Frequencies --   1095.4479              1114.1231              1135.7130
 Red. masses --      2.0604                 2.8556                 1.2610
 Frc consts  --      1.4567                 2.0884                 0.9583
 IR Inten    --     30.0755                 2.9627                12.2100

                     40                     41                     42
                      A                      A                      A
 Frequencies --   1171.9694              1178.6578              1184.8819
 Red. masses --      2.5100                 1.4850                 1.6694
 Frc consts  --      2.0312                 1.2155                 1.3809
 IR Inten    --     97.3437                82.3452                83.1585

                     43                     44                     45
                      A                      A                      A
 Frequencies --   1191.5786              1215.6570              1239.0506
 Red. masses --      1.3950                 1.1287                 1.4267
 Frc consts  --      1.1670                 0.9827                 1.2905
 IR Inten    --      4.8107                 6.7552                 4.7352

                     46                     47                     48
                      A                      A                      A
 Frequencies --   1314.5204              1337.0443              1349.8036
 Red. masses --      1.3273                 2.5482                 1.3461
 Frc consts  --      1.3514                 2.6840                 1.4450
 IR Inten    --      1.2738                20.5199                 7.1093

                     49                     50                     51
                      A                      A                      A
 Frequencies --   1380.3777              1396.0204              1405.1118
 Red. masses --      1.3847                 1.3833                 6.8915
 Frc consts  --      1.5545                 1.5884                 8.0166
 IR Inten    --     14.3058                18.3408               225.4175

                     52                     53                     54
                      A                      A                      A
 Frequencies --   1420.1653              1426.0165              1469.5228
 Red. masses --      1.4371                 1.3229                 1.1483
 Frc consts  --      1.7077                 1.5850                 1.4610
 IR Inten    --     20.2872                10.7361                 0.5810

                     55                     56                     57
                      A                      A                      A
 Frequencies --   1478.1495              1494.2074              1504.6594
 Red. masses --      1.0923                 1.1302                 1.0573
 Frc consts  --      1.4062                 1.4867                 1.4103
 IR Inten    --      5.6658                 2.7294                15.5153

                     58                     59                     60
                      A                      A                      A
 Frequencies --   1509.7134              1515.8982              1517.9160
 Red. masses --      1.0790                 1.0713                 1.0852
 Frc consts  --      1.4490                 1.4504                 1.4732
 IR Inten    --      7.8812                 2.8173                15.6224

                     61                     62                     63
                      A                      A                      A
 Frequencies --   1529.9666              1541.7089              1555.9072
 Red. masses --      1.1044                 1.0591                 1.0572
 Frc consts  --      1.5231                 1.4831                 1.5079
 IR Inten    --      7.5373                 3.5853                 8.5568

                     64                     65                     66
                      A                      A                      A
 Frequencies --   2938.4026              2949.1052              3022.4906
 Red. masses --      1.0605                 1.0627                 1.0671
 Frc consts  --      5.3948                 5.4456                 5.7435
 IR Inten    --     46.3458               138.0054                39.8992

                     67                     68                     69
                      A                      A                      A
 Frequencies --   3035.5584              3055.6514              3058.7890
 Red. masses --      1.0695                 1.0729                 1.0729
 Frc consts  --      5.8062                 5.9022                 5.9146
 IR Inten    --      5.2236                37.3906                15.5463

                     70                     71                     72
                      A                      A                      A
 Frequencies --   3063.3228              3067.6219              3077.0854
 Red. masses --      1.0693                 1.0664                 1.0907
 Frc consts  --      5.9121                 5.9127                 6.0844
 IR Inten    --     63.1246                15.4252                49.1012

                     73                     74                     75
                      A                      A                      A
 Frequencies --   3107.9165              3108.9437              3110.9416
 Red. masses --      1.1012                 1.0989                 1.1026
 Frc consts  --      6.2669                 6.2578                 6.2869
 IR Inten    --     29.5949                 2.5036                47.0512

                     76                     77                     78
                      A                      A                      A
 Frequencies --   3127.8303              3130.5296              3693.4342
 Red. masses --      1.0936                 1.0928                 1.0658
 Frc consts  --      6.3038                 6.3100                 8.5664
 IR Inten    --     31.4394                18.4335               134.2676

 - Thermochemistry -
 -------------------
 Temperature   298.150 Kelvin.  Pressure   1.00000 Atm.
 Atom     1 has atomic number  6 and mass  12.00000

 Molecular mass:   229.04425 amu.
 Principal axes and moments of inertia in atomic units:
                           1         2         3
     Eigenvalues --  1508.783675924.948096670.82038
           X            0.99998   0.00002   0.00625
           Y           -0.00004   0.99999   0.00339
           Z           -0.00625  -0.00339   0.99997
 This molecule is an asymmetric top.
 Rotational symmetry number  1.
 Warning -- assumption of classical behavior for rotation
           may cause significant error
 Rotational temperatures (Kelvin)      0.05741     0.01462     0.01298
 Rotational constants (GHZ):           1.19616     0.30460     0.27054
 Zero-point vibrational energy     598234.4 (Joules/Mol)
                                  142.98145 (Kcal/Mol)
 Warning -- explicit consideration of  24 degrees of freedom as
           vibrations may cause significant error
 Vibrational temperatures:     35.46    46.83    77.97    82.57   116.01
          (Kelvin)            139.16   211.64   265.51   270.30   335.23
                              342.31   359.01   379.37   392.38   463.49
                              511.70   554.00   584.83   614.35   626.23
                              689.74   694.94   760.67   786.64   906.17
                             1000.18  1062.99  1072.86  1162.88  1184.17
                             1200.00  1303.03  1389.62  1433.90  1541.35
                             1567.60  1576.11  1602.97  1634.04  1686.20
                             1695.83  1704.78  1714.42  1749.06  1782.72
                             1891.30  1923.71  1942.07  1986.06  2008.56
                             2021.64  2043.30  2051.72  2114.32  2126.73
                             2149.83  2164.87  2172.14  2181.04  2183.94
                             2201.28  2218.18  2238.60  4227.71  4243.10
                             4348.69  4367.49  4396.40  4400.92  4407.44
                             4413.62  4427.24  4471.60  4473.08  4475.95
                             4500.25  4504.13  5314.03

 Zero-point correction=                           0.227855 (Hartree/Particle)
 Thermal correction to Energy=                    0.243796
 Thermal correction to Enthalpy=                  0.244740
 Thermal correction to Gibbs Free Energy=         0.182671
 Sum of electronic and zero-point Energies=          -1389.396394
 Sum of electronic and thermal Energies=             -1389.380453
 Sum of electronic and thermal Enthalpies=           -1389.379509
 Sum of electronic and thermal Free Energies=        -1389.441578

                     E (Thermal)             CV                S
                      KCal/Mol        Cal/Mol-Kelvin    Cal/Mol-Kelvin
 Total                  152.984             56.820            130.636
 Electronic               0.000              0.000              0.000
 Translational            0.889              2.981             42.188
 Rotational               0.889              2.981             32.456
 Vibrational            151.207             50.858             55.992
 Vibration     1          0.593              1.985              6.219
 Vibration     2          0.594              1.983              5.668
 Vibration     3          0.596              1.976              4.658
 Vibration     4          0.596              1.975              4.545
 Vibration     5          0.600              1.962              3.876
 Vibration     6          0.603              1.952              3.519
 Vibration     7          0.617              1.906              2.709
 Vibration     8          0.631              1.861              2.282
 Vibration     9          0.633              1.857              2.249
 Vibration    10          0.654              1.790              1.856
 Vibration    11          0.656              1.783              1.818
 Vibration    12          0.662              1.764              1.734
 Vibration    13          0.670              1.739              1.637
 Vibration    14          0.676              1.724              1.579
 Vibration    15          0.707              1.631              1.299
 Vibration    16          0.731              1.564              1.141
 Vibration    17          0.754              1.502              1.019
 Vibration    18          0.771              1.456              0.939
 Vibration    19          0.789              1.411              0.869
 Vibration    20          0.796              1.393              0.842
 Vibration    21          0.836              1.296              0.712
 Vibration    22          0.839              1.288              0.702
 Vibration    23          0.884              1.187              0.590
 Vibration    24          0.902              1.147              0.551

                           ! Non-Optimized Parameters !
 Normal termination of Gaussian 16 at Sun Dec 13 16:06:45 2020.

 ----------------------------------------------------------------------
 # B3LYP/6-311++G(d,p) empiricaldispersion=gd3bj scf=xqc pop=npa geom=c
 heck
 ----------------------------------------------------------------------

 ---------------------------------------
 CID_141348790_JID_3949_Energie_neutraal
 ---------------------------------------
 Structure from the checkpoint file:  "JID_3949.chk"
 Charge =  0 Multiplicity = 1

 SCF Done:  E(RB3LYP) =  -1389.85951788     A.U. after   16 cycles
 Normal termination of Gaussian 16 at Sun Dec 13 16:10:21 2020.

 ----------------------------------------------------------------------
 # B3LYP/6-311++G(d,p) empiricaldispersion=gd3bj scf=xqc pop=npa geom=c
 heck
 ----------------------------------------------------------------------

 -------------------------------------
 CID_141348790_JID_3949_Energie_kation
 -------------------------------------
 Structure from the checkpoint file:  "JID_3949.chk"
 Charge =  1 Multiplicity = 2

 SCF Done:  E(UB3LYP) =  -1389.57051531     A.U. after   23 cycles
 Normal termination of Gaussian 16 at Sun Dec 13 16:17:26 2020.
 Gaussian 16:  ES64L-G16RevA.03 25-Dec-2016

 ----------------------------------------------------------------------
 # B3LYP/6-311++G(d,p) empiricaldispersion=gd3bj scf=xqc pop=npa geom=c
 heck
 ----------------------------------------------------------------------

 ------------------------------------
 CID_141348790_JID_3949_Energie_anion
 ------------------------------------
 Structure from the checkpoint file:  "JID_3949.chk"
 Charge = -1 Multiplicity = 2

                         Standard orientation:
 ---------------------------------------------------------------------
 Center     Atomic      Atomic             Coordinates (Angstroms)
 Number     Number       Type             X           Y           Z
 ---------------------------------------------------------------------
      1          6           0        4.019395    0.911663   -0.510953
      2          7           0        3.687923   -0.499280   -0.520682
      3          6           0        4.283889   -1.234495    0.576368
      4          6           0        2.299874   -0.852002   -0.806999
      5          6           0        1.272225   -0.830852    0.342513
      6          6           0        1.061686    0.507986    1.066779
      7          6           0        0.619228    1.672258    0.170670
      8         16           0       -1.166442    1.924118   -0.080666
      9          8           0       -1.611584    0.420191   -0.825427
     10         16           0       -2.586815   -0.537814    0.101162
     11          8           0       -1.892188   -0.983443    1.288078
     12          8           0       -3.908560    0.060473    0.152219
     13          8           0       -2.596216   -1.787028   -0.932207
     14          1           0        5.108502    1.026367   -0.579271
     15          1           0        3.691335    1.466005    0.388855
     16          1           0        3.578512    1.399405   -1.387125
     17          1           0        3.922339   -0.931810    1.578046
     18          1           0        4.080049   -2.304543    0.456285
     19          1           0        5.371205   -1.093325    0.562696
     20          1           0        1.963336   -0.208164   -1.628707
     21          1           0        2.300067   -1.875070   -1.209900
     22          1           0        0.321630   -1.188174   -0.063118
     23          1           0        1.567314   -1.570367    1.096940
     24          1           0        0.328531    0.370738    1.867655
     25          1           0        2.000953    0.803178    1.548326
     26          1           0        0.880119    2.637431    0.629992
     27          1           0        1.106964    1.650243   -0.806634
     28          1           0       -3.253617   -1.596708   -1.628777
 ---------------------------------------------------------------------

 SCF Done:  E(UB3LYP) =  -1389.86953881     A.U. after   26 cycles

 The electronic state is 2-A.
 Alpha  occ. eigenvalues --  -88.96732 -88.72186 -19.04686 -19.02406 -19.00501
 Alpha  occ. eigenvalues --  -19.00313 -14.21164 -10.10243 -10.10079 -10.09105
 Alpha  occ. eigenvalues --  -10.07694 -10.05627 -10.05136  -8.02606  -7.80539
 Alpha  occ. eigenvalues --   -5.98940  -5.98811  -5.98736  -5.77237  -5.76559
 Alpha  occ. eigenvalues --   -5.75746  -1.04468  -0.92250  -0.90363  -0.89689
 Alpha  occ. eigenvalues --   -0.83016  -0.69150  -0.64348  -0.62167  -0.59525
 Alpha  occ. eigenvalues --   -0.55286  -0.51803  -0.48764  -0.45110  -0.42893
 Alpha  occ. eigenvalues --   -0.39232  -0.39084  -0.38174  -0.36911  -0.36674
 Alpha  occ. eigenvalues --   -0.34195  -0.32957  -0.32007  -0.30652  -0.29906
 Alpha  occ. eigenvalues --   -0.29431  -0.28449  -0.28282  -0.27491  -0.26168
 Alpha  occ. eigenvalues --   -0.25171  -0.24844  -0.24295  -0.22792  -0.22041
 Alpha  occ. eigenvalues --   -0.20949  -0.20346  -0.19206  -0.16139  -0.11611
 Alpha  occ. eigenvalues --   -0.09347   0.04286
 Alpha virt. eigenvalues --    0.06018   0.07978   0.08541   0.09014   0.09467
 Alpha virt. eigenvalues --    0.10983   0.11271   0.11496   0.12013   0.13316
 Alpha virt. eigenvalues --    0.14172   0.14498   0.14639   0.15338   0.15675

  Beta  occ. eigenvalues --  -88.96672 -88.71981 -19.04471 -19.01866 -19.00442
  Beta  occ. eigenvalues --  -19.00266 -14.21164 -10.10238 -10.10074 -10.09103
  Beta  occ. eigenvalues --  -10.07709 -10.05611 -10.05128  -8.02530  -7.80340
  Beta  occ. eigenvalues --   -5.98892  -5.98718  -5.98681  -5.76682  -5.76402
  Beta  occ. eigenvalues --   -5.75615  -1.04099  -0.91788  -0.90171  -0.88590
  Beta  occ. eigenvalues --   -0.83013  -0.69039  -0.64114  -0.62151  -0.59172
  Beta  occ. eigenvalues --   -0.54960  -0.51596  -0.48495  -0.44977  -0.42635
  Beta  occ. eigenvalues --   -0.39084  -0.39016  -0.38063  -0.36763  -0.36595
  Beta  occ. eigenvalues --   -0.34084  -0.32812  -0.31791  -0.30622  -0.29790
  Beta  occ. eigenvalues --   -0.29079  -0.28411  -0.28162  -0.27266  -0.25783
  Beta  occ. eigenvalues --   -0.24988  -0.24472  -0.24086  -0.22740  -0.21943
  Beta  occ. eigenvalues --   -0.20648  -0.20168  -0.18959  -0.15653  -0.11605
  Beta  occ. eigenvalues --   -0.08742
  Beta virt. eigenvalues --    0.05958   0.07859   0.08668   0.08907   0.09401
  Beta virt. eigenvalues --    0.10769   0.10979   0.11348   0.11504   0.12375
  Beta virt. eigenvalues --    0.13303   0.14280   0.14371   0.14674   0.15291

 Mulliken charges and spin densities:
               1          2
     1  C   -0.265030  -0.120407
     2  N    0.033122   0.041875
     3  C   -0.312239  -0.079720
     4  C   -0.575824  -0.147513
     5  C   -0.181978   0.011286
     6  C    0.137418  -0.109856
     7  C   -0.580419  -0.013164
     8  S   -0.467824   0.693176
     9  O   -0.113679   0.000905
    10  S    0.680729  -0.362034
    11  O   -0.234322   0.026130
    12  O   -0.097109  -0.045279
    13  O   -0.228833  -0.057912
    14  H    0.092576   0.036841
    15  H    0.050647   0.059739
    16  H    0.109181   0.019133
    17  H    0.115713   0.001792
    18  H    0.104985   0.031497
    19  H    0.055517   0.062829
    20  H    0.055608   0.087202
    21  H    0.164487   0.023350
    22  H    0.060161   0.095374
    23  H    0.130380   0.022322
    24  H    0.197344  -0.005733
    25  H    0.071212   0.060719
    26  H    0.171073   0.014607
    27  H    0.179084  -0.015841
    28  H   -0.351977   0.668683
 Sum of Mulliken charges =  -1.00000   1.00000

 Dipole moment (field-independent basis, Debye):
    X=              8.3141    Y=              0.5226    Z=              1.3593  Tot=              8.4406
 Quadrupole moment (field-independent basis, Debye-Ang):
   XX=           -149.0102   YY=           -119.2011   ZZ=           -113.7954
   XY=             -0.8217   XZ=             -0.5377   YZ=             -2.6214

 Summary of Natural Population Analysis:

                                       Natural Population
                Natural  -----------------------------------------------
    Atom  No    Charge         Core      Valence    Rydberg      Total
 -----------------------------------------------------------------------
      C    1   -0.17302      0.99965     2.16630    0.00708     3.17302
      N    2   -0.28460      0.99973     2.77097    0.01390     3.78460
      C    3   -0.17619      0.99966     2.16933    0.00720     3.17619
      C    4   -0.08137      0.99961     2.07107    0.01068     3.08137
      C    5   -0.20305      0.99962     2.19545    0.00799     3.20305
      C    6   -0.20068      0.99961     2.19218    0.00888     3.20068
      C    7   -0.26765      0.99960     2.25762    0.01043     3.26765
      S    8    0.29280      4.99960     2.68402    0.02358     7.70720
      O    9   -0.39198      0.99994     3.38284    0.00920     4.39198
      S   10    1.23189      4.99950     1.66148    0.10713     6.76811
      O   11   -0.44710      0.99989     3.44089    0.00633     4.44710
      O   12   -0.45128      0.99989     3.44565    0.00573     4.45128
      O   13   -0.42114      0.99990     3.41444    0.00680     4.42114
      H   14    0.08783      0.00000     0.41096    0.00121     0.41217
      H   15    0.07857      0.00000     0.41908    0.00235     0.42143
      H   16    0.09543      0.00000     0.40342    0.00115     0.40457
      H   17    0.07962      0.00000     0.41827    0.00211     0.42038
      H   18    0.09424      0.00000     0.40470    0.00107     0.40576
      H   19    0.08942      0.00000     0.40937    0.00122     0.41058
      H   20    0.09496      0.00000     0.40370    0.00134     0.40504
      H   21    0.09234      0.00000     0.40651    0.00115     0.40766
      H   22    0.11447      0.00000     0.38364    0.00190     0.38553
      H   23    0.09208      0.00000     0.40687    0.00105     0.40792
      H   24    0.11186      0.00000     0.38689    0.00125     0.38814
      H   25    0.08830      0.00000     0.40913    0.00257     0.41170
      H   26    0.10729      0.00000     0.39172    0.00100     0.39271
      H   27    0.09426      0.00000     0.40361    0.00212     0.40574
      H   28    0.25272      0.00000     0.22517    0.02211     0.24728
 =======================================================================
   * Total *    0.00000     20.99620    39.73527    0.26853    61.00000

 Normal termination of Gaussian 16 at Sun Dec 13 16:25:23 2020.
