 Gaussian 16, Revision A.03,

 -----------------------------------------------------------
 # opt freq B3LYP/6-31G(d) empiricaldispersion=gd3bj scf=xqc
 -----------------------------------------------------------

 -------------------------------
 CID_152072651_JID_4272_neutraal
 -------------------------------
 Symbolic Z-matrix:
 Charge =  0 Multiplicity = 1

 SCF Done:  E(RB3LYP) =  -646.788184455     A.U. after   17 cycles
 SCF Done:  E(RB3LYP) =  -646.826199070     A.U. after   15 cycles
 SCF Done:  E(RB3LYP) =  -646.854570219     A.U. after   18 cycles
 SCF Done:  E(RB3LYP) =  -646.867105955     A.U. after   17 cycles
 SCF Done:  E(RB3LYP) =  -646.912152024     A.U. after   19 cycles
 SCF Done:  E(RB3LYP) =  -646.940087664     A.U. after   18 cycles
 SCF Done:  E(RB3LYP) =  -646.978323662     A.U. after   15 cycles
 SCF Done:  E(RB3LYP) =  -647.007473836     A.U. after   17 cycles
 SCF Done:  E(RB3LYP) =  -647.011293239     A.U. after   16 cycles
 SCF Done:  E(RB3LYP) =  -647.018169747     A.U. after   15 cycles
 SCF Done:  E(RB3LYP) =  -647.022536587     A.U. after   10 cycles
 SCF Done:  E(RB3LYP) =  -647.022538203     A.U. after   10 cycles
 SCF Done:  E(RB3LYP) =  -647.022538984     A.U. after    9 cycles
 SCF Done:  E(RB3LYP) =  -647.022539749     A.U. after   10 cycles
 SCF Done:  E(RB3LYP) =  -647.022540030     A.U. after    9 cycles
 SCF Done:  E(RB3LYP) =  -647.022540129     A.U. after    8 cycles
 Optimization completed.
    -- Stationary point found.
 Normal termination of Gaussian 16 at Thu Dec 10 09:27:19 2020.

 --------------------------------------------------------------------
 #N Geom=AllCheck Guess=TCheck SCRF=Check GenChk RB3LYP/6-31G(d) Freq
 --------------------------------------------------------------------

 Structure from the checkpoint file:  "JID_4272.chk"
 -------------------------------
 CID_152072651_JID_4272_neutraal
 -------------------------------
 Charge =  0 Multiplicity = 1

 SCF Done:  E(RB3LYP) =  -647.022540129     A.U. after    1 cycles

  Exact polarizability: 147.834  -8.556 146.074 -16.069   2.564  68.152
 Approx polarizability: 237.005 -22.628 293.031 -39.186   9.699 103.780

                      1                      2                      3
                      A                      A                      A
 Frequencies --     31.1802                60.4934               100.5951
 Red. masses --      5.1361                 3.7899                 4.6008
 Frc consts  --      0.0029                 0.0082                 0.0274
 IR Inten    --      1.6434                 0.8578                 0.3979

                      4                      5                      6
                      A                      A                      A
 Frequencies --    114.4625               191.4861               215.9599
 Red. masses --      2.3964                 5.3279                 4.7012
 Frc consts  --      0.0185                 0.1151                 0.1292
 IR Inten    --      0.6096                 0.0650                 0.9462

                      7                      8                      9
                      A                      A                      A
 Frequencies --    238.8418               254.2440               273.8314
 Red. masses --      3.4933                 1.3337                 7.2771
 Frc consts  --      0.1174                 0.0508                 0.3215
 IR Inten    --      3.6495                 0.9853                 0.3534

                     10                     11                     12
                      A                      A                      A
 Frequencies --    337.4654               350.8798               415.6534
 Red. masses --      2.2924                 6.5235                 3.5917
 Frc consts  --      0.1538                 0.4732                 0.3656
 IR Inten    --      5.0849                 2.6102                 2.1226

                     13                     14                     15
                      A                      A                      A
 Frequencies --    494.7292               497.4777               515.2452
 Red. masses --      3.4727                 5.2334                 4.0260
 Frc consts  --      0.5008                 0.7631                 0.6297
 IR Inten    --      1.3295                12.2792                 2.3194

                     16                     17                     18
                      A                      A                      A
 Frequencies --    537.5409               597.6723               628.4139
 Red. masses --      6.8515                 5.9025                 5.6042
 Frc consts  --      1.1664                 1.2423                 1.3039
 IR Inten    --      0.6142                 6.3150                 2.9190

                     19                     20                     21
                      A                      A                      A
 Frequencies --    648.3320               717.6712               719.6132
 Red. masses --      6.2255                 5.1321                 4.5401
 Frc consts  --      1.5418                 1.5574                 1.3852
 IR Inten    --      7.2179                 5.5128                 5.8261

                     22                     23                     24
                      A                      A                      A
 Frequencies --    769.9632               787.0534               814.0308
 Red. masses --      8.4376                 1.3691                 1.6114
 Frc consts  --      2.9472                 0.4997                 0.6291
 IR Inten    --     30.8034                 2.7731                37.2162

                     25                     26                     27
                      A                      A                      A
 Frequencies --    842.1838               871.0299               909.1429
 Red. masses --      5.5994                 3.0119                 1.4143
 Frc consts  --      2.3399                 1.3464                 0.6887
 IR Inten    --      6.3695                 0.9296                 0.0311

                     28                     29                     30
                      A                      A                      A
 Frequencies --    925.4220               937.9475               987.6142
 Red. masses --      3.3279                 1.4519                 1.2912
 Frc consts  --      1.6792                 0.7526                 0.7420
 IR Inten    --      3.1823                 0.8673                 0.3585

                     31                     32                     33
                      A                      A                      A
 Frequencies --    993.5331              1058.0810              1078.6030
 Red. masses --      3.7605                 2.8118                 2.4027
 Frc consts  --      2.1871                 1.8547                 1.6470
 IR Inten    --     46.7097                 0.8173                14.9342

                     34                     35                     36
                      A                      A                      A
 Frequencies --   1086.4146              1125.5363              1153.5786
 Red. masses --      3.8902                 1.9331                 2.4250
 Frc consts  --      2.7053                 1.4429                 1.9013
 IR Inten    --     32.1045                 3.4425                60.1826

                     37                     38                     39
                      A                      A                      A
 Frequencies --   1190.5766              1198.5143              1240.8451
 Red. masses --      1.9245                 1.3781                 2.2538
 Frc consts  --      1.6073                 1.1663                 2.0446
 IR Inten    --     41.7388                14.9981                 0.1960

                     40                     41                     42
                      A                      A                      A
 Frequencies --   1302.5049              1315.8275              1343.8378
 Red. masses --      1.7814                 1.2660                 1.7277
 Frc consts  --      1.7806                 1.2915                 1.8383
 IR Inten    --     98.0417                15.0671               101.1065

                     43                     44                     45
                      A                      A                      A
 Frequencies --   1402.3794              1432.3009              1434.6266
 Red. masses --      1.4800                 1.5016                 2.6813
 Frc consts  --      1.7149                 1.8149                 3.2514
 IR Inten    --      4.1054                44.0326                 7.7541

                     46                     47                     48
                      A                      A                      A
 Frequencies --   1448.7089              1467.4167              1504.1800
 Red. masses --      1.3061                 3.2865                 1.4975
 Frc consts  --      1.6151                 4.1696                 1.9962
 IR Inten    --     25.8533                26.1666                85.3340

                     49                     50                     51
                      A                      A                      A
 Frequencies --   1508.8597              1533.7364              1540.4219
 Red. masses --      1.3831                 1.0544                 1.0592
 Frc consts  --      1.8552                 1.4614                 1.4809
 IR Inten    --     48.2050                10.1637                 8.9230

                     52                     53                     54
                      A                      A                      A
 Frequencies --   1546.4448              1564.1928              1618.2787
 Red. masses --      1.7143                 3.4093                 6.0960
 Frc consts  --      2.4155                 4.9146                 9.4059
 IR Inten    --     10.5696                56.3904               153.0932

                     55                     56                     57
                      A                      A                      A
 Frequencies --   1693.1298              1835.4483              3044.4933
 Red. masses --      7.1932                12.7650                 1.0608
 Frc consts  --     12.1493                25.3371                 5.7934
 IR Inten    --     79.3361               310.0089                26.1082

                     58                     59                     60
                      A                      A                      A
 Frequencies --   3060.1714              3080.5423              3099.8170
 Red. masses --      1.0354                 1.1021                 1.0680
 Frc consts  --      5.7127                 6.1622                 6.0465
 IR Inten    --     18.0505                14.5409                60.8702

                     61                     62                     63
                      A                      A                      A
 Frequencies --   3124.8208              3135.8829              3194.1919
 Red. masses --      1.1020                 1.1031                 1.1006
 Frc consts  --      6.3401                 6.3911                 6.6160
 IR Inten    --     41.9439                21.0579                 6.8601

                     64                     65                     66
                      A                      A                      A
 Frequencies --   3206.2701              3226.3861              3235.8019
 Red. masses --      1.0881                 1.0928                 1.0949
 Frc consts  --      6.5906                 6.7026                 6.7542
 IR Inten    --      7.8963                 4.8410                 3.1270

 - Thermochemistry -
 -------------------
 Temperature   298.150 Kelvin.  Pressure   1.00000 Atm.
 Atom     1 has atomic number  6 and mass  12.00000

 Molecular mass:   190.07423 amu.
 Principal axes and moments of inertia in atomic units:
                           1         2         3
     Eigenvalues --  1796.705612771.309243971.40917
           X            0.99908  -0.04155   0.01048
           Y            0.04158   0.99913  -0.00219
           Z           -0.01038   0.00263   0.99994
 This molecule is an asymmetric top.
 Rotational symmetry number  1.
 Warning -- assumption of classical behavior for rotation
           may cause significant error
 Rotational temperatures (Kelvin)      0.04821     0.03125     0.02181
 Rotational constants (GHZ):           1.00447     0.65122     0.45443
 Zero-point vibrational energy     495328.9 (Joules/Mol)
                                  118.38646 (Kcal/Mol)
 Warning -- explicit consideration of  17 degrees of freedom as
           vibrations may cause significant error
 Vibrational temperatures:     44.86    87.04   144.73   164.69   275.51
          (Kelvin)            310.72   343.64   365.80   393.98   485.54
                              504.84   598.03   711.80   715.76   741.32
                              773.40   859.92   904.15   932.81  1032.57
                             1035.36  1107.81  1132.39  1171.21  1211.71
                             1253.22  1308.05  1331.48  1349.50  1420.96
                             1429.47  1522.34  1551.87  1563.11  1619.40
                             1659.74  1712.97  1724.39  1785.30  1874.01
                             1893.18  1933.48  2017.71  2060.76  2064.11
                             2084.37  2111.29  2164.18  2170.91  2206.70
                             2216.32  2224.99  2250.52  2328.34  2436.04
                             2640.80  4380.35  4402.90  4432.21  4459.95
                             4495.92  4511.84  4595.73  4613.11  4642.05
                             4655.60

 Zero-point correction=                           0.188661 (Hartree/Particle)
 Thermal correction to Energy=                    0.200582
 Thermal correction to Enthalpy=                  0.201526
 Thermal correction to Gibbs Free Energy=         0.149761
 Sum of electronic and zero-point Energies=           -646.833879
 Sum of electronic and thermal Energies=              -646.821959
 Sum of electronic and thermal Enthalpies=            -646.821014
 Sum of electronic and thermal Free Energies=         -646.872779

                     E (Thermal)             CV                S
                      KCal/Mol        Cal/Mol-Kelvin    Cal/Mol-Kelvin
 Total                  125.867             45.471            108.949
 Electronic               0.000              0.000              0.000
 Translational            0.889              2.981             41.632
 Rotational               0.889              2.981             31.359
 Vibrational            124.089             39.509             35.957
 Vibration     1          0.594              1.983              5.753
 Vibration     2          0.597              1.973              4.441
 Vibration     3          0.604              1.949              3.443
 Vibration     4          0.607              1.937              3.192
 Vibration     5          0.634              1.852              2.213
 Vibration     6          0.645              1.817              1.993
 Vibration     7          0.657              1.781              1.811
 Vibration     8          0.665              1.756              1.701
 Vibration     9          0.676              1.722              1.572
 Vibration    10          0.718              1.601              1.224
 Vibration    11          0.728              1.573              1.162
 Vibration    12          0.779              1.436              0.907
 Vibration    13          0.850              1.262              0.671
 Vibration    14          0.853              1.256              0.664
 Vibration    15          0.870              1.216              0.621
 Vibration    16          0.893              1.167              0.571
 Vibration    17          0.956              1.037              0.454

 Optimization completed.
    -- Stationary point found.
 Normal termination of Gaussian 16 at Thu Dec 10 09:33:53 2020.

 ----------------------------------------------------------------------
 # B3LYP/6-311++G(d,p) empiricaldispersion=gd3bj scf=xqc pop=npa geom=c
 heck
 ----------------------------------------------------------------------

 ---------------------------------------
 CID_152072651_JID_4272_Energie_neutraal
 ---------------------------------------
 Structure from the checkpoint file:  "JID_4272.chk"
 Charge =  0 Multiplicity = 1

 SCF Done:  E(RB3LYP) =  -647.193921116     A.U. after   17 cycles
 Normal termination of Gaussian 16 at Thu Dec 10 09:36:55 2020.

 ----------------------------------------------------------------------
 # B3LYP/6-311++G(d,p) empiricaldispersion=gd3bj scf=xqc pop=npa geom=c
 heck
 ----------------------------------------------------------------------

 -------------------------------------
 CID_152072651_JID_4272_Energie_kation
 -------------------------------------
 Structure from the checkpoint file:  "JID_4272.chk"
 Charge =  1 Multiplicity = 2

 SCF Done:  E(UB3LYP) =  -646.870589165     A.U. after   32 cycles
 Normal termination of Gaussian 16 at Thu Dec 10 09:45:15 2020.
 Gaussian 16:  ES64L-G16RevA.03 25-Dec-2016

 ----------------------------------------------------------------------
 # B3LYP/6-311++G(d,p) empiricaldispersion=gd3bj scf=xqc pop=npa geom=c
 heck
 ----------------------------------------------------------------------

 ------------------------------------
 CID_152072651_JID_4272_Energie_anion
 ------------------------------------
 Structure from the checkpoint file:  "JID_4272.chk"
 Charge = -1 Multiplicity = 2

                         Standard orientation:
 ---------------------------------------------------------------------
 Center     Atomic      Atomic             Coordinates (Angstroms)
 Number     Number       Type             X           Y           Z
 ---------------------------------------------------------------------
      1          6           0        2.471837   -0.274279    1.627704
      2          6           0        3.218355    0.216274    0.384571
      3          6           0        2.361147    0.269922   -0.874658
      4          8           0        1.336882    1.285614   -0.745657
      5          6           0        0.071503    1.037855   -0.391565
      6          6           0       -0.681013    2.228487   -0.169720
      7          6           0       -2.010359    2.204517    0.201341
      8          6           0       -2.688411    0.979270    0.380084
      9          6           0       -1.953161   -0.157814    0.158962
     10          7           0       -2.469783   -1.498482    0.291607
     11          7           0       -1.582877   -2.344500    0.026546
     12          6           0       -0.307786   -1.635794   -0.340873
     13          6           0       -0.598212   -0.186386   -0.226817
     14          8           0        0.670613   -2.272062   -0.655056
     15          1           0        2.062099   -1.276892    1.469151
     16          1           0        1.644804    0.395470    1.886172
     17          1           0        3.143782   -0.315989    2.491227
     18          1           0        3.643618    1.211551    0.564731
     19          1           0        4.061446   -0.453291    0.167594
     20          1           0        2.955349    0.601056   -1.730526
     21          1           0        1.914340   -0.696995   -1.097380
     22          1           0       -0.155583    3.168067   -0.301870
     23          1           0       -2.534558    3.141973    0.360096
     24          1           0       -3.730029    0.925199    0.675264
 ---------------------------------------------------------------------

 SCF Done:  E(UB3LYP) =  -647.262955731     A.U. after   23 cycles

 The electronic state is 2-A.
 Alpha  occ. eigenvalues --  -19.03074 -18.94372 -14.17261 -14.16489 -10.11548
 Alpha  occ. eigenvalues --  -10.10305 -10.09544 -10.06754 -10.05045 -10.04746
 Alpha  occ. eigenvalues --  -10.04711 -10.03696 -10.03566 -10.03269  -0.94933
 Alpha  occ. eigenvalues --   -0.89707  -0.85679  -0.72074  -0.68131  -0.62502
 Alpha  occ. eigenvalues --   -0.62177  -0.57929  -0.53986  -0.50037  -0.48014
 Alpha  occ. eigenvalues --   -0.45277  -0.42611  -0.37513  -0.36770  -0.35099
 Alpha  occ. eigenvalues --   -0.34736  -0.32856  -0.32484  -0.31117  -0.29681
 Alpha  occ. eigenvalues --   -0.28153  -0.27899  -0.25392  -0.24843  -0.24192
 Alpha  occ. eigenvalues --   -0.23965  -0.23434  -0.22103  -0.20759  -0.18797
 Alpha  occ. eigenvalues --   -0.17882  -0.13659  -0.11706  -0.09962  -0.06350
 Alpha  occ. eigenvalues --   -0.00234
 Alpha virt. eigenvalues --    0.07810   0.08965   0.09597   0.10603   0.11271
 Alpha virt. eigenvalues --    0.11521   0.11758   0.13081   0.13668   0.14560
 Alpha virt. eigenvalues --    0.15000   0.15647   0.16294   0.17125   0.17975

  Beta  occ. eigenvalues --  -19.03052 -18.93726 -14.16779 -14.16184 -10.11523
  Beta  occ. eigenvalues --  -10.10307 -10.09355 -10.06753 -10.05046 -10.04640
  Beta  occ. eigenvalues --  -10.04611 -10.03611 -10.03577 -10.03214  -0.94883
  Beta  occ. eigenvalues --   -0.88660  -0.84722  -0.71890  -0.68101  -0.62300
  Beta  occ. eigenvalues --   -0.61865  -0.57683  -0.53126  -0.49841  -0.47812
  Beta  occ. eigenvalues --   -0.44878  -0.42489  -0.37352  -0.36693  -0.34934
  Beta  occ. eigenvalues --   -0.34475  -0.32506  -0.32411  -0.30907  -0.28726
  Beta  occ. eigenvalues --   -0.27795  -0.26913  -0.25290  -0.24743  -0.23894
  Beta  occ. eigenvalues --   -0.23820  -0.22962  -0.20651  -0.20056  -0.17443
  Beta  occ. eigenvalues --   -0.17163  -0.12993  -0.10681  -0.09061  -0.05778
  Beta virt. eigenvalues --    0.06776   0.07807   0.08958   0.09599   0.10606
  Beta virt. eigenvalues --    0.11449   0.11722   0.12171   0.13085   0.13895
  Beta virt. eigenvalues --    0.14858   0.15657   0.16007   0.16399   0.17138

 Mulliken charges and spin densities:
               1          2
     1  C   -0.461497   0.001484
     2  C   -0.279967  -0.001872
     3  C   -0.182437   0.004829
     4  O   -0.099793   0.005099
     5  C   -0.501716   0.016206
     6  C   -0.716359   0.040785
     7  C   -0.206803   0.083521
     8  C   -0.185507  -0.034342
     9  C   -0.616795   0.062036
    10  N   -0.159208   0.221112
    11  N   -0.059281   0.142543
    12  C   -0.524784   0.148088
    13  C    1.890087   0.093912
    14  O   -0.339303   0.232858
    15  H    0.193645  -0.001453
    16  H    0.138763  -0.000186
    17  H    0.116125  -0.000271
    18  H    0.127524   0.000117
    19  H    0.106866   0.000281
    20  H    0.142281  -0.000039
    21  H    0.234819  -0.003119
    22  H    0.129380  -0.005414
    23  H    0.124330  -0.006162
    24  H    0.129628  -0.000013
 Sum of Mulliken charges =  -1.00000   1.00000

 Dipole moment (field-independent basis, Debye):
    X=              5.1003    Y=              6.2533    Z=              0.4977  Tot=              8.0848
 Quadrupole moment (field-independent basis, Debye-Ang):
   XX=           -103.7224   YY=           -114.9040   ZZ=            -89.5053
   XY=             -8.7439   XZ=              1.4034   YZ=             -0.6505

 Summary of Natural Population Analysis:

                                       Natural Population
                Natural  -----------------------------------------------
    Atom  No    Charge         Core      Valence    Rydberg      Total
 -----------------------------------------------------------------------
      C    1   -0.29313      0.99967     2.28863    0.00483     3.29313
      C    2   -0.19824      0.99964     2.19260    0.00600     3.19824
      C    3   -0.01849      0.99954     2.00904    0.00992     3.01849
      O    4   -0.28118      0.99984     3.27007    0.01127     4.28118
      C    5    0.18745      0.99939     1.80077    0.01239     2.81255
      C    6   -0.11839      0.99954     2.10942    0.00942     3.11839
      C    7   -0.07670      0.99958     2.06839    0.00873     3.07670
      C    8   -0.12811      0.99950     2.11847    0.01014     3.12811
      C    9    0.08919      0.99946     1.89920    0.01216     2.91081
      N   10   -0.03373      0.99974     2.51432    0.01966     3.53373
      N   11   -0.08410      0.99977     2.56553    0.01879     3.58410
      C   12    0.33484      0.99966     1.64176    0.02374     2.66516
      C   13   -0.12646      0.99935     2.11507    0.01204     3.12646
      O   14   -0.21691      0.99986     3.20931    0.00774     4.21691
      H   15    0.11063      0.00000     0.38829    0.00108     0.38937
      H   16    0.10314      0.00000     0.39605    0.00081     0.39686
      H   17    0.08995      0.00000     0.40912    0.00092     0.41005
      H   18    0.08991      0.00000     0.40880    0.00130     0.41009
      H   19    0.09234      0.00000     0.40645    0.00121     0.40766
      H   20    0.08074      0.00000     0.41819    0.00107     0.41926
      H   21    0.11317      0.00000     0.38490    0.00194     0.38683
      H   22    0.09534      0.00000     0.40323    0.00143     0.40466
      H   23    0.08977      0.00000     0.40921    0.00102     0.41023
      H   24    0.09897      0.00000     0.39880    0.00224     0.40103
 =======================================================================
   * Total *   -0.00000     13.99455    35.82559    0.17986    50.00000

 Normal termination of Gaussian 16 at Thu Dec 10 09:51:18 2020.
