 Gaussian 16, Revision A.03,

 -----------------------------------------------------------
 # opt freq B3LYP/6-31G(d) empiricaldispersion=gd3bj scf=xqc
 -----------------------------------------------------------

 -------------------------------
 CID_140371596_JID_9452_neutraal
 -------------------------------
 Symbolic Z-matrix:
 Charge =  0 Multiplicity = 1

 SCF Done:  E(RB3LYP) =  -966.065810850     A.U. after   17 cycles
 SCF Done:  E(RB3LYP) =  -966.097201828     A.U. after   14 cycles
 SCF Done:  E(RB3LYP) =  -966.101763201     A.U. after   14 cycles
 SCF Done:  E(RB3LYP) =  -966.103792988     A.U. after   15 cycles
 SCF Done:  E(RB3LYP) =  -966.105481470     A.U. after   13 cycles
 SCF Done:  E(RB3LYP) =  -966.106215326     A.U. after   12 cycles
 SCF Done:  E(RB3LYP) =  -966.106436064     A.U. after   13 cycles
 SCF Done:  E(RB3LYP) =  -966.106510644     A.U. after   12 cycles
 SCF Done:  E(RB3LYP) =  -966.106608596     A.U. after   11 cycles
 SCF Done:  E(RB3LYP) =  -966.106694419     A.U. after   12 cycles
 SCF Done:  E(RB3LYP) =  -966.106866222     A.U. after   11 cycles
 SCF Done:  E(RB3LYP) =  -966.106866978     A.U. after    9 cycles
 SCF Done:  E(RB3LYP) =  -966.106867397     A.U. after   10 cycles
 SCF Done:  E(RB3LYP) =  -966.106867718     A.U. after    8 cycles
 SCF Done:  E(RB3LYP) =  -966.106867871     A.U. after    8 cycles
 SCF Done:  E(RB3LYP) =  -966.106867899     A.U. after    7 cycles
 Optimization completed.
    -- Stationary point found.
 Normal termination of Gaussian 16 at Sat Dec 12 09:46:54 2020.

 --------------------------------------------------------------------
 #N Geom=AllCheck Guess=TCheck SCRF=Check GenChk RB3LYP/6-31G(d) Freq
 --------------------------------------------------------------------

 Structure from the checkpoint file:  "JID_9452.chk"
 -------------------------------
 CID_140371596_JID_9452_neutraal
 -------------------------------
 Charge =  0 Multiplicity = 1

 SCF Done:  E(RB3LYP) =  -966.106867899     A.U. after    1 cycles

  Exact polarizability: 157.475   6.755 173.475   0.273   0.981 111.504
 Approx polarizability: 213.789  20.466 278.478  -6.037   3.094 180.014

                      1                      2                      3
                      A                      A                      A
 Frequencies --     18.5687                39.4585                43.3194
 Red. masses --      3.3948                 5.7944                 8.3332
 Frc consts  --      0.0007                 0.0053                 0.0092
 IR Inten    --      0.4140                 0.1459                 1.3370

                      4                      5                      6
                      A                      A                      A
 Frequencies --     75.5024                80.7952                93.6090
 Red. masses --      4.9431                 3.9095                 3.9685
 Frc consts  --      0.0166                 0.0150                 0.0205
 IR Inten    --      2.6196                 1.6369                 2.5029

                      7                      8                      9
                      A                      A                      A
 Frequencies --    105.8317               128.1454               148.8035
 Red. masses --      4.9518                 1.3904                 2.1898
 Frc consts  --      0.0327                 0.0135                 0.0286
 IR Inten    --      0.6813                 0.6473                 0.6514

                     10                     11                     12
                      A                      A                      A
 Frequencies --    170.1155               187.8079               209.7929
 Red. masses --      2.1721                 4.3340                 3.5237
 Frc consts  --      0.0370                 0.0901                 0.0914
 IR Inten    --      3.5406                 4.1976                 4.5927

                     13                     14                     15
                      A                      A                      A
 Frequencies --    244.2490               258.0392               293.9796
 Red. masses --      6.5105                 3.1365                 2.6649
 Frc consts  --      0.2288                 0.1230                 0.1357
 IR Inten    --     10.7065                 1.4458                 3.2850

                     16                     17                     18
                      A                      A                      A
 Frequencies --    297.1716               330.4335               342.4024
 Red. masses --      6.6679                 4.8945                11.8433
 Frc consts  --      0.3469                 0.3149                 0.8181
 IR Inten    --      0.4279                 1.7454                12.8074

                     19                     20                     21
                      A                      A                      A
 Frequencies --    367.0524               400.9430               419.9935
 Red. masses --      5.7976                 2.8968                 5.3929
 Frc consts  --      0.4602                 0.2744                 0.5605
 IR Inten    --      2.2967                11.1160                 3.3607

                     22                     23                     24
                      A                      A                      A
 Frequencies --    442.9924               471.3309               497.5211
 Red. masses --     12.7186                 3.7976                12.0385
 Frc consts  --      1.4706                 0.4971                 1.7557
 IR Inten    --     30.3548                12.3713                 1.2056

                     25                     26                     27
                      A                      A                      A
 Frequencies --    523.3380               531.2517               567.2321
 Red. masses --      9.0447                 7.2065                 4.9586
 Frc consts  --      1.4595                 1.1983                 0.9400
 IR Inten    --      2.9801                 4.3461                 3.2301

                     28                     29                     30
                      A                      A                      A
 Frequencies --    606.2479               628.2711               692.0888
 Red. masses --      3.9325                14.3747                 9.7581
 Frc consts  --      0.8516                 3.3430                 2.7538
 IR Inten    --      1.6536                 2.1809                11.6551

                     31                     32                     33
                      A                      A                      A
 Frequencies --    726.4775               741.6293               763.9310
 Red. masses --      9.9282                13.7444                 2.8409
 Frc consts  --      3.0872                 4.4540                 0.9768
 IR Inten    --      1.8401                 0.4517                15.8187

                     34                     35                     36
                      A                      A                      A
 Frequencies --    788.3514               803.5047               887.1287
 Red. masses --     12.2641                 3.7927                 1.4070
 Frc consts  --      4.4908                 1.4427                 0.6524
 IR Inten    --      0.1341                17.8653                24.1779

                     37                     38                     39
                      A                      A                      A
 Frequencies --    917.3412               942.4342               958.1941
 Red. masses --      5.2130                 3.5739                 4.3588
 Frc consts  --      2.5846                 1.8702                 2.3579
 IR Inten    --     48.8716                44.0733                16.2895

                     40                     41                     42
                      A                      A                      A
 Frequencies --    970.6843               987.2100              1032.4884
 Red. masses --      6.4579                 3.9340                 2.5342
 Frc consts  --      3.5851                 2.2589                 1.5917
 IR Inten    --     32.8947                26.9009                24.8296

                     43                     44                     45
                      A                      A                      A
 Frequencies --   1077.5667              1092.3185              1104.6034
 Red. masses --      1.9879                 3.9634                 2.3486
 Frc consts  --      1.3600                 2.7862                 1.6884
 IR Inten    --     62.5811               204.4333                62.1431

                     46                     47                     48
                      A                      A                      A
 Frequencies --   1122.3615              1138.0394              1156.4697
 Red. masses --      4.9049                 6.3589                 6.1833
 Frc consts  --      3.6404                 4.8523                 4.8724
 IR Inten    --     41.8293               109.7960                65.9369

                     49                     50                     51
                      A                      A                      A
 Frequencies --   1159.5629              1187.7987              1226.4384
 Red. masses --      1.3225                 1.2610                 1.5454
 Frc consts  --      1.0477                 1.0482                 1.3696
 IR Inten    --     10.5471                 0.8505                12.1497

                     52                     53                     54
                      A                      A                      A
 Frequencies --   1231.6394              1255.2621              1260.8624
 Red. masses --      1.5783                 2.3881                 1.9983
 Frc consts  --      1.4106                 2.2170                 1.8717
 IR Inten    --     21.7689               114.5095                50.1402

                     55                     56                     57
                      A                      A                      A
 Frequencies --   1283.3748              1291.7139              1344.7698
 Red. masses --      8.3938                 2.2887                 1.4713
 Frc consts  --      8.1455                 2.2499                 1.5676
 IR Inten    --    596.1620                61.8241                65.7574

                     58                     59                     60
                      A                      A                      A
 Frequencies --   1394.5125              1420.3213              1449.5745
 Red. masses --      1.5703                 1.8817                 1.9888
 Frc consts  --      1.7992                 2.2365                 2.4622
 IR Inten    --     11.5688                14.9133                41.0194

                     61                     62                     63
                      A                      A                      A
 Frequencies --   1481.5408              1495.5476              1498.7170
 Red. masses --      1.1598                 1.1323                 1.2238
 Frc consts  --      1.4999                 1.4921                 1.6195
 IR Inten    --      4.7133                 4.9564                 6.3231

                     64                     65                     66
                      A                      A                      A
 Frequencies --   1503.6475              1523.1821              1533.5244
 Red. masses --      1.0505                 1.0523                 1.0632
 Frc consts  --      1.3994                 1.4385                 1.4732
 IR Inten    --      5.3455                18.5655                11.0530

                     67                     68                     69
                      A                      A                      A
 Frequencies --   1536.7804              1547.9101              1687.7500
 Red. masses --      1.0495                 1.1259                 8.8206
 Frc consts  --      1.4604                 1.5895                14.8035
 IR Inten    --     24.8875                 2.7412               113.9037

                     70                     71                     72
                      A                      A                      A
 Frequencies --   1723.4408              1905.6324              1937.9211
 Red. masses --      7.8208                13.1786                13.1273
 Frc consts  --     13.6866                28.1966                29.0467
 IR Inten    --     25.4472               139.3397               481.3705

                     73                     74                     75
                      A                      A                      A
 Frequencies --   2377.6138              2987.9944              3013.9094
 Red. masses --     12.7033                 1.0732                 1.0567
 Frc consts  --     42.3107                 5.6452                 5.6555
 IR Inten    --      3.9576                48.6406                72.0574

                     76                     77                     78
                      A                      A                      A
 Frequencies --   3035.7837              3053.4987              3093.3765
 Red. masses --      1.0673                 1.0299                 1.0948
 Frc consts  --      5.7956                 5.6579                 6.1723
 IR Inten    --     16.4924                72.7433                23.4040

                     79                     80                     81
                      A                      A                      A
 Frequencies --   3103.1107              3108.0734              3126.4741
 Red. masses --      1.0918                 1.0879                 1.1077
 Frc consts  --      6.1941                 6.1918                 6.3794
 IR Inten    --      2.0176                64.8446                27.9327

                     82                     83                     84
                      A                      A                      A
 Frequencies --   3163.4819              3233.3701              3244.1739
 Red. masses --      1.1053                 1.0911                 1.0937
 Frc consts  --      6.5170                 6.7209                 6.7823
 IR Inten    --     20.7212                 0.5635                 2.0933

 - Thermochemistry -
 -------------------
 Temperature   298.150 Kelvin.  Pressure   1.00000 Atm.
 Atom     1 has atomic number  6 and mass  12.00000

 Molecular mass:   265.06987 amu.
 Principal axes and moments of inertia in atomic units:
                           1         2         3
     Eigenvalues --  3306.374145952.043497367.39784
           X            0.99990  -0.00403   0.01357
           Y            0.00389   0.99994   0.01037
           Z           -0.01361  -0.01031   0.99985
 This molecule is an asymmetric top.
 Rotational symmetry number  1.
 Warning -- assumption of classical behavior for rotation
           may cause significant error
 Rotational temperatures (Kelvin)      0.02620     0.01455     0.01176
 Rotational constants (GHZ):           0.54584     0.30321     0.24496
 Zero-point vibrational energy     585268.8 (Joules/Mol)
                                  139.88261 (Kcal/Mol)
 Warning -- explicit consideration of  28 degrees of freedom as
           vibrations may cause significant error
 Vibrational temperatures:     26.72    56.77    62.33   108.63   116.25
          (Kelvin)            134.68   152.27   184.37   214.10   244.76
                              270.21   301.85   351.42   371.26   422.97
                              427.56   475.42   492.64   528.11   576.87
                              604.28   637.37   678.14   715.82   752.97
                              764.35   816.12   872.26   903.94   995.76
                             1045.24  1067.04  1099.13  1134.26  1156.06
                             1276.38  1319.85  1355.95  1378.63  1396.60
                             1420.38  1485.52  1550.38  1571.60  1589.28
                             1614.83  1637.38  1663.90  1668.35  1708.98
                             1764.57  1772.05  1806.04  1814.10  1846.49
                             1858.49  1934.82  2006.39  2043.53  2085.61
                             2131.61  2151.76  2156.32  2163.41  2191.52
                             2206.40  2211.08  2227.10  2428.30  2479.65
                             2741.78  2788.24  3420.86  4299.06  4336.34
                             4367.82  4393.30  4450.68  4464.68  4471.82
                             4498.30  4551.54  4652.10  4667.64

 Zero-point correction=                           0.222917 (Hartree/Particle)
 Thermal correction to Energy=                    0.240798
 Thermal correction to Enthalpy=                  0.241743
 Thermal correction to Gibbs Free Energy=         0.175256
 Sum of electronic and zero-point Energies=           -965.883951
 Sum of electronic and thermal Energies=              -965.866070
 Sum of electronic and thermal Enthalpies=            -965.865125
 Sum of electronic and thermal Free Energies=         -965.931611

                     E (Thermal)             CV                S
                      KCal/Mol        Cal/Mol-Kelvin    Cal/Mol-Kelvin
 Total                  151.103             64.658            139.932
 Electronic               0.000              0.000              0.000
 Translational            0.889              2.981             42.624
 Rotational               0.889              2.981             33.338
 Vibrational            149.326             58.696             63.970
 Vibration     1          0.593              1.986              6.782
 Vibration     2          0.594              1.981              5.286
 Vibration     3          0.595              1.980              5.101
 Vibration     4          0.599              1.965              4.005
 Vibration     5          0.600              1.962              3.871
 Vibration     6          0.603              1.954              3.583
 Vibration     7          0.605              1.945              3.344
 Vibration     8          0.611              1.925              2.974
 Vibration     9          0.618              1.904              2.687
 Vibration    10          0.625              1.879              2.434
 Vibration    11          0.632              1.857              2.249
 Vibration    12          0.642              1.826              2.045
 Vibration    13          0.660              1.772              1.772
 Vibration    14          0.667              1.749              1.675
 Vibration    15          0.689              1.685              1.451
 Vibration    16          0.691              1.679              1.433
 Vibration    17          0.713              1.615              1.258
 Vibration    18          0.722              1.591              1.201
 Vibration    19          0.740              1.540              1.092
 Vibration    20          0.767              1.468              0.959
 Vibration    21          0.783              1.427              0.892
 Vibration    22          0.803              1.376              0.817
 Vibration    23          0.828              1.314              0.734
 Vibration    24          0.853              1.256              0.664
 Vibration    25          0.878              1.198              0.602
 Vibration    26          0.886              1.181              0.584
 Vibration    27          0.923              1.102              0.510
 Vibration    28          0.965              1.019              0.439

                           ! Non-Optimized Parameters !
 Normal termination of Gaussian 16 at Sat Dec 12 10:01:47 2020.

 ----------------------------------------------------------------------
 # B3LYP/6-311++G(d,p) empiricaldispersion=gd3bj scf=xqc pop=npa geom=c
 heck
 ----------------------------------------------------------------------

 ---------------------------------------
 CID_140371596_JID_9452_Energie_neutraal
 ---------------------------------------
 Structure from the checkpoint file:  "JID_9452.chk"
 Charge =  0 Multiplicity = 1

 SCF Done:  E(RB3LYP) =  -966.377976958     A.U. after   16 cycles
 Normal termination of Gaussian 16 at Sat Dec 12 10:07:57 2020.

 ----------------------------------------------------------------------
 # B3LYP/6-311++G(d,p) empiricaldispersion=gd3bj scf=xqc pop=npa geom=c
 heck
 ----------------------------------------------------------------------

 -------------------------------------
 CID_140371596_JID_9452_Energie_kation
 -------------------------------------
 Structure from the checkpoint file:  "JID_9452.chk"
 Charge =  1 Multiplicity = 2

 SCF Done:  E(UB3LYP) =  -966.080691611     A.U. after   24 cycles
 Normal termination of Gaussian 16 at Sat Dec 12 10:21:06 2020.
 Gaussian 16:  ES64L-G16RevA.03 25-Dec-2016

 ----------------------------------------------------------------------
 # B3LYP/6-311++G(d,p) empiricaldispersion=gd3bj scf=xqc pop=npa geom=c
 heck
 ----------------------------------------------------------------------

 ------------------------------------
 CID_140371596_JID_9452_Energie_anion
 ------------------------------------
 Structure from the checkpoint file:  "JID_9452.chk"
 Charge = -1 Multiplicity = 2

                         Standard orientation:
 ---------------------------------------------------------------------
 Center     Atomic      Atomic             Coordinates (Angstroms)
 Number     Number       Type             X           Y           Z
 ---------------------------------------------------------------------
      1          6           0       -3.682511    0.615110   -0.940615
      2          7           0       -2.504917    1.022174   -0.169414
      3          6           0       -2.167543    2.434744   -0.384028
      4          6           0       -1.182158    2.951229    0.657165
      5          6           0       -0.006705    2.029528    0.752095
      6          6           0       -0.142147    0.737457    0.424216
      7          6           0       -1.447078    0.150187    0.035804
      8          7           0       -1.394774   -1.145475    0.038623
      9          8           0       -2.583596   -1.827075   -0.188579
     10          6           0       -2.297090   -3.225540   -0.154151
     11          6           0        1.040011   -0.209136    0.501848
     12          8           0        1.311393   -0.779767   -0.795595
     13          6           0        2.559368   -0.430827   -1.204702
     14          8           0        3.053543   -0.741141   -2.246923
     15          6           0        3.165688    0.426062   -0.094172
     16          8           0        4.238966    0.945408   -0.051830
     17          8           0        2.220747    0.514241    0.886971
     18          6           0        0.888202   -1.307218    1.479258
     19          7           0        0.876168   -2.127236    2.298547
     20          1           0       -3.996629   -0.383145   -0.657902
     21          1           0       -3.481893    0.632358   -2.023024
     22          1           0       -4.487336    1.324989   -0.727838
     23          1           0       -1.749551    2.582468   -1.394041
     24          1           0       -3.101355    3.001500   -0.332559
     25          1           0       -0.858707    3.962914    0.388250
     26          1           0       -1.670581    3.025466    1.639632
     27          1           0        0.943232    2.409355    1.109734
     28          1           0       -1.606410   -3.498999   -0.959207
     29          1           0       -1.863350   -3.504484    0.811413
     30          1           0       -3.259414   -3.721559   -0.297399
 ---------------------------------------------------------------------

 SCF Done:  E(UB3LYP) =  -966.412665122     A.U. after   25 cycles

 The electronic state is 2-A.
 Alpha  occ. eigenvalues --  -19.06229 -19.04397 -19.04054 -18.96133 -18.95730
 Alpha  occ. eigenvalues --  -14.24659 -14.23035 -14.20183 -10.21959 -10.14126
 Alpha  occ. eigenvalues --  -10.13930 -10.13853 -10.12209 -10.12016 -10.10955
 Alpha  occ. eigenvalues --  -10.10017 -10.09004 -10.08113 -10.06779  -1.01951
 Alpha  occ. eigenvalues --   -0.98729  -0.94242  -0.90761  -0.87477  -0.86856
 Alpha  occ. eigenvalues --   -0.79676  -0.76493  -0.72456  -0.67339  -0.62847
 Alpha  occ. eigenvalues --   -0.61647  -0.58010  -0.55041  -0.51272  -0.50165
 Alpha  occ. eigenvalues --   -0.48089  -0.45981  -0.43611  -0.42692  -0.41220
 Alpha  occ. eigenvalues --   -0.39272  -0.36880  -0.36310  -0.35915  -0.34598
 Alpha  occ. eigenvalues --   -0.33608  -0.33453  -0.31827  -0.31585  -0.30803
 Alpha  occ. eigenvalues --   -0.29544  -0.29007  -0.28645  -0.28493  -0.28115
 Alpha  occ. eigenvalues --   -0.27419  -0.26258  -0.26009  -0.24623  -0.23638
 Alpha  occ. eigenvalues --   -0.22832  -0.21445  -0.19067  -0.18614  -0.16810
 Alpha  occ. eigenvalues --   -0.16573  -0.15686  -0.12211  -0.11137   0.02911
 Alpha virt. eigenvalues --    0.06017   0.06203   0.07388   0.08280   0.09049
 Alpha virt. eigenvalues --    0.09960   0.10586   0.11413   0.11538   0.11802
 Alpha virt. eigenvalues --    0.12446   0.12782   0.12974   0.13731   0.14110

  Beta  occ. eigenvalues --  -19.06211 -19.04271 -19.03961 -18.95726 -18.95312
  Beta  occ. eigenvalues --  -14.24653 -14.22891 -14.20176 -10.21966 -10.13921
  Beta  occ. eigenvalues --  -10.13866 -10.13592 -10.12204 -10.12017 -10.10956
  Beta  occ. eigenvalues --  -10.09979 -10.09022 -10.08046 -10.06554  -1.01650
  Beta  occ. eigenvalues --   -0.98635  -0.93851  -0.90094  -0.86923  -0.86794
  Beta  occ. eigenvalues --   -0.79636  -0.76355  -0.72237  -0.67177  -0.62705
  Beta  occ. eigenvalues --   -0.61507  -0.57983  -0.54931  -0.50507  -0.49706
  Beta  occ. eigenvalues --   -0.47834  -0.45795  -0.43500  -0.42562  -0.41106
  Beta  occ. eigenvalues --   -0.39200  -0.36779  -0.36139  -0.35798  -0.34473
  Beta  occ. eigenvalues --   -0.33465  -0.33024  -0.31714  -0.30536  -0.30253
  Beta  occ. eigenvalues --   -0.29204  -0.28642  -0.28263  -0.28119  -0.27752
  Beta  occ. eigenvalues --   -0.26974  -0.26091  -0.25832  -0.24492  -0.23357
  Beta  occ. eigenvalues --   -0.22756  -0.21147  -0.17524  -0.17251  -0.16425
  Beta  occ. eigenvalues --   -0.16355  -0.15074  -0.11720  -0.10608
  Beta virt. eigenvalues --    0.06004   0.07258   0.07560   0.08261   0.09051
  Beta virt. eigenvalues --    0.09952   0.10335   0.10597   0.11431   0.11570
  Beta virt. eigenvalues --    0.11937   0.12496   0.12786   0.12979   0.13760

 Mulliken charges and spin densities:
               1          2
     1  C   -0.377345  -0.003971
     2  N    0.110489  -0.007143
     3  C   -0.287102  -0.001024
     4  C   -0.714550  -0.024352
     5  C   -0.332155   0.198461
     6  C    1.351623   0.025585
     7  C   -1.139594   0.001094
     8  N   -0.544139   0.066188
     9  O    0.243221   0.004318
    10  C   -0.267401  -0.000239
    11  C    0.109920   0.132363
    12  O    0.065437   0.008802
    13  C    0.172685   0.171544
    14  O   -0.404606   0.140372
    15  C    0.171586   0.195908
    16  O   -0.400818   0.135148
    17  O    0.046696   0.005058
    18  C   -0.184517  -0.059035
    19  N   -0.284905  -0.008836
    20  H    0.172217  -0.000356
    21  H    0.144205   0.004322
    22  H    0.118194   0.001126
    23  H    0.140796  -0.000402
    24  H    0.136936   0.001121
    25  H    0.153390   0.001930
    26  H    0.139649   0.018771
    27  H    0.226451  -0.009311
    28  H    0.154584   0.000733
    29  H    0.155930   0.001966
    30  H    0.123122  -0.000142
 Sum of Mulliken charges =  -1.00000   1.00000

 Dipole moment (field-independent basis, Debye):
    X=            -12.3078    Y=              3.0752    Z=              0.4218  Tot=             12.6931
 Quadrupole moment (field-independent basis, Debye-Ang):
   XX=           -163.6882   YY=           -117.8379   ZZ=           -135.1534
   XY=             -2.8299   XZ=             11.2538   YZ=              2.9382

 Summary of Natural Population Analysis:

                                       Natural Population
                Natural  -----------------------------------------------
    Atom  No    Charge         Core      Valence    Rydberg      Total
 -----------------------------------------------------------------------
      C    1   -0.17561      0.99965     2.16952    0.00644     3.17561
      N    2   -0.25676      0.99965     2.74660    0.01051     3.75676
      C    3   -0.07405      0.99963     2.06619    0.00824     3.07405
      C    4   -0.20949      0.99962     2.20306    0.00681     3.20949
      C    5   -0.02298      0.99948     2.01589    0.00761     3.02298
      C    6   -0.04674      0.99938     2.03346    0.01390     3.04674
      C    7    0.19720      0.99953     1.78379    0.01947     2.80280
      N    8   -0.09530      0.99961     2.58084    0.01485     3.59530
      O    9   -0.22805      0.99989     3.21562    0.01254     4.22805
      C   10   -0.09361      0.99963     2.08544    0.00854     3.09361
      C   11    0.24805      0.99942     1.73229    0.02023     2.75195
      O   12   -0.26488      0.99985     3.25678    0.00825     4.26488
      C   13    0.37989      0.99966     1.59310    0.02735     2.62011
      O   14   -0.24448      0.99986     3.23767    0.00694     4.24448
      C   15    0.38225      0.99967     1.59084    0.02725     2.61775
      O   16   -0.24478      0.99986     3.23799    0.00692     4.24478
      O   17   -0.27141      0.99986     3.26281    0.00874     4.27141
      C   18    0.16161      0.99957     1.81754    0.02128     2.83839
      N   19   -0.18089      0.99979     2.66962    0.01148     3.68089
      H   20    0.11628      0.00000     0.38275    0.00096     0.38372
      H   21    0.08406      0.00000     0.41472    0.00122     0.41594
      H   22    0.08703      0.00000     0.41201    0.00096     0.41297
      H   23    0.08650      0.00000     0.41226    0.00124     0.41350
      H   24    0.09155      0.00000     0.40721    0.00123     0.40845
      H   25    0.10224      0.00000     0.39664    0.00112     0.39776
      H   26    0.10449      0.00000     0.39421    0.00130     0.39551
      H   27    0.11054      0.00000     0.38852    0.00095     0.38946
      H   28    0.08650      0.00000     0.41230    0.00120     0.41350
      H   29    0.08949      0.00000     0.40899    0.00152     0.41051
      H   30    0.08133      0.00000     0.41792    0.00075     0.41867
 =======================================================================
   * Total *    0.00000     18.99361    49.74658    0.25981    69.00000

 Normal termination of Gaussian 16 at Sat Dec 12 10:34:43 2020.
