 Gaussian 16, Revision A.03,

 -----------------------------------------------------------
 # opt freq B3LYP/6-31G(d) empiricaldispersion=gd3bj scf=xqc
 -----------------------------------------------------------

 ------------------------------
 CID_63608707_JID_4854_neutraal
 ------------------------------
 Symbolic Z-matrix:
 Charge =  0 Multiplicity = 1

 SCF Done:  E(RB3LYP) =  -653.107462782     A.U. after   14 cycles
 SCF Done:  E(RB3LYP) =  -653.112188160     A.U. after   12 cycles
 SCF Done:  E(RB3LYP) =  -653.112609157     A.U. after   12 cycles
 SCF Done:  E(RB3LYP) =  -653.112936660     A.U. after   12 cycles
 SCF Done:  E(RB3LYP) =  -653.113186602     A.U. after   10 cycles
 SCF Done:  E(RB3LYP) =  -653.113337184     A.U. after   11 cycles
 SCF Done:  E(RB3LYP) =  -653.113588537     A.U. after   12 cycles
 SCF Done:  E(RB3LYP) =  -653.113673693     A.U. after   12 cycles
 SCF Done:  E(RB3LYP) =  -653.113715999     A.U. after   11 cycles
 SCF Done:  E(RB3LYP) =  -653.113740972     A.U. after   11 cycles
 SCF Done:  E(RB3LYP) =  -653.113743472     A.U. after    9 cycles
 SCF Done:  E(RB3LYP) =  -653.113743974     A.U. after    7 cycles
 Optimization completed.
    -- Stationary point found.
 Normal termination of Gaussian 16 at Thu Dec 10 10:42:53 2020.

 --------------------------------------------------------------------
 #N Geom=AllCheck Guess=TCheck SCRF=Check GenChk RB3LYP/6-31G(d) Freq
 --------------------------------------------------------------------

 Structure from the checkpoint file:  "JID_4854.chk"
 ------------------------------
 CID_63608707_JID_4854_neutraal
 ------------------------------
 Charge =  0 Multiplicity = 1

 SCF Done:  E(RB3LYP) =  -653.113743974     A.U. after    1 cycles

  Exact polarizability: 123.150   0.539 122.290   2.466  -0.702 115.423
 Approx polarizability: 159.408  -4.086 173.586   3.951  -3.755 179.887

                      1                      2                      3
                      A                      A                      A
 Frequencies --     35.8439                50.4611                75.1845
 Red. masses --      4.0329                 6.8709                 5.4758
 Frc consts  --      0.0031                 0.0103                 0.0182
 IR Inten    --      0.4417                 1.8034                 1.2127

                      4                      5                      6
                      A                      A                      A
 Frequencies --     89.6010               151.8792               181.0549
 Red. masses --      3.4187                 2.6304                 2.9475
 Frc consts  --      0.0162                 0.0357                 0.0569
 IR Inten    --      0.1435                 0.8228                 1.4660

                      7                      8                      9
                      A                      A                      A
 Frequencies --    200.8596               211.4712               217.6012
 Red. masses --      2.0446                 1.4093                 1.1775
 Frc consts  --      0.0486                 0.0371                 0.0328
 IR Inten    --      1.1690                 0.3492                 0.2483

                     10                     11                     12
                      A                      A                      A
 Frequencies --    263.9820               281.2476               316.4716
 Red. masses --      2.6040                 1.3240                 2.0405
 Frc consts  --      0.1069                 0.0617                 0.1204
 IR Inten    --      1.7850                 0.3710                 1.5470

                     13                     14                     15
                      A                      A                      A
 Frequencies --    340.8766               361.2397               392.6995
 Red. masses --      2.0769                 2.4005                 2.2497
 Frc consts  --      0.1422                 0.1846                 0.2044
 IR Inten    --      0.9909                 0.2151                 9.2878

                     16                     17                     18
                      A                      A                      A
 Frequencies --    403.5185               432.4616               438.2239
 Red. masses --      2.3755                 2.2782                 2.2985
 Frc consts  --      0.2279                 0.2510                 0.2601
 IR Inten    --      1.8325                 0.8006                 2.9680

                     19                     20                     21
                      A                      A                      A
 Frequencies --    492.5787               499.7523               514.5144
 Red. masses --      2.3561                 2.4096                 2.6292
 Frc consts  --      0.3368                 0.3546                 0.4101
 IR Inten    --      0.5376                 3.1672                 3.4085

                     22                     23                     24
                      A                      A                      A
 Frequencies --    524.4341               548.7782               623.4218
 Red. masses --      3.1357                 2.6220                 2.3328
 Frc consts  --      0.5081                 0.4652                 0.5342
 IR Inten    --     10.9319                38.2949                 1.8676

                     25                     26                     27
                      A                      A                      A
 Frequencies --    637.8481               718.5805               729.9640
 Red. masses --      2.0981                 1.8774                 2.9030
 Frc consts  --      0.5029                 0.5712                 0.9114
 IR Inten    --     29.2806                74.5101                44.8068

                     28                     29                     30
                      A                      A                      A
 Frequencies --    804.4959               817.8973               845.8037
 Red. masses --      2.5071                 2.7530                 2.7970
 Frc consts  --      0.9560                 1.0851                 1.1789
 IR Inten    --      6.1792                 6.0098                 1.4892

                     31                     32                     33
                      A                      A                      A
 Frequencies --    910.2837               921.5234               937.0501
 Red. masses --      2.2661                 1.9247                 2.3927
 Frc consts  --      1.1063                 0.9630                 1.2379
 IR Inten    --      5.8638                 2.8401                 1.0822

                     34                     35                     36
                      A                      A                      A
 Frequencies --    961.9930               973.3701               994.8773
 Red. masses --      1.4173                 2.1135                 2.5296
 Frc consts  --      0.7728                 1.1798                 1.4752
 IR Inten    --      1.8341                16.3630                 3.4229

                     37                     38                     39
                      A                      A                      A
 Frequencies --   1029.1241              1039.1992              1045.8602
 Red. masses --      1.5884                 1.7322                 2.3467
 Frc consts  --      0.9912                 1.1021                 1.5124
 IR Inten    --      5.0513                 8.0555                14.3848

                     40                     41                     42
                      A                      A                      A
 Frequencies --   1056.3474              1080.2486              1131.8215
 Red. masses --      1.9778                 1.8480                 2.0485
 Frc consts  --      1.3003                 1.2706                 1.5461
 IR Inten    --     28.7672                 2.9131               110.6012

                     43                     44                     45
                      A                      A                      A
 Frequencies --   1153.4606              1163.8844              1178.4147
 Red. masses --      2.0183                 1.4544                 2.1001
 Frc consts  --      1.5821                 1.1608                 1.7182
 IR Inten    --     17.2041                 1.8371               115.2742

                     46                     47                     48
                      A                      A                      A
 Frequencies --   1189.3364              1211.0496              1229.3889
 Red. masses --      2.4190                 2.2508                 1.5603
 Frc consts  --      2.0160                 1.9450                 1.3894
 IR Inten    --     92.0614                 6.2503                26.1110

                     49                     50                     51
                      A                      A                      A
 Frequencies --   1251.9800              1255.6581              1282.8530
 Red. masses --      2.0116                 1.3270                 2.1755
 Frc consts  --      1.8577                 1.2328                 2.1094
 IR Inten    --     11.4026                11.3734                15.7692

                     52                     53                     54
                      A                      A                      A
 Frequencies --   1293.3895              1320.7614              1346.6592
 Red. masses --      2.3150                 1.5483                 1.5141
 Frc consts  --      2.2817                 1.5913                 1.6178
 IR Inten    --     35.4310                 4.2705                 9.2033

                     55                     56                     57
                      A                      A                      A
 Frequencies --   1357.3511              1381.2577              1396.6001
 Red. masses --      1.4026                 1.5471                 1.4203
 Frc consts  --      1.5226                 1.7391                 1.6322
 IR Inten    --      9.4290                33.4441                29.5690

                     58                     59                     60
                      A                      A                      A
 Frequencies --   1403.5139              1410.5122              1419.7024
 Red. masses --      1.3654                 1.3560                 1.3128
 Frc consts  --      1.5847                 1.5895                 1.5590
 IR Inten    --     38.1665                 6.0011                24.0291

                     61                     62                     63
                      A                      A                      A
 Frequencies --   1428.6410              1434.7283              1448.2784
 Red. masses --      1.4697                 1.3929                 1.2964
 Frc consts  --      1.7674                 1.6893                 1.6022
 IR Inten    --     15.5454                 8.8272                 8.4944

                     64                     65                     66
                      A                      A                      A
 Frequencies --   1485.6585              1496.5121              1504.6079
 Red. masses --      1.1458                 1.1312                 1.0826
 Frc consts  --      1.4900                 1.4926                 1.4439
 IR Inten    --      0.5420                 9.4753                 7.2162

                     67                     68                     69
                      A                      A                      A
 Frequencies --   1508.9316              1516.4102              1517.7548
 Red. masses --      1.0774                 1.0728                 1.0764
 Frc consts  --      1.4453                 1.4534                 1.4609
 IR Inten    --      6.8157                 1.1926                 6.0584

                     70                     71                     72
                      A                      A                      A
 Frequencies --   1524.7148              1528.7393              1536.7985
 Red. masses --      1.0732                 1.0563                 1.0536
 Frc consts  --      1.4700                 1.4545                 1.4661
 IR Inten    --      3.5846                 1.1991                 2.4291

                     73                     74                     75
                      A                      A                      A
 Frequencies --   1540.6772              1549.3039              1559.9141
 Red. masses --      1.0842                 1.0574                 1.0570
 Frc consts  --      1.5163                 1.4954                 1.5154
 IR Inten    --     14.3123                 7.8770                 0.8385

                     76                     77                     78
                      A                      A                      A
 Frequencies --   1839.8103              2928.1651              2936.7275
 Red. masses --      9.3139                 1.0717                 1.0707
 Frc consts  --     18.5749                 5.4137                 5.4408
 IR Inten    --    214.4683                33.7544                37.9559

                     79                     80                     81
                      A                      A                      A
 Frequencies --   2971.1339              3054.0893              3056.1108
 Red. masses --      1.0612                 1.0646                 1.0359
 Frc consts  --      5.5195                 5.8505                 5.7005
 IR Inten    --    103.5397                14.9374                17.1282

                     82                     83                     84
                      A                      A                      A
 Frequencies --   3059.8235              3063.8170              3064.3766
 Red. masses --      1.0662                 1.0501                 1.0599
 Frc consts  --      5.8813                 5.8079                 5.8643
 IR Inten    --      8.4078                14.7969                41.4859

                     85                     86                     87
                      A                      A                      A
 Frequencies --   3071.7110              3087.9808              3093.3627
 Red. masses --      1.0738                 1.0749                 1.0875
 Frc consts  --      5.9697                 6.0391                 6.1311
 IR Inten    --     69.1052                54.6655                 6.3958

                     88                     89                     90
                      A                      A                      A
 Frequencies --   3105.4159              3107.9594              3123.2791
 Red. masses --      1.1050                 1.1049                 1.1020
 Frc consts  --      6.2786                 6.2884                 6.3334
 IR Inten    --     14.2592                33.7424                14.0904

                     91                     92                     93
                      A                      A                      A
 Frequencies --   3127.6098              3131.7362              3135.6753
 Red. masses --      1.1023                 1.1015                 1.0951
 Frc consts  --      6.3530                 6.3652                 6.3443
 IR Inten    --     30.9886                45.8608                18.7130

                     94                     95                     96
                      A                      A                      A
 Frequencies --   3137.6515              3158.0220              3677.8663
 Red. masses --      1.0995                 1.1001                 1.0638
 Frc consts  --      6.3773                 6.4640                 8.4781
 IR Inten    --     23.5167                19.9323                43.4852

 - Thermochemistry -
 -------------------
 Temperature   298.150 Kelvin.  Pressure   1.00000 Atm.
 Atom     1 has atomic number  6 and mass  12.00000

 Molecular mass:   200.15248 amu.
 Principal axes and moments of inertia in atomic units:
                           1         2         3
     Eigenvalues --  1749.354234026.057754283.09936
           X            0.99969   0.02481  -0.00031
           Y           -0.02482   0.99966  -0.00816
           Z            0.00010   0.00817   0.99997
 This molecule is an asymmetric top.
 Rotational symmetry number  1.
 Warning -- assumption of classical behavior for rotation
           may cause significant error
 Rotational temperatures (Kelvin)      0.04951     0.02151     0.02022
 Rotational constants (GHZ):           1.03166     0.44827     0.42136
 Zero-point vibrational energy     801762.4 (Joules/Mol)
                                  191.62582 (Kcal/Mol)
 Warning -- explicit consideration of  23 degrees of freedom as
           vibrations may cause significant error
 Vibrational temperatures:     51.57    72.60   108.17   128.92   218.52
          (Kelvin)            260.50   288.99   304.26   313.08   379.81
                              404.65   455.33   490.45   519.74   565.01
                              580.57   622.22   630.51   708.71   719.03
                              740.27   754.54   789.57   896.96   917.72
                             1033.88  1050.26  1157.49  1176.77  1216.92
                             1309.70  1325.87  1348.21  1384.09  1400.46
                             1431.41  1480.68  1495.18  1504.76  1519.85
                             1554.24  1628.44  1659.57  1674.57  1695.48
                             1711.19  1742.43  1768.82  1801.32  1806.61
                             1845.74  1860.90  1900.28  1937.54  1952.93
                             1987.32  2009.40  2019.34  2029.41  2042.64
                             2055.50  2064.25  2083.75  2137.53  2153.15
                             2164.80  2171.02  2181.78  2183.71  2193.72
                             2199.51  2211.11  2216.69  2229.10  2244.37
                             2647.08  4212.98  4225.30  4274.80  4394.15
                             4397.06  4402.40  4408.15  4408.95  4419.51
                             4442.92  4450.66  4468.00  4471.66  4493.70
                             4499.93  4505.87  4511.54  4514.38  4543.69
                             5291.63

 Zero-point correction=                           0.305375 (Hartree/Particle)
 Thermal correction to Energy=                    0.320034
 Thermal correction to Enthalpy=                  0.320979
 Thermal correction to Gibbs Free Energy=         0.263990
 Sum of electronic and zero-point Energies=           -652.808369
 Sum of electronic and thermal Energies=              -652.793710
 Sum of electronic and thermal Enthalpies=            -652.792765
 Sum of electronic and thermal Free Energies=         -652.849754

                     E (Thermal)             CV                S
                      KCal/Mol        Cal/Mol-Kelvin    Cal/Mol-Kelvin
 Total                  200.825             56.962            119.944
 Electronic               0.000              0.000              0.000
 Translational            0.889              2.981             41.786
 Rotational               0.889              2.981             31.778
 Vibrational            199.047             51.000             46.379
 Vibration     1          0.594              1.982              5.476
 Vibration     2          0.595              1.977              4.799
 Vibration     3          0.599              1.966              4.013
 Vibration     4          0.602              1.957              3.669
 Vibration     5          0.619              1.901              2.649
 Vibration     6          0.630              1.865              2.318
 Vibration     7          0.638              1.839              2.125
 Vibration     8          0.643              1.823              2.031
 Vibration     9          0.646              1.814              1.979
 Vibration    10          0.671              1.739              1.635
 Vibration    11          0.681              1.708              1.526
 Vibration    12          0.703              1.642              1.328
 Vibration    13          0.720              1.594              1.208
 Vibration    14          0.735              1.552              1.117
 Vibration    15          0.760              1.486              0.990
 Vibration    16          0.769              1.463              0.950
 Vibration    17          0.793              1.400              0.851
 Vibration    18          0.798              1.387              0.832
 Vibration    19          0.848              1.266              0.677
 Vibration    20          0.855              1.251              0.659
 Vibration    21          0.870              1.218              0.623
 Vibration    22          0.879              1.196              0.600
 Vibration    23          0.904              1.142              0.547

                           ! Non-Optimized Parameters !
 Normal termination of Gaussian 16 at Thu Dec 10 10:53:58 2020.

 ----------------------------------------------------------------------
 # B3LYP/6-311++G(d,p) empiricaldispersion=gd3bj scf=xqc pop=npa geom=c
 heck
 ----------------------------------------------------------------------

 --------------------------------------
 CID_63608707_JID_4854_Energie_neutraal
 --------------------------------------
 Structure from the checkpoint file:  "JID_4854.chk"
 Charge =  0 Multiplicity = 1

 SCF Done:  E(RB3LYP) =  -653.307300146     A.U. after   15 cycles
 Normal termination of Gaussian 16 at Thu Dec 10 10:59:11 2020.

 ----------------------------------------------------------------------
 # B3LYP/6-311++G(d,p) empiricaldispersion=gd3bj scf=xqc pop=npa geom=c
 heck
 ----------------------------------------------------------------------

 ------------------------------------
 CID_63608707_JID_4854_Energie_kation
 ------------------------------------
 Structure from the checkpoint file:  "JID_4854.chk"
 Charge =  1 Multiplicity = 2

 SCF Done:  E(UB3LYP) =  -653.039059531     A.U. after   23 cycles
 Normal termination of Gaussian 16 at Thu Dec 10 11:10:06 2020.
 Gaussian 16:  ES64L-G16RevA.03 25-Dec-2016

 ----------------------------------------------------------------------
 # B3LYP/6-311++G(d,p) empiricaldispersion=gd3bj scf=xqc pop=npa geom=c
 heck
 ----------------------------------------------------------------------

 -----------------------------------
 CID_63608707_JID_4854_Energie_anion
 -----------------------------------
 Structure from the checkpoint file:  "JID_4854.chk"
 Charge = -1 Multiplicity = 2

                         Standard orientation:
 ---------------------------------------------------------------------
 Center     Atomic      Atomic             Coordinates (Angstroms)
 Number     Number       Type             X           Y           Z
 ---------------------------------------------------------------------
      1          6           0        2.281153    0.321653   -1.832812
      2          6           0        1.663851    0.683504   -0.470081
      3          6           0        0.143309    0.401465   -0.492697
      4          7           0       -0.124217   -1.024692   -0.658457
      5          6           0        0.466674   -1.805983    0.422966
      6          6           0        1.977459   -1.545947    0.463353
      7          7           0        2.329922   -0.128045    0.586936
      8          6           0        2.154987    0.355691    1.954152
      9          6           0       -1.508555   -1.349760   -0.953362
     10          6           0       -2.558177   -1.001114    0.132293
     11          6           0       -2.906824    0.468167    0.153012
     12          8           0       -3.115459    1.151298   -0.826709
     13          8           0       -2.986279    0.965329    1.413813
     14          6           0        1.890830    2.179639   -0.222391
     15          1           0        1.916973    1.010680   -2.602654
     16          1           0        2.008334   -0.687996   -2.145012
     17          1           0        3.371328    0.399723   -1.779262
     18          1           0       -0.303602    0.796631    0.439888
     19          1           0       -0.324182    0.941094   -1.322891
     20          1           0        0.279341   -2.869764    0.231131
     21          1           0        0.019985   -1.568723    1.408360
     22          1           0        2.423211   -1.943012   -0.453914
     23          1           0        2.427059   -2.087194    1.302987
     24          1           0        1.107905    0.454269    2.291395
     25          1           0        2.653705   -0.344717    2.632113
     26          1           0        2.638794    1.327355    2.077548
     27          1           0       -1.797306   -0.835728   -1.876517
     28          1           0       -1.560333   -2.427892   -1.143932
     29          1           0       -3.487286   -1.534481   -0.106727
     30          1           0       -2.243781   -1.327073    1.126557
     31          1           0       -3.231490    1.904969    1.314687
     32          1           0        2.960124    2.391046   -0.115572
     33          1           0        1.512500    2.754105   -1.073952
     34          1           0        1.374451    2.538959    0.672975
 ---------------------------------------------------------------------

 SCF Done:  E(UB3LYP) =  -653.294494286     A.U. after   33 cycles
 SCF Done:  E(UB3LYP) =  -653.294494286     a.u. after    1 cycles

 The electronic state is 2-A.
 Alpha  occ. eigenvalues --  -19.06677 -19.01292 -14.20448 -14.20374 -10.20418
 Alpha  occ. eigenvalues --  -10.11133 -10.09891 -10.09110 -10.08993 -10.08842
 Alpha  occ. eigenvalues --  -10.08468 -10.08080 -10.06488 -10.05873  -1.00704
 Alpha  occ. eigenvalues --   -0.91827  -0.84884  -0.80599  -0.69883  -0.68004
 Alpha  occ. eigenvalues --   -0.63377  -0.59912  -0.59177  -0.56813  -0.53323
 Alpha  occ. eigenvalues --   -0.51218  -0.47596  -0.43143  -0.40484  -0.39485
 Alpha  occ. eigenvalues --   -0.38901  -0.38288  -0.37501  -0.36763  -0.35193
 Alpha  occ. eigenvalues --   -0.34343  -0.33949  -0.32030  -0.31117  -0.30557
 Alpha  occ. eigenvalues --   -0.29207  -0.29015  -0.28715  -0.27857  -0.27519
 Alpha  occ. eigenvalues --   -0.27125  -0.26338  -0.25023  -0.24035  -0.23697
 Alpha  occ. eigenvalues --   -0.22605  -0.22264  -0.18342  -0.13061  -0.10294
 Alpha  occ. eigenvalues --    0.04371
 Alpha virt. eigenvalues --    0.06528   0.06719   0.07525   0.08345   0.09062
 Alpha virt. eigenvalues --    0.09527   0.09781   0.10163   0.10510   0.11146
 Alpha virt. eigenvalues --    0.12072   0.12262   0.12763   0.12946   0.13457

  Beta  occ. eigenvalues --  -19.06624 -19.01277 -14.20447 -14.20373 -10.20403
  Beta  occ. eigenvalues --  -10.11130 -10.09876 -10.09097 -10.08971 -10.08827
  Beta  occ. eigenvalues --  -10.08441 -10.08045 -10.06472 -10.05866  -1.00632
  Beta  occ. eigenvalues --   -0.91768  -0.84873  -0.80587  -0.69865  -0.67950
  Beta  occ. eigenvalues --   -0.63340  -0.59878  -0.59136  -0.56767  -0.53283
  Beta  occ. eigenvalues --   -0.51147  -0.47519  -0.43102  -0.40440  -0.39449
  Beta  occ. eigenvalues --   -0.38869  -0.38255  -0.37461  -0.36735  -0.35160
  Beta  occ. eigenvalues --   -0.34302  -0.33922  -0.32003  -0.31081  -0.30521
  Beta  occ. eigenvalues --   -0.29175  -0.28993  -0.28668  -0.27818  -0.27496
  Beta  occ. eigenvalues --   -0.27101  -0.26305  -0.25000  -0.24010  -0.23678
  Beta  occ. eigenvalues --   -0.22584  -0.22212  -0.18301  -0.13045  -0.10280
  Beta virt. eigenvalues --    0.06565   0.07444   0.07768   0.07813   0.08854
  Beta virt. eigenvalues --    0.09446   0.09898   0.09994   0.10419   0.10773
  Beta virt. eigenvalues --    0.11659   0.12379   0.12530   0.12950   0.13133

 Mulliken charges and spin densities:
               1          2
     1  C    0.052961  -0.354048
     2  C   -0.914623   0.642632
     3  C   -0.591671  -0.302219
     4  N    0.162503   0.074155
     5  C    0.324142  -0.483050
     6  C    0.045764  -0.493492
     7  N    0.210053   0.052264
     8  C    0.576879  -0.867990
     9  C   -0.768714   0.598119
    10  C    1.240826  -1.414958
    11  C   -0.001097  -0.265111
    12  O   -0.243602   0.022724
    13  O   -0.152373   0.074965
    14  C    0.007509  -0.592781
    15  H    0.175788  -0.056609
    16  H    0.056594   0.077302
    17  H    0.007182   0.164474
    18  H    0.530110  -0.399122
    19  H    0.189374   0.014859
    20  H   -0.462710   0.639959
    21  H    0.300694  -0.189763
    22  H    0.157863  -0.011267
    23  H   -0.238617   0.418069
    24  H   -0.193442   0.367326
    25  H   -0.161810   0.301271
    26  H   -0.096755   0.234531
    27  H    0.140288   0.044104
    28  H   -0.240180   0.410412
    29  H   -0.509247   0.714539
    30  H   -0.079758   0.290710
    31  H   -0.391777   0.694905
    32  H    0.112478   0.059883
    33  H    0.008806   0.115764
    34  H   -0.253439   0.417443
 Sum of Mulliken charges =  -1.00000   1.00000

 Dipole moment (field-independent basis, Debye):
    X=              4.2005    Y=              0.2151    Z=             -3.3247  Tot=              5.3613
 Quadrupole moment (field-independent basis, Debye-Ang):
   XX=           -153.6067   YY=           -136.6734   ZZ=           -125.0650
   XY=              2.7166   XZ=             -0.6260   YZ=             -4.2792

 Summary of Natural Population Analysis:

                                       Natural Population
                Natural  -----------------------------------------------
    Atom  No    Charge         Core      Valence    Rydberg      Total
 -----------------------------------------------------------------------
      C    1   -0.28964      0.99961     2.28393    0.00610     3.28964
      C    2    0.06742      0.99956     1.91883    0.01418     2.93258
      C    3   -0.10002      0.99955     2.08852    0.01196     3.10002
      N    4   -0.28389      0.99971     2.77156    0.01262     3.78389
      C    5   -0.09516      0.99960     2.08437    0.01118     3.09516
      C    6   -0.08599      0.99960     2.07421    0.01217     3.08599
      N    7   -0.28770      0.99971     2.77388    0.01412     3.78770
      C    8   -0.18097      0.99963     2.17264    0.00869     3.18097
      C    9   -0.07737      0.99961     2.06508    0.01268     3.07737
      C   10   -0.25251      0.99957     2.24388    0.00906     3.25251
      C   11    0.40751      0.99971     1.56694    0.02583     2.59249
      O   12   -0.31360      0.99987     3.30735    0.00639     4.31360
      O   13   -0.34246      0.99988     3.33575    0.00683     4.34246
      C   14   -0.29150      0.99962     2.28461    0.00727     3.29150
      H   15    0.09661      0.00000     0.40270    0.00069     0.40339
      H   16    0.10670      0.00000     0.39202    0.00128     0.39330
      H   17    0.10138      0.00000     0.39749    0.00113     0.39862
      H   18    0.08821      0.00000     0.40932    0.00247     0.41179
      H   19    0.10409      0.00000     0.39468    0.00123     0.39591
      H   20    0.09913      0.00000     0.39914    0.00173     0.40087
      H   21    0.08175      0.00000     0.41642    0.00183     0.41825
      H   22    0.09450      0.00000     0.40408    0.00142     0.40550
      H   23    0.09652      0.00000     0.40252    0.00096     0.40348
      H   24    0.08461      0.00000     0.41374    0.00165     0.41539
      H   25    0.09549      0.00000     0.40347    0.00105     0.40451
      H   26    0.09572      0.00000     0.40302    0.00125     0.40428
      H   27    0.10066      0.00000     0.39805    0.00128     0.39934
      H   28    0.09774      0.00000     0.40091    0.00135     0.40226
      H   29    0.11948      0.00000     0.37831    0.00220     0.38052
      H   30    0.11150      0.00000     0.38673    0.00177     0.38850
      H   31    0.24292      0.00000     0.24393    0.01315     0.25708
      H   32    0.10286      0.00000     0.39626    0.00088     0.39714
      H   33    0.10116      0.00000     0.39811    0.00073     0.39884
      H   34    0.10485      0.00000     0.39413    0.00103     0.39515
 =======================================================================
   * Total *    0.00000     13.99522    40.80659    0.19819    55.00000

 Normal termination of Gaussian 16 at Thu Dec 10 11:23:46 2020.
