 Gaussian 16, Revision A.03,

 -----------------------------------------------------------
 # opt freq B3LYP/6-31G(d) empiricaldispersion=gd3bj scf=xqc
 -----------------------------------------------------------

 -------------------------------
 CID_115653070_JID_8808_neutraal
 -------------------------------
 Symbolic Z-matrix:
 Charge =  0 Multiplicity = 1

 SCF Done:  E(RB3LYP) =  -842.568045584     A.U. after   15 cycles
 SCF Done:  E(RB3LYP) =  -842.506643446     A.U. after   16 cycles
 SCF Done:  E(RB3LYP) =  -842.571736777     A.U. after   13 cycles
 SCF Done:  E(RB3LYP) =  -842.573651072     A.U. after   13 cycles
 SCF Done:  E(RB3LYP) =  -842.573842584     A.U. after   13 cycles
 SCF Done:  E(RB3LYP) =  -842.575064100     A.U. after   13 cycles
 SCF Done:  E(RB3LYP) =  -842.575876489     A.U. after   12 cycles
 SCF Done:  E(RB3LYP) =  -842.577118240     A.U. after   13 cycles
 SCF Done:  E(RB3LYP) =  -842.574029733     A.U. after   15 cycles
 SCF Done:  E(RB3LYP) =  -842.578502635     A.U. after   13 cycles
 SCF Done:  E(RB3LYP) =  -842.585263256     A.U. after   11 cycles
 SCF Done:  E(RB3LYP) =  -842.585270982     A.U. after   10 cycles
 SCF Done:  E(RB3LYP) =  -842.585272386     A.U. after    9 cycles
 SCF Done:  E(RB3LYP) =  -842.585273634     A.U. after    8 cycles
 SCF Done:  E(RB3LYP) =  -842.585273884     A.U. after    8 cycles
 SCF Done:  E(RB3LYP) =  -842.585273944     A.U. after    8 cycles
 Optimization completed.
    -- Stationary point found.
 Normal termination of Gaussian 16 at Fri Dec 11 22:59:41 2020.

 --------------------------------------------------------------------
 #N Geom=AllCheck Guess=TCheck SCRF=Check GenChk RB3LYP/6-31G(d) Freq
 --------------------------------------------------------------------

 Structure from the checkpoint file:  "JID_8808.chk"
 -------------------------------
 CID_115653070_JID_8808_neutraal
 -------------------------------
 Charge =  0 Multiplicity = 1

 SCF Done:  E(RB3LYP) =  -842.585273944     A.U. after    1 cycles

  Exact polarizability: 182.353  11.589 134.799 -13.946   7.848 141.910
 Approx polarizability: 259.335  11.897 180.166 -32.878  12.368 247.283

                      1                      2                      3
                      A                      A                      A
 Frequencies --     23.8435                32.3090                43.6082
 Red. masses --      4.7169                 5.9783                 4.3610
 Frc consts  --      0.0016                 0.0037                 0.0049
 IR Inten    --      2.8178                 2.4010                 0.9718

                      4                      5                      6
                      A                      A                      A
 Frequencies --     49.2789                63.7865                77.4381
 Red. masses --      3.7519                 3.9652                 3.9167
 Frc consts  --      0.0054                 0.0095                 0.0138
 IR Inten    --      0.1668                 1.0816                 0.3268

                      7                      8                      9
                      A                      A                      A
 Frequencies --     90.3888               109.4668               126.9007
 Red. masses --      3.2333                 4.2625                 2.2911
 Frc consts  --      0.0156                 0.0301                 0.0217
 IR Inten    --      0.4362                 1.1826                 2.5145

                     10                     11                     12
                      A                      A                      A
 Frequencies --    144.3854               149.5336               166.8738
 Red. masses --      5.8931                 4.3750                 3.9787
 Frc consts  --      0.0724                 0.0576                 0.0653
 IR Inten    --      1.7482                 1.0674                 2.0203

                     13                     14                     15
                      A                      A                      A
 Frequencies --    191.3219               215.9985               250.1887
 Red. masses --      1.2883                 3.8849                 3.3457
 Frc consts  --      0.0278                 0.1068                 0.1234
 IR Inten    --      0.4894                 2.0607                 2.8247

                     16                     17                     18
                      A                      A                      A
 Frequencies --    271.9525               292.9070               306.5880
 Red. masses --      1.9705                 3.2444                 2.9660
 Frc consts  --      0.0859                 0.1640                 0.1643
 IR Inten    --      0.5142                 6.7264                15.7122

                     19                     20                     21
                      A                      A                      A
 Frequencies --    342.8464               347.8033               376.6605
 Red. masses --      2.3272                 2.6192                 2.3842
 Frc consts  --      0.1612                 0.1867                 0.1993
 IR Inten    --      5.7177                 2.2580                 1.8632

                     22                     23                     24
                      A                      A                      A
 Frequencies --    422.4475               470.6042               492.3970
 Red. masses --      2.4825                 3.5921                 6.6542
 Frc consts  --      0.2610                 0.4687                 0.9506
 IR Inten    --      2.1705                10.2862                 3.0387

                     25                     26                     27
                      A                      A                      A
 Frequencies --    538.8882               554.9770               573.2499
 Red. masses --      3.5365                 6.5886                 6.5170
 Frc consts  --      0.6051                 1.1956                 1.2618
 IR Inten    --      0.5140                 1.9276                 1.6687

                     28                     29                     30
                      A                      A                      A
 Frequencies --    616.3845               641.4404               658.2101
 Red. masses --      3.0789                 4.1972                 6.3428
 Frc consts  --      0.6892                 1.0175                 1.6190
 IR Inten    --      0.5956                 0.7821                 0.2825

                     31                     32                     33
                      A                      A                      A
 Frequencies --    724.4849               746.7305               794.9775
 Red. masses --      1.9701                 1.4264                 1.9389
 Frc consts  --      0.6093                 0.4686                 0.7220
 IR Inten    --     33.7244                 7.7952                75.9803

                     34                     35                     36
                      A                      A                      A
 Frequencies --    807.5777               813.8091               841.0012
 Red. masses --      1.1489                 1.4210                 2.4199
 Frc consts  --      0.4415                 0.5545                 1.0084
 IR Inten    --      3.4758                36.1637                20.9223

                     37                     38                     39
                      A                      A                      A
 Frequencies --    876.5311               884.9105               923.2757
 Red. masses --      1.4345                 1.7594                 2.0786
 Frc consts  --      0.6493                 0.8117                 1.0440
 IR Inten    --      1.5018                 7.6463                11.6676

                     40                     41                     42
                      A                      A                      A
 Frequencies --    960.0108               981.1173               993.1623
 Red. masses --      4.0098                 3.7024                 4.9097
 Frc consts  --      2.1774                 2.0998                 2.8533
 IR Inten    --     33.6391                10.8260                 4.2965

                     43                     44                     45
                      A                      A                      A
 Frequencies --    999.1457              1003.2505              1046.7430
 Red. masses --      2.1429                 2.3635                 1.4323
 Frc consts  --      1.2604                 1.4016                 0.9246
 IR Inten    --      3.2023                 7.5868                14.8351

                     46                     47                     48
                      A                      A                      A
 Frequencies --   1053.1816              1055.7837              1083.2496
 Red. masses --      3.9273                 1.4745                 2.2016
 Frc consts  --      2.5666                 0.9684                 1.5221
 IR Inten    --      1.5172                15.3108                13.2577

                     49                     50                     51
                      A                      A                      A
 Frequencies --   1124.5036              1130.5121              1143.0981
 Red. masses --      2.5130                 2.5768                 2.1617
 Frc consts  --      1.8723                 1.9404                 1.6642
 IR Inten    --     17.2286                87.4847                27.8507

                     52                     53                     54
                      A                      A                      A
 Frequencies --   1153.2580              1170.1152              1188.0869
 Red. masses --      3.2021                 4.0684                 1.5588
 Frc consts  --      2.5092                 3.2819                 1.2964
 IR Inten    --     33.6200                90.4463                16.0041

                     55                     56                     57
                      A                      A                      A
 Frequencies --   1196.5726              1217.5612              1222.0913
 Red. masses --      1.7866                 1.9420                 2.0233
 Frc consts  --      1.5072                 1.6962                 1.7804
 IR Inten    --     42.9145                 6.5542                16.9520

                     58                     59                     60
                      A                      A                      A
 Frequencies --   1233.9739              1247.5669              1254.1579
 Red. masses --      1.3872                 1.6045                 1.8613
 Frc consts  --      1.2446                 1.4714                 1.7250
 IR Inten    --     14.6675                 3.5091                 4.3438

                     61                     62                     63
                      A                      A                      A
 Frequencies --   1267.7847              1288.3400              1314.3913
 Red. masses --      2.3442                 1.5744                 1.2379
 Frc consts  --      2.2199                 1.5397                 1.2600
 IR Inten    --     30.4188                 9.0634                12.7432

                     64                     65                     66
                      A                      A                      A
 Frequencies --   1318.8545              1345.2531              1348.1717
 Red. masses --      1.2882                 1.1104                 1.1840
 Frc consts  --      1.3202                 1.1839                 1.2679
 IR Inten    --      6.6569                 0.4163                 9.2965

                     67                     68                     69
                      A                      A                      A
 Frequencies --   1368.8834              1377.3162              1395.7690
 Red. masses --      1.2168                 1.2823                 1.4273
 Frc consts  --      1.3433                 1.4332                 1.6383
 IR Inten    --     13.8826                25.7946                 5.5644

                     70                     71                     72
                      A                      A                      A
 Frequencies --   1404.8985              1411.2895              1432.1517
 Red. masses --      1.5138                 2.3960                 1.3625
 Frc consts  --      1.7604                 2.8117                 1.6465
 IR Inten    --      0.4898                 1.0650                 0.8418

                     73                     74                     75
                      A                      A                      A
 Frequencies --   1444.2188              1459.3992              1490.1472
 Red. masses --      1.3335                 1.3592                 1.0810
 Frc consts  --      1.6387                 1.7056                 1.4142
 IR Inten    --      9.7887                10.1434                 0.9864

                     76                     77                     78
                      A                      A                      A
 Frequencies --   1504.4713              1505.7004              1514.9773
 Red. masses --      1.0953                 1.1257                 1.1429
 Frc consts  --      1.4607                 1.5036                 1.5454
 IR Inten    --      4.1047                 1.0258                23.9055

                     79                     80                     81
                      A                      A                      A
 Frequencies --   1518.0524              1524.6332              1533.8934
 Red. masses --      1.0556                 1.0944                 1.0813
 Frc consts  --      1.4332                 1.4989                 1.4989
 IR Inten    --      8.1133                 0.5174                 9.1266

                     82                     83                     84
                      A                      A                      A
 Frequencies --   1534.8402              1541.4537              1550.1953
 Red. masses --      1.1349                 1.0798                 1.0894
 Frc consts  --      1.5752                 1.5116                 1.5425
 IR Inten    --     10.8202                 7.1230                 3.2460

                     85                     86                     87
                      A                      A                      A
 Frequencies --   1562.3944              1565.6715              1634.1506
 Red. masses --      8.1529                 1.0823                 6.1664
 Frc consts  --     11.7259                 1.5632                 9.7021
 IR Inten    --     35.8831                 8.8525                 2.5380

                     88                     89                     90
                      A                      A                      A
 Frequencies --   2345.3337              2986.7648              2995.3027
 Red. masses --     12.6499                 1.0698                 1.0565
 Frc consts  --     40.9963                 5.6230                 5.5847
 IR Inten    --     58.1069                43.2905                 4.0416

                     91                     92                     93
                      A                      A                      A
 Frequencies --   3005.4708              3007.8232              3019.0882
 Red. masses --      1.0638                 1.0526                 1.0600
 Frc consts  --      5.6617                 5.6106                 5.6928
 IR Inten    --     19.1072                77.5068                36.2926

                     94                     95                     96
                      A                      A                      A
 Frequencies --   3036.9414              3043.1140              3048.7961
 Red. masses --      1.0885                 1.0799                 1.0849
 Frc consts  --      5.9150                 5.8919                 5.9417
 IR Inten    --     27.4730                55.4718                19.8384

                     97                     98                     99
                      A                      A                      A
 Frequencies --   3056.1613              3061.9054              3066.1415
 Red. masses --      1.0610                 1.0984                 1.0704
 Frc consts  --      5.8387                 6.0670                 5.9292
 IR Inten    --     34.8595                43.6346                55.0541

                    100                    101                    102
                      A                      A                      A
 Frequencies --   3085.7026              3095.9828              3104.1527
 Red. masses --      1.0968                 1.0924                 1.1039
 Frc consts  --      6.1531                 6.1693                 6.2671
 IR Inten    --     48.2938                19.8999                11.9201

                    103                    104                    105
                      A                      A                      A
 Frequencies --   3113.8008              3114.1470              3135.2071
 Red. masses --      1.1012                 1.0997                 1.0995
 Frc consts  --      6.2907                 6.2837                 6.3676
 IR Inten    --     34.6493                47.5007                44.0677

                    106                    107                    108
                      A                      A                      A
 Frequencies --   3273.7374              3286.1687              3509.9104
 Red. masses --      1.0936                 1.1014                 1.0733
 Frc consts  --      6.9058                 7.0077                 7.7904
 IR Inten    --      1.7030                 0.1207                 0.5947

 - Thermochemistry -
 -------------------
 Temperature   298.150 Kelvin.  Pressure   1.00000 Atm.
 Atom     1 has atomic number  6 and mass  12.00000

 Molecular mass:   252.14739 amu.
 Principal axes and moments of inertia in atomic units:
                           1         2         3
     Eigenvalues --  3883.194795339.501217695.67209
           X            0.99977   0.02114   0.00438
           Y           -0.02126   0.99941   0.02710
           Z           -0.00381  -0.02719   0.99962
 This molecule is an asymmetric top.
 Rotational symmetry number  1.
 Warning -- assumption of classical behavior for rotation
           may cause significant error
 Rotational temperatures (Kelvin)      0.02230     0.01622     0.01125
 Rotational constants (GHZ):           0.46476     0.33800     0.23451
 Zero-point vibrational energy     855701.2 (Joules/Mol)
                                  204.51750 (Kcal/Mol)
 Warning -- explicit consideration of  28 degrees of freedom as
           vibrations may cause significant error
 Vibrational temperatures:     34.31    46.49    62.74    70.90    91.77
          (Kelvin)            111.42   130.05   157.50   182.58   207.74
                              215.15   240.09   275.27   310.77   359.97
                              391.28   421.43   441.11   493.28   500.41
                              541.93   607.81   677.09   708.45   775.34
                              798.49   824.78   886.84   922.89   947.02
                             1042.37  1074.38  1143.80  1161.92  1170.89
                             1210.01  1261.13  1273.19  1328.39  1381.24
                             1411.61  1428.94  1437.55  1443.45  1506.03
                             1515.29  1519.04  1558.55  1617.91  1626.55
                             1644.66  1659.28  1683.53  1709.39  1721.60
                             1751.80  1758.32  1775.41  1794.97  1804.45
                             1824.06  1853.63  1891.12  1897.54  1935.52
                             1939.72  1969.52  1981.65  2008.20  2021.34
                             2030.53  2060.55  2077.91  2099.75  2143.99
                             2164.60  2166.37  2179.71  2184.14  2193.61
                             2206.93  2208.29  2217.81  2230.39  2247.94
                             2252.65  2351.18  3374.41  4297.29  4309.57
                             4324.20  4327.59  4343.79  4369.48  4378.36
                             4386.54  4397.13  4405.40  4411.49  4439.64
                             4454.43  4466.18  4480.06  4480.56  4510.86
                             4710.18  4728.06  5049.98

 Zero-point correction=                           0.325919 (Hartree/Particle)
 Thermal correction to Energy=                    0.344916
 Thermal correction to Enthalpy=                  0.345861
 Thermal correction to Gibbs Free Energy=         0.276372
 Sum of electronic and zero-point Energies=           -842.259355
 Sum of electronic and thermal Energies=              -842.240358
 Sum of electronic and thermal Enthalpies=            -842.239413
 Sum of electronic and thermal Free Energies=         -842.308902

                     E (Thermal)             CV                S
                      KCal/Mol        Cal/Mol-Kelvin    Cal/Mol-Kelvin
 Total                  216.438             68.654            146.252
 Electronic               0.000              0.000              0.000
 Translational            0.889              2.981             42.475
 Rotational               0.889              2.981             33.434
 Vibrational            214.661             62.692             70.343
 Vibration     1          0.593              1.985              6.285
 Vibration     2          0.594              1.983              5.682
 Vibration     3          0.595              1.980              5.088
 Vibration     4          0.595              1.978              4.846
 Vibration     5          0.597              1.972              4.336
 Vibration     6          0.599              1.964              3.955
 Vibration     7          0.602              1.956              3.652
 Vibration     8          0.606              1.942              3.278
 Vibration     9          0.611              1.926              2.992
 Vibration    10          0.616              1.909              2.745
 Vibration    11          0.618              1.903              2.678
 Vibration    12          0.624              1.883              2.470
 Vibration    13          0.634              1.852              2.215
 Vibration    14          0.645              1.817              1.992
 Vibration    15          0.663              1.762              1.729
 Vibration    16          0.675              1.725              1.584
 Vibration    17          0.688              1.687              1.457
 Vibration    18          0.697              1.661              1.381
 Vibration    19          0.722              1.590              1.199
 Vibration    20          0.725              1.580              1.176
 Vibration    21          0.747              1.520              1.053
 Vibration    22          0.785              1.421              0.884
 Vibration    23          0.828              1.315              0.736
 Vibration    24          0.848              1.267              0.677
 Vibration    25          0.894              1.164              0.568
 Vibration    26          0.910              1.129              0.534
 Vibration    27          0.930              1.089              0.498
 Vibration    28          0.976              0.997              0.422

 Optimization completed.
    -- Stationary point found.
 Normal termination of Gaussian 16 at Fri Dec 11 23:18:21 2020.

 ----------------------------------------------------------------------
 # B3LYP/6-311++G(d,p) empiricaldispersion=gd3bj scf=xqc pop=npa geom=c
 heck
 ----------------------------------------------------------------------

 ---------------------------------------
 CID_115653070_JID_8808_Energie_neutraal
 ---------------------------------------
 Structure from the checkpoint file:  "JID_8808.chk"
 Charge =  0 Multiplicity = 1

 SCF Done:  E(RB3LYP) =  -842.826207522     A.U. after   15 cycles
 Normal termination of Gaussian 16 at Fri Dec 11 23:25:49 2020.

 ----------------------------------------------------------------------
 # B3LYP/6-311++G(d,p) empiricaldispersion=gd3bj scf=xqc pop=npa geom=c
 heck
 ----------------------------------------------------------------------

 -------------------------------------
 CID_115653070_JID_8808_Energie_kation
 -------------------------------------
 Structure from the checkpoint file:  "JID_8808.chk"
 Charge =  1 Multiplicity = 2

 SCF Done:  E(UB3LYP) =  -842.520759516     A.U. after   28 cycles
 Normal termination of Gaussian 16 at Fri Dec 11 23:43:53 2020.
 Gaussian 16:  ES64L-G16RevA.03 25-Dec-2016

 ----------------------------------------------------------------------
 # B3LYP/6-311++G(d,p) empiricaldispersion=gd3bj scf=xqc pop=npa geom=c
 heck
 ----------------------------------------------------------------------

 ------------------------------------
 CID_115653070_JID_8808_Energie_anion
 ------------------------------------
 Structure from the checkpoint file:  "JID_8808.chk"
 Charge = -1 Multiplicity = 2

                         Standard orientation:
 ---------------------------------------------------------------------
 Center     Atomic      Atomic             Coordinates (Angstroms)
 Number     Number       Type             X           Y           Z
 ---------------------------------------------------------------------
      1          6           0        3.904826    0.260284    0.558773
      2          8           0        3.797794   -1.141849    0.717095
      3          6           0        2.703935   -1.716639    0.022538
      4          6           0        1.405649   -1.614517    0.832125
      5          8           0        0.348137   -2.379235    0.277339
      6          6           0       -0.228555   -1.825947   -0.896508
      7          6           0       -1.598351   -2.461812   -1.111938
      8          6           0       -2.539310   -2.349859    0.101512
      9          6           0       -2.650595   -0.946706    0.697083
     10          7           0       -3.214975    0.011878   -0.258349
     11          6           0       -3.098416    1.404382    0.169512
     12          6           0       -1.688297    1.874517    0.379262
     13          6           0       -0.967961    2.303771    1.461438
     14          6           0        0.371484    2.508155    1.016351
     15          6           0        0.384432    2.181287   -0.315124
     16          8           0       -0.872948    1.797417   -0.714900
     17          6           0        1.416121    2.142075   -1.277537
     18          7           0        2.284128    2.096116   -2.052710
     19          1           0        4.816751    0.567416    1.077664
     20          1           0        3.052823    0.800669    0.999607
     21          1           0        3.977326    0.544214   -0.500451
     22          1           0        2.590241   -1.253725   -0.969823
     23          1           0        2.940780   -2.776086   -0.121573
     24          1           0        1.588222   -2.021015    1.831473
     25          1           0        1.094662   -0.563261    0.943105
     26          1           0       -0.323199   -0.735123   -0.785496
     27          1           0        0.409343   -2.005045   -1.775000
     28          1           0       -2.047750   -2.001440   -2.002857
     29          1           0       -1.465581   -3.522559   -1.355274
     30          1           0       -3.536835   -2.704200   -0.184588
     31          1           0       -2.168849   -3.012977    0.889416
     32          1           0       -3.316424   -0.974088    1.569754
     33          1           0       -1.659480   -0.640912    1.071914
     34          1           0       -2.747509   -0.087104   -1.156934
     35          1           0       -3.588336    2.035928   -0.581499
     36          1           0       -3.643336    1.535696    1.110941
     37          1           0       -1.350949    2.449481    2.461285
     38          1           0        1.220401    2.843569    1.594554
 ---------------------------------------------------------------------

 SCF Done:  E(UB3LYP) =  -842.833531245     A.U. after   31 cycles

 The electronic state is 2-A.
 Alpha  occ. eigenvalues --  -19.03215 -19.02494 -19.02451 -14.18601 -14.14814
 Alpha  occ. eigenvalues --  -10.11324 -10.11184 -10.11033 -10.10193 -10.08476
 Alpha  occ. eigenvalues --  -10.08272 -10.08117 -10.07334 -10.07288 -10.06646
 Alpha  occ. eigenvalues --  -10.05050 -10.03675 -10.02795  -0.96779  -0.94061
 Alpha  occ. eigenvalues --   -0.93158  -0.79713  -0.75134  -0.69706  -0.66431
 Alpha  occ. eigenvalues --   -0.65369  -0.63707  -0.61091  -0.57506  -0.55532
 Alpha  occ. eigenvalues --   -0.53026  -0.49947  -0.47479  -0.46209  -0.44961
 Alpha  occ. eigenvalues --   -0.41313  -0.40630  -0.39410  -0.39207  -0.37408
 Alpha  occ. eigenvalues --   -0.36532  -0.36067  -0.34421  -0.34207  -0.33331
 Alpha  occ. eigenvalues --   -0.31771  -0.30765  -0.29747  -0.28844  -0.28699
 Alpha  occ. eigenvalues --   -0.28588  -0.27693  -0.26717  -0.26206  -0.24333
 Alpha  occ. eigenvalues --   -0.23815  -0.23651  -0.23293  -0.22043  -0.21686
 Alpha  occ. eigenvalues --   -0.21044  -0.20829  -0.18791  -0.18122  -0.15391
 Alpha  occ. eigenvalues --   -0.14481  -0.12126  -0.09666   0.05139
 Alpha virt. eigenvalues --    0.07414   0.08317   0.08657   0.08869   0.09737
 Alpha virt. eigenvalues --    0.10036   0.10618   0.11080   0.11544   0.11677
 Alpha virt. eigenvalues --    0.12736   0.13192   0.13736   0.14226   0.14292

  Beta  occ. eigenvalues --  -19.02821 -19.02494 -19.02450 -14.18556 -14.14425
  Beta  occ. eigenvalues --  -10.11324 -10.11184 -10.11033 -10.10190 -10.08501
  Beta  occ. eigenvalues --  -10.08111 -10.08012 -10.07331 -10.06903 -10.06644
  Beta  occ. eigenvalues --  -10.05006 -10.03800 -10.02548  -0.96118  -0.94060
  Beta  occ. eigenvalues --   -0.93157  -0.79619  -0.74541  -0.69677  -0.66038
  Beta  occ. eigenvalues --   -0.65271  -0.63304  -0.60895  -0.57446  -0.55340
  Beta  occ. eigenvalues --   -0.52921  -0.49913  -0.47184  -0.46167  -0.44433
  Beta  occ. eigenvalues --   -0.41013  -0.40622  -0.39402  -0.39170  -0.37393
  Beta  occ. eigenvalues --   -0.36330  -0.35997  -0.34230  -0.34054  -0.33185
  Beta  occ. eigenvalues --   -0.30901  -0.30662  -0.29291  -0.28754  -0.28586
  Beta  occ. eigenvalues --   -0.28451  -0.27602  -0.26678  -0.26056  -0.24154
  Beta  occ. eigenvalues --   -0.23742  -0.23478  -0.23211  -0.21825  -0.21117
  Beta  occ. eigenvalues --   -0.21004  -0.19252  -0.18569  -0.18076  -0.14503
  Beta  occ. eigenvalues --   -0.14048  -0.11958  -0.07544
  Beta virt. eigenvalues --    0.07318   0.08218   0.08539   0.08860   0.09641
  Beta virt. eigenvalues --    0.10000   0.10524   0.10998   0.11407   0.11489
  Beta virt. eigenvalues --    0.11765   0.12643   0.13327   0.13693   0.14170

 Mulliken charges and spin densities:
               1          2
     1  C   -0.279074  -0.038693
     2  O   -0.145175   0.002751
     3  C   -0.439619   0.003658
     4  C   -0.166197   0.013529
     5  O   -0.070523   0.004081
     6  C   -0.274424  -0.046666
     7  C   -0.395212   0.002411
     8  C   -0.454166  -0.091611
     9  C   -0.203024  -0.053745
    10  N    0.052889  -0.005330
    11  C   -0.641062  -0.260844
    12  C    0.163100   0.342296
    13  C    0.002102  -0.076791
    14  C   -0.475472   0.228065
    15  C    1.019192   0.299618
    16  O    0.069193   0.069417
    17  C   -1.031798  -0.102444
    18  N   -0.361787   0.211486
    19  H    0.133118   0.002878
    20  H    0.127111   0.025585
    21  H    0.136600   0.018996
    22  H    0.153998   0.003659
    23  H    0.159126  -0.000083
    24  H    0.148674   0.003191
    25  H    0.297840  -0.009790
    26  H    0.142779  -0.021550
    27  H    0.152189  -0.010468
    28  H    0.089563   0.071989
    29  H    0.145772   0.010368
    30  H    0.086075   0.059391
    31  H    0.147435   0.009150
    32  H    0.091343   0.046543
    33  H    0.150155  -0.009279
    34  H    0.195011   0.025277
    35  H   -0.064203   0.250432
    36  H    0.117584   0.022623
    37  H    0.119183   0.014480
    38  H    0.101702  -0.014581
 Sum of Mulliken charges =  -1.00000   1.00000

 Dipole moment (field-independent basis, Debye):
    X=             -1.5079    Y=             -5.1260    Z=              3.2337  Tot=              6.2455
 Quadrupole moment (field-independent basis, Debye-Ang):
   XX=           -158.2492   YY=           -145.1758   ZZ=           -128.3851
   XY=             -2.7678   XZ=              4.6678   YZ=             12.4557

 Summary of Natural Population Analysis:

                                       Natural Population
                Natural  -----------------------------------------------
    Atom  No    Charge         Core      Valence    Rydberg      Total
 -----------------------------------------------------------------------
      C    1   -0.10357      0.99962     2.09495    0.00900     3.10357
      O    2   -0.30353      0.99989     3.29296    0.01068     4.30353
      C    3   -0.02084      0.99959     2.01108    0.01017     3.02084
      C    4   -0.02334      0.99959     2.01293    0.01082     3.02334
      O    5   -0.30781      0.99988     3.29728    0.01065     4.30781
      C    6   -0.01827      0.99958     2.00817    0.01052     3.01827
      C    7   -0.19932      0.99963     2.19128    0.00841     3.19932
      C    8   -0.19303      0.99963     2.18501    0.00839     3.19303
      C    9   -0.09343      0.99962     2.08143    0.01238     3.09343
      N   10   -0.33841      0.99975     2.82543    0.01323     3.83841
      C   11   -0.11069      0.99959     2.09817    0.01293     3.11069
      C   12    0.20815      0.99949     1.77713    0.01524     2.79185
      C   13   -0.18816      0.99949     2.18142    0.00724     3.18816
      C   14   -0.08745      0.99953     2.07832    0.00959     3.08745
      C   15    0.10324      0.99935     1.88232    0.01509     2.89676
      O   16   -0.20708      0.99985     3.19909    0.00814     4.20708
      C   17    0.12823      0.99963     1.85491    0.01722     2.87177
      N   18   -0.15434      0.99979     2.64560    0.00895     3.65434
      H   19    0.08191      0.00000     0.41720    0.00089     0.41809
      H   20    0.08358      0.00000     0.41459    0.00183     0.41642
      H   21    0.09224      0.00000     0.40653    0.00124     0.40776
      H   22    0.08513      0.00000     0.41374    0.00112     0.41487
      H   23    0.08388      0.00000     0.41482    0.00130     0.41612
      H   24    0.08583      0.00000     0.41299    0.00118     0.41417
      H   25    0.09067      0.00000     0.40737    0.00196     0.40933
      H   26    0.09338      0.00000     0.40402    0.00260     0.40662
      H   27    0.07960      0.00000     0.41932    0.00108     0.42040
      H   28    0.09680      0.00000     0.40201    0.00120     0.40320
      H   29    0.09656      0.00000     0.40216    0.00127     0.40344
      H   30    0.09562      0.00000     0.40303    0.00135     0.40438
      H   31    0.10143      0.00000     0.39743    0.00114     0.39857
      H   32    0.08780      0.00000     0.41117    0.00104     0.41220
      H   33    0.08837      0.00000     0.40921    0.00242     0.41163
      H   34    0.17108      0.00000     0.32506    0.00386     0.32892
      H   35    0.10256      0.00000     0.39607    0.00137     0.39744
      H   36    0.09357      0.00000     0.40554    0.00088     0.40643
      H   37    0.10046      0.00000     0.39881    0.00074     0.39954
      H   38    0.09918      0.00000     0.40006    0.00076     0.40082
 =======================================================================
   * Total *    0.00000     17.99351    49.77860    0.22790    68.00000

 Normal termination of Gaussian 16 at Sat Dec 12 00:03:14 2020.
