 Gaussian 16, Revision A.03,

 -----------------------------------------------------------
 # opt freq B3LYP/6-31G(d) empiricaldispersion=gd3bj scf=xqc
 -----------------------------------------------------------

 -------------------------------
 CID_143785193_JID_7650_neutraal
 -------------------------------
 Symbolic Z-matrix:
 Charge =  0 Multiplicity = 1

 SCF Done:  E(RB3LYP) =  -831.667113890     A.U. after   15 cycles
 SCF Done:  E(RB3LYP) =  -831.672232378     A.U. after   14 cycles
 SCF Done:  E(RB3LYP) =  -831.673164492     A.U. after   14 cycles
 SCF Done:  E(RB3LYP) =  -831.673525993     A.U. after   14 cycles
 SCF Done:  E(RB3LYP) =  -831.673963016     A.U. after   14 cycles
 SCF Done:  E(RB3LYP) =  -831.674699744     A.U. after   14 cycles
 SCF Done:  E(RB3LYP) =  -831.675596091     A.U. after   15 cycles
 SCF Done:  E(RB3LYP) =  -831.675836065     A.U. after   13 cycles
 SCF Done:  E(RB3LYP) =  -831.675912812     A.U. after   13 cycles
 SCF Done:  E(RB3LYP) =  -831.675928340     A.U. after   12 cycles
 SCF Done:  E(RB3LYP) =  -831.675933929     A.U. after   11 cycles
 SCF Done:  E(RB3LYP) =  -831.675934105     A.U. after   10 cycles
 SCF Done:  E(RB3LYP) =  -831.675934112     A.U. after   10 cycles
 SCF Done:  E(RB3LYP) =  -831.675934039     A.U. after   10 cycles
 SCF Done:  E(RB3LYP) =  -831.675934042     A.U. after    9 cycles
 SCF Done:  E(RB3LYP) =  -831.675934040     A.U. after    9 cycles
 Optimization completed.
    -- Stationary point found.
 Normal termination of Gaussian 16 at Fri Dec 11 13:06:29 2020.

 --------------------------------------------------------------------
 #N Geom=AllCheck Guess=TCheck SCRF=Check GenChk RB3LYP/6-31G(d) Freq
 --------------------------------------------------------------------

 Structure from the checkpoint file:  "JID_7650.chk"
 -------------------------------
 CID_143785193_JID_7650_neutraal
 -------------------------------
 Charge =  0 Multiplicity = 1

 SCF Done:  E(RB3LYP) =  -831.675934040     A.U. after    1 cycles

  Exact polarizability: 172.499  -2.761 130.143   2.176   7.985 100.980
 Approx polarizability: 225.309  -3.870 238.975   7.964  23.369 159.567

                      1                      2                      3
                      A                      A                      A
 Frequencies --     23.5588                27.8376                36.1403
 Red. masses --      6.7703                 6.3359                 3.8071
 Frc consts  --      0.0022                 0.0029                 0.0029
 IR Inten    --      0.5163                 0.8606                 0.2992

                      4                      5                      6
                      A                      A                      A
 Frequencies --     66.0561               102.7722               119.1045
 Red. masses --      8.6938                 9.2947                 6.4537
 Frc consts  --      0.0224                 0.0578                 0.0539
 IR Inten    --      0.4188                 1.7509                 0.2448

                      7                      8                      9
                      A                      A                      A
 Frequencies --    127.7654               145.2894               213.3939
 Red. masses --      4.4399                 5.7417                 5.6341
 Frc consts  --      0.0427                 0.0714                 0.1512
 IR Inten    --      0.2249                 0.5960                 3.7585

                     10                     11                     12
                      A                      A                      A
 Frequencies --    218.9366               257.8510               296.6561
 Red. masses --      5.8114                 3.2701                 2.5981
 Frc consts  --      0.1641                 0.1281                 0.1347
 IR Inten    --      1.8361                 2.4796                 0.4678

                     13                     14                     15
                      A                      A                      A
 Frequencies --    306.2127               367.6604               378.3995
 Red. masses --      7.4919                 5.0803                 2.3536
 Frc consts  --      0.4139                 0.4046                 0.1986
 IR Inten    --      2.0831                 4.0631                17.0058

                     16                     17                     18
                      A                      A                      A
 Frequencies --    430.1015               486.8487               521.5182
 Red. masses --      6.3164                 3.1675                 5.9426
 Frc consts  --      0.6884                 0.4423                 0.9523
 IR Inten    --      3.1882                 6.2487                 4.1590

                     19                     20                     21
                      A                      A                      A
 Frequencies --    537.5671               570.0451               635.0715
 Red. masses --      8.9271                 4.2795                 3.5838
 Frc consts  --      1.5199                 0.8193                 0.8516
 IR Inten    --      7.0172                 0.4160                11.4907

                     22                     23                     24
                      A                      A                      A
 Frequencies --    642.3806               678.6154               721.4223
 Red. masses --      3.8778                 1.8248                10.5627
 Frc consts  --      0.9428                 0.4951                 3.2389
 IR Inten    --      8.1806                18.9210                13.1552

                     25                     26                     27
                      A                      A                      A
 Frequencies --    755.0574               776.3768               792.2872
 Red. masses --      8.0509                 2.0526                 6.6038
 Frc consts  --      2.7043                 0.7289                 2.4424
 IR Inten    --     28.3690                18.3585                66.1122

                     28                     29                     30
                      A                      A                      A
 Frequencies --    818.0745               823.4557               855.0329
 Red. masses --      3.1394                 4.0143                 1.4723
 Frc consts  --      1.2379                 1.6038                 0.6342
 IR Inten    --     43.7700                54.8726                10.6497

                     31                     32                     33
                      A                      A                      A
 Frequencies --    868.2076               885.7382               938.5223
 Red. masses --      1.3889                 2.6071                 5.9044
 Frc consts  --      0.6168                 1.2051                 3.0642
 IR Inten    --     10.7123                 0.8287                48.5361

                     34                     35                     36
                      A                      A                      A
 Frequencies --    956.8233               976.1748               995.7525
 Red. masses --      2.5045                 1.3455                 2.6598
 Frc consts  --      1.3509                 0.7554                 1.5538
 IR Inten    --     11.0210                 3.1830                15.2419

                     37                     38                     39
                      A                      A                      A
 Frequencies --   1025.2358              1032.7890              1046.5377
 Red. masses --      9.8217                 4.2979                 2.2557
 Frc consts  --      6.0825                 2.7010                 1.4556
 IR Inten    --    109.3723                47.0352                20.3806

                     40                     41                     42
                      A                      A                      A
 Frequencies --   1053.6523              1111.0055              1172.4258
 Red. masses --      2.0608                 1.6877                 2.2437
 Frc consts  --      1.3480                 1.2273                 1.8172
 IR Inten    --      2.1192                 2.1237                76.1979

                     43                     44                     45
                      A                      A                      A
 Frequencies --   1198.4229              1202.3531              1214.3066
 Red. masses --      1.2087                 1.2135                 1.8305
 Frc consts  --      1.0228                 1.0336                 1.5903
 IR Inten    --      2.9901                 4.6665                 5.5605

                     46                     47                     48
                      A                      A                      A
 Frequencies --   1248.1221              1280.9087              1284.3159
 Red. masses --      3.1436                 1.4733                 3.2686
 Frc consts  --      2.8853                 1.4243                 3.1765
 IR Inten    --    663.2927                 9.6620               153.1176

                     49                     50                     51
                      A                      A                      A
 Frequencies --   1298.2629              1347.6443              1355.6978
 Red. masses --      1.4156                10.4369                 1.3029
 Frc consts  --      1.4058                11.1680                 1.4109
 IR Inten    --    151.8673               135.0487                10.7099

                     52                     53                     54
                      A                      A                      A
 Frequencies --   1371.4860              1380.8215              1406.7237
 Red. masses --      4.1601                 1.5629                 1.5952
 Frc consts  --      4.6104                 1.7557                 1.8599
 IR Inten    --     71.7187                 3.7099                 6.7572

                     55                     56                     57
                      A                      A                      A
 Frequencies --   1412.3275              1440.5465              1455.7039
 Red. masses --      1.5051                 7.0693                 1.8340
 Frc consts  --      1.7689                 8.6434                 2.2898
 IR Inten    --     33.0985                17.1539                 1.2416

                     58                     59                     60
                      A                      A                      A
 Frequencies --   1497.6686              1508.9138              1516.9021
 Red. masses --      1.0824                 1.1031                 1.1106
 Frc consts  --      1.4305                 1.4797                 1.5056
 IR Inten    --      3.7060                 3.9195                16.7648

                     61                     62                     63
                      A                      A                      A
 Frequencies --   1534.1931              1649.2441              1674.0761
 Red. masses --      6.1986                14.2504                 7.0549
 Frc consts  --      8.5962                22.8374                11.6491
 IR Inten    --     38.7971                94.1728                 5.5698

                     64                     65                     66
                      A                      A                      A
 Frequencies --   1736.4295              1883.1694              2991.3535
 Red. masses --      6.2969                12.2950                 1.0745
 Frc consts  --     11.1864                25.6897                 5.6650
 IR Inten    --      1.7498               213.8010                14.4790

                     67                     68                     69
                      A                      A                      A
 Frequencies --   3002.5750              3088.6555              3089.9838
 Red. masses --      1.0699                 1.0897                 1.0895
 Frc consts  --      5.6830                 6.1247                 6.1290
 IR Inten    --     46.0022                26.6876                28.5565

                     70                     71                     72
                      A                      A                      A
 Frequencies --   3108.8476              3170.2979              3174.2145
 Red. masses --      1.0586                 1.1085                 1.0866
 Frc consts  --      6.0282                 6.5641                 6.4503
 IR Inten    --     24.9699                 3.0982                 6.6040

                     73                     74                     75
                      A                      A                      A
 Frequencies --   3195.3264              3197.3581              3310.6591
 Red. masses --      1.0927                 1.0957                 1.0992
 Frc consts  --      6.5734                 6.5998                 7.0983
 IR Inten    --     20.1174                10.7638                 1.1466

 - Thermochemistry -
 -------------------
 Temperature   298.150 Kelvin.  Pressure   1.00000 Atm.
 Atom     1 has atomic number  6 and mass  12.00000

 Molecular mass:   234.07529 amu.
 Principal axes and moments of inertia in atomic units:
                           1         2         3
     Eigenvalues --  1618.670628946.383799070.49970
           X            0.99993   0.00725  -0.00957
           Y           -0.00767   0.99894  -0.04541
           Z            0.00924   0.04548   0.99892
 This molecule is an asymmetric top.
 Rotational symmetry number  1.
 Warning -- assumption of classical behavior for rotation
           may cause significant error
 Rotational temperatures (Kelvin)      0.05351     0.00968     0.00955
 Rotational constants (GHZ):           1.11495     0.20173     0.19897
 Zero-point vibrational energy     532469.0 (Joules/Mol)
                                  127.26315 (Kcal/Mol)
 Warning -- explicit consideration of  20 degrees of freedom as
           vibrations may cause significant error
 Vibrational temperatures:     33.90    40.05    52.00    95.04   147.87
          (Kelvin)            171.36   183.83   209.04   307.03   315.00
                              370.99   426.82   440.57   528.98   544.43
                              618.82   700.47   750.35   773.44   820.17
                              913.73   924.24   976.38  1037.97  1086.36
                             1117.03  1139.92  1177.03  1184.77  1230.20
                             1249.16  1274.38  1350.32  1376.66  1404.50
                             1432.67  1475.09  1485.95  1505.73  1515.97
                             1598.49  1686.86  1724.26  1729.92  1747.12
                             1795.77  1842.94  1847.84  1867.91  1938.96
                             1950.55  1973.26  1986.69  2023.96  2032.02
                             2072.63  2094.43  2154.81  2170.99  2182.48
                             2207.36  2372.89  2408.62  2498.33  2709.46
                             4303.89  4320.04  4443.89  4445.80  4472.94
                             4561.35  4566.99  4597.36  4600.29  4763.30

 Zero-point correction=                           0.202807 (Hartree/Particle)
 Thermal correction to Energy=                    0.217611
 Thermal correction to Enthalpy=                  0.218556
 Thermal correction to Gibbs Free Energy=         0.157825
 Sum of electronic and zero-point Energies=           -831.473127
 Sum of electronic and thermal Energies=              -831.458323
 Sum of electronic and thermal Enthalpies=            -831.457378
 Sum of electronic and thermal Free Energies=         -831.518109

                     E (Thermal)             CV                S
                      KCal/Mol        Cal/Mol-Kelvin    Cal/Mol-Kelvin
 Total                  136.553             54.060            127.819
 Electronic               0.000              0.000              0.000
 Translational            0.889              2.981             42.253
 Rotational               0.889              2.981             33.240
 Vibrational            134.776             48.098             52.326
 Vibration     1          0.593              1.985              6.309
 Vibration     2          0.593              1.984              5.978
 Vibration     3          0.594              1.982              5.460
 Vibration     4          0.597              1.970              4.268
 Vibration     5          0.605              1.947              3.401
 Vibration     6          0.609              1.933              3.115
 Vibration     7          0.611              1.925              2.979
 Vibration     8          0.617              1.908              2.733
 Vibration     9          0.644              1.821              2.014
 Vibration    10          0.647              1.812              1.968
 Vibration    11          0.667              1.749              1.676
 Vibration    12          0.690              1.680              1.436
 Vibration    13          0.697              1.662              1.383
 Vibration    14          0.740              1.539              1.090
 Vibration    15          0.749              1.516              1.046
 Vibration    16          0.791              1.405              0.858
 Vibration    17          0.843              1.279              0.692
 Vibration    18          0.876              1.202              0.606
 Vibration    19          0.893              1.167              0.571
 Vibration    20          0.926              1.096              0.504

 Optimization completed.
    -- Stationary point found.
 Normal termination of Gaussian 16 at Fri Dec 11 13:14:49 2020.

 ----------------------------------------------------------------------
 # B3LYP/6-311++G(d,p) empiricaldispersion=gd3bj scf=xqc pop=npa geom=c
 heck
 ----------------------------------------------------------------------

 ---------------------------------------
 CID_143785193_JID_7650_Energie_neutraal
 ---------------------------------------
 Structure from the checkpoint file:  "JID_7650.chk"
 Charge =  0 Multiplicity = 1

 SCF Done:  E(RB3LYP) =  -831.905790530     A.U. after   15 cycles
 Normal termination of Gaussian 16 at Fri Dec 11 13:18:28 2020.

 ----------------------------------------------------------------------
 # B3LYP/6-311++G(d,p) empiricaldispersion=gd3bj scf=xqc pop=npa geom=c
 heck
 ----------------------------------------------------------------------

 -------------------------------------
 CID_143785193_JID_7650_Energie_kation
 -------------------------------------
 Structure from the checkpoint file:  "JID_7650.chk"
 Charge =  1 Multiplicity = 2

 SCF Done:  E(UB3LYP) =  -831.604760138     A.U. after   29 cycles
 Normal termination of Gaussian 16 at Fri Dec 11 13:28:17 2020.
 Gaussian 16:  ES64L-G16RevA.03 25-Dec-2016

 ----------------------------------------------------------------------
 # B3LYP/6-311++G(d,p) empiricaldispersion=gd3bj scf=xqc pop=npa geom=c
 heck
 ----------------------------------------------------------------------

 ------------------------------------
 CID_143785193_JID_7650_Energie_anion
 ------------------------------------
 Structure from the checkpoint file:  "JID_7650.chk"
 Charge = -1 Multiplicity = 2

                         Standard orientation:
 ---------------------------------------------------------------------
 Center     Atomic      Atomic             Coordinates (Angstroms)
 Number     Number       Type             X           Y           Z
 ---------------------------------------------------------------------
      1          6           0        4.661969    0.479763   -1.251708
      2          6           0        3.815487    1.575981   -0.583380
      3          6           0        2.981521    1.037090    0.549709
      4          6           0        2.544323   -0.234847    0.534594
      5          6           0        2.897677   -1.124011   -0.582438
      6          6           0        3.876437   -0.796141   -1.438810
      7          6           0        1.652224   -0.763139    1.614949
      8          8           0        0.299611   -1.002757    1.091851
      9          6           0       -0.474535    0.082554    1.009657
     10          8           0       -0.252171    1.189372    1.412788
     11          7           0       -1.685204   -0.285824    0.341136
     12          6           0       -2.036458   -1.498254   -0.210894
     13          7           0       -3.231013   -1.414392   -0.737310
     14          6           0       -3.581970   -0.112240   -0.481233
     15          7           0       -2.679676    0.610940    0.168024
     16          7           0       -4.868397    0.361665   -0.925042
     17          8           0       -5.083093    1.526883   -0.647576
     18          1           0        5.052665    0.841096   -2.209009
     19          1           0        5.542703    0.258470   -0.626198
     20          1           0        4.457878    2.393272   -0.238574
     21          1           0        3.129545    2.018605   -1.324862
     22          1           0        2.671946    1.712618    1.342814
     23          1           0        2.356036   -2.061755   -0.683033
     24          1           0        4.158552   -1.471707   -2.242413
     25          1           0        1.954471   -1.752418    1.964161
     26          1           0        1.576958   -0.074952    2.457450
     27          1           0       -1.385548   -2.358463   -0.187164
 ---------------------------------------------------------------------

 SCF Done:  E(UB3LYP) =  -831.960835060     A.U. after   27 cycles

 The electronic state is 2-A.
 Alpha  occ. eigenvalues --  -19.07701 -19.00076 -18.94367 -14.27238 -14.19286
 Alpha  occ. eigenvalues --  -14.18022 -14.17841 -10.21730 -10.15355 -10.11092
 Alpha  occ. eigenvalues --  -10.10863 -10.10512 -10.10152 -10.10111 -10.09835
 Alpha  occ. eigenvalues --  -10.09787 -10.07775  -1.02290  -0.95095  -0.93494
 Alpha  occ. eigenvalues --   -0.92404  -0.77985  -0.77356  -0.71624  -0.69176
 Alpha  occ. eigenvalues --   -0.67531  -0.62728  -0.57535  -0.54831  -0.52490
 Alpha  occ. eigenvalues --   -0.51654  -0.47507  -0.44774  -0.43395  -0.42209
 Alpha  occ. eigenvalues --   -0.41942  -0.38760  -0.37844  -0.36879  -0.36579
 Alpha  occ. eigenvalues --   -0.34857  -0.34103  -0.33431  -0.32897  -0.30738
 Alpha  occ. eigenvalues --   -0.30523  -0.29485  -0.28313  -0.26758  -0.25609
 Alpha  occ. eigenvalues --   -0.25221  -0.23758  -0.21796  -0.21600  -0.20235
 Alpha  occ. eigenvalues --   -0.18535  -0.17442  -0.14876  -0.14429  -0.13335
 Alpha  occ. eigenvalues --   -0.02663   0.01366
 Alpha virt. eigenvalues --    0.03343   0.05125   0.06989   0.07077   0.08098
 Alpha virt. eigenvalues --    0.08797   0.09299   0.09530   0.10511   0.11129
 Alpha virt. eigenvalues --    0.11778   0.12423   0.12781   0.13416   0.14622

  Beta  occ. eigenvalues --  -19.07677 -18.99945 -18.93477 -14.27179 -14.18770
  Beta  occ. eigenvalues --  -14.17880 -14.17543 -10.21604 -10.15353 -10.11082
  Beta  occ. eigenvalues --  -10.10864 -10.10515 -10.10149 -10.10079 -10.09826
  Beta  occ. eigenvalues --  -10.09730 -10.07765  -1.02137  -0.94582  -0.92608
  Beta  occ. eigenvalues --   -0.91871  -0.77900  -0.77258  -0.71297  -0.68934
  Beta  occ. eigenvalues --   -0.67468  -0.62578  -0.56742  -0.54614  -0.52107
  Beta  occ. eigenvalues --   -0.51557  -0.47353  -0.44607  -0.43351  -0.42077
  Beta  occ. eigenvalues --   -0.41528  -0.38493  -0.37648  -0.36776  -0.36300
  Beta  occ. eigenvalues --   -0.34622  -0.33941  -0.33238  -0.32739  -0.30458
  Beta  occ. eigenvalues --   -0.30266  -0.28911  -0.27972  -0.26640  -0.25257
  Beta  occ. eigenvalues --   -0.23646  -0.21984  -0.21388  -0.20833  -0.20032
  Beta  occ. eigenvalues --   -0.18259  -0.16727  -0.14639  -0.14146  -0.11246
  Beta  occ. eigenvalues --   -0.01794
  Beta virt. eigenvalues --    0.03763   0.05108   0.06973   0.07069   0.08071
  Beta virt. eigenvalues --    0.08389   0.09015   0.09494   0.10508   0.11129
  Beta virt. eigenvalues --    0.11686   0.12126   0.12619   0.12819   0.13422

 Mulliken charges and spin densities:
               1          2
     1  C   -0.557540  -0.006065
     2  C   -0.618432  -0.009382
     3  C    0.009387   0.056862
     4  C    0.826126   0.002321
     5  C   -0.343820  -0.008007
     6  C   -0.126777   0.035637
     7  C   -0.589602  -0.003813
     8  O   -0.008796   0.001448
     9  C    0.084141   0.064207
    10  O   -0.275324   0.046991
    11  N   -0.289350  -0.001692
    12  C    0.094685   0.017894
    13  N   -0.160403  -0.023443
    14  C   -0.144742   0.009824
    15  N   -0.056880   0.250051
    16  N   -0.273313   0.252575
    17  O   -0.218122   0.307910
    18  H    0.126152   0.002846
    19  H    0.131258   0.000243
    20  H    0.135192  -0.001352
    21  H    0.155431   0.005418
    22  H    0.214848   0.001132
    23  H    0.170605   0.000126
    24  H    0.172873   0.000333
    25  H    0.181278   0.001184
    26  H    0.181333  -0.001893
    27  H    0.179793  -0.001354
 Sum of Mulliken charges =  -1.00000   1.00000

 Dipole moment (field-independent basis, Debye):
    X=             18.9045    Y=             -3.8750    Z=              2.1438  Tot=             19.4162
 Quadrupole moment (field-independent basis, Debye-Ang):
   XX=           -194.2111   YY=           -112.7193   ZZ=           -105.1464
   XY=             13.8299   XZ=            -15.1193   YZ=             -4.2165

 Summary of Natural Population Analysis:

                                       Natural Population
                Natural  -----------------------------------------------
    Atom  No    Charge         Core      Valence    Rydberg      Total
 -----------------------------------------------------------------------
      C    1   -0.20590      0.99963     2.19915    0.00713     3.20590
      C    2   -0.20754      0.99963     2.20046    0.00744     3.20754
      C    3   -0.04787      0.99949     2.03976    0.00862     3.04787
      C    4   -0.05757      0.99947     2.04902    0.00908     3.05757
      C    5   -0.10800      0.99951     2.09867    0.00983     3.10800
      C    6   -0.07681      0.99956     2.06801    0.00924     3.07681
      C    7   -0.01952      0.99952     2.00902    0.01098     3.01952
      O    8   -0.28472      0.99986     3.27676    0.00810     4.28472
      C    9    0.48880      0.99972     1.48709    0.02439     2.51120
      O   10   -0.28334      0.99986     3.27790    0.00558     4.28334
      N   11   -0.14184      0.99963     2.62871    0.01350     3.64184
      C   12    0.09872      0.99967     1.88617    0.01545     2.90128
      N   13   -0.25431      0.99970     2.74359    0.01102     3.75431
      C   14    0.20340      0.99964     1.76989    0.02706     2.79660
      N   15   -0.06789      0.99968     2.55405    0.01416     3.56789
      N   16    0.04818      0.99976     2.42099    0.03107     3.45182
      O   17   -0.07460      0.99990     3.06262    0.01208     4.07460
      H   18    0.10045      0.00000     0.39841    0.00114     0.39955
      H   19    0.09722      0.00000     0.40120    0.00158     0.40278
      H   20    0.10033      0.00000     0.39846    0.00121     0.39967
      H   21    0.10554      0.00000     0.39310    0.00136     0.39446
      H   22    0.10277      0.00000     0.39616    0.00107     0.39723
      H   23    0.10252      0.00000     0.39641    0.00107     0.39748
      H   24    0.09434      0.00000     0.40464    0.00103     0.40566
      H   25    0.09203      0.00000     0.40681    0.00116     0.40797
      H   26    0.10138      0.00000     0.39733    0.00129     0.39862
      H   27    0.09425      0.00000     0.40464    0.00111     0.40575
 =======================================================================
   * Total *   -0.00000     16.99423    43.76902    0.23675    61.00000

 Normal termination of Gaussian 16 at Fri Dec 11 13:36:39 2020.
