 Gaussian 16, Revision A.03,

 -----------------------------------------------------------
 # opt freq B3LYP/6-31G(d) empiricaldispersion=gd3bj scf=xqc
 -----------------------------------------------------------

 -------------------------------
 CID_136976233_JID_7706_neutraal
 -------------------------------
 Symbolic Z-matrix:
 Charge =  0 Multiplicity = 1

 SCF Done:  E(RB3LYP) =  -784.714277731     A.U. after   15 cycles
 SCF Done:  E(RB3LYP) =  -784.688522312     A.U. after   13 cycles
 SCF Done:  E(RB3LYP) =  -784.725468308     A.U. after   13 cycles
 SCF Done:  E(RB3LYP) =  -784.725381430     A.U. after   12 cycles
 SCF Done:  E(RB3LYP) =  -784.727766883     A.U. after   11 cycles
 SCF Done:  E(RB3LYP) =  -784.726816004     A.U. after   12 cycles
 SCF Done:  E(RB3LYP) =  -784.728188978     A.U. after   12 cycles
 SCF Done:  E(RB3LYP) =  -784.728495625     A.U. after   12 cycles
 SCF Done:  E(RB3LYP) =  -784.728869359     A.U. after   12 cycles
 SCF Done:  E(RB3LYP) =  -784.720411685     A.U. after   14 cycles
 SCF Done:  E(RB3LYP) =  -784.729312916     A.U. after   11 cycles
 SCF Done:  E(RB3LYP) =  -784.729323513     A.U. after   10 cycles
 SCF Done:  E(RB3LYP) =  -784.729334224     A.U. after    8 cycles
 SCF Done:  E(RB3LYP) =  -784.729335125     A.U. after    8 cycles
 SCF Done:  E(RB3LYP) =  -784.729335434     A.U. after    7 cycles
 Optimization completed.
    -- Stationary point found.
 Normal termination of Gaussian 16 at Mon Dec 14 16:47:40 2020.

 --------------------------------------------------------------------
 #N Geom=AllCheck Guess=TCheck SCRF=Check GenChk RB3LYP/6-31G(d) Freq
 --------------------------------------------------------------------

 Structure from the checkpoint file:  "JID_7706.chk"
 -------------------------------
 CID_136976233_JID_7706_neutraal
 -------------------------------
 Charge =  0 Multiplicity = 1

 SCF Done:  E(RB3LYP) =  -784.729335434     A.U. after    1 cycles

  Exact polarizability: 197.098  -3.804 165.208 -10.702   1.602 105.382
 Approx polarizability: 282.720 -15.286 231.214 -31.421   3.540 160.798

                      1                      2                      3
                      A                      A                      A
 Frequencies --     26.5855                36.6591                74.3617
 Red. masses --      4.5525                 4.0010                 2.9116
 Frc consts  --      0.0019                 0.0032                 0.0095
 IR Inten    --      1.0754                 0.5987                 0.6828

                      4                      5                      6
                      A                      A                      A
 Frequencies --    100.9222               111.7615               120.1566
 Red. masses --      4.5427                 4.0461                 3.2721
 Frc consts  --      0.0273                 0.0298                 0.0278
 IR Inten    --      0.5202                 0.5484                 2.5985

                      7                      8                      9
                      A                      A                      A
 Frequencies --    145.1072               163.6018               188.5601
 Red. masses --      3.9920                 4.9074                 3.3545
 Frc consts  --      0.0495                 0.0774                 0.0703
 IR Inten    --      0.8351                 1.3177                 2.7415

                     10                     11                     12
                      A                      A                      A
 Frequencies --    200.9024               211.4777               239.7726
 Red. masses --      5.5591                 2.2200                 1.3070
 Frc consts  --      0.1322                 0.0585                 0.0443
 IR Inten    --     10.9542                 3.0363                 1.6625

                     13                     14                     15
                      A                      A                      A
 Frequencies --    245.8742               259.1972               265.8115
 Red. masses --      1.2994                 1.6561                 1.2396
 Frc consts  --      0.0463                 0.0656                 0.0516
 IR Inten    --      0.0554                 1.1532                 0.8869

                     16                     17                     18
                      A                      A                      A
 Frequencies --    279.5901               303.6502               324.2796
 Red. masses --      2.8606                 2.9387                 2.3755
 Frc consts  --      0.1318                 0.1596                 0.1472
 IR Inten    --      0.5416                11.1265                 2.7552

                     19                     20                     21
                      A                      A                      A
 Frequencies --    337.8051               366.1480               400.7992
 Red. masses --      3.0317                 2.6186                 1.3836
 Frc consts  --      0.2038                 0.2068                 0.1310
 IR Inten    --      0.9579                13.0852                68.5757

                     22                     23                     24
                      A                      A                      A
 Frequencies --    419.6238               451.0378               496.3258
 Red. masses --      2.0307                 3.3092                 3.5178
 Frc consts  --      0.2107                 0.3966                 0.5106
 IR Inten    --      8.2045                 3.3908                 8.5513

                     25                     26                     27
                      A                      A                      A
 Frequencies --    518.4113               562.0690               574.8184
 Red. masses --      4.7371                 3.0069                 5.1929
 Frc consts  --      0.7501                 0.5597                 1.0109
 IR Inten    --      0.3263                 0.9750                 1.9934

                     28                     29                     30
                      A                      A                      A
 Frequencies --    595.1044               654.8909               683.5977
 Red. masses --      3.6487                 1.5051                 3.2486
 Frc consts  --      0.7613                 0.3803                 0.8944
 IR Inten    --      3.1001                43.7405                 7.6383

                     31                     32                     33
                      A                      A                      A
 Frequencies --    692.6421               710.0159               731.5010
 Red. masses --      2.8538                 1.1374                 2.5220
 Frc consts  --      0.8067                 0.3378                 0.7951
 IR Inten    --      7.2315                76.9736                11.9723

                     34                     35                     36
                      A                      A                      A
 Frequencies --    778.5550               790.9178               803.8306
 Red. masses --      3.2570                 1.9900                 2.1682
 Frc consts  --      1.1632                 0.7334                 0.8254
 IR Inten    --      1.0279                 7.6112                61.7306

                     37                     38                     39
                      A                      A                      A
 Frequencies --    866.2752               873.0603               912.4317
 Red. masses --      2.3074                 2.4235                 2.0071
 Frc consts  --      1.0202                 1.0884                 0.9845
 IR Inten    --      7.8979                 4.0837                 9.4577

                     40                     41                     42
                      A                      A                      A
 Frequencies --    922.0675               941.8024               954.8985
 Red. masses --      1.7109                 3.2842                 1.2282
 Frc consts  --      0.8571                 1.7163                 0.6598
 IR Inten    --      1.2319                16.2833                 5.9657

                     43                     44                     45
                      A                      A                      A
 Frequencies --    976.9693               982.6450               991.4353
 Red. masses --      1.7427                 1.5878                 2.6114
 Frc consts  --      0.9800                 0.9033                 1.5124
 IR Inten    --      5.4352                 1.4074                 6.4669

                     46                     47                     48
                      A                      A                      A
 Frequencies --   1023.7563              1030.4605              1098.2199
 Red. masses --      2.3297                 2.0990                 3.9708
 Frc consts  --      1.4386                 1.3132                 2.8217
 IR Inten    --     16.3884                 4.4697                78.7663

                     49                     50                     51
                      A                      A                      A
 Frequencies --   1103.8046              1118.4126              1137.2545
 Red. masses --      2.5824                 1.8444                 2.2360
 Frc consts  --      1.8538                 1.3593                 1.7039
 IR Inten    --      4.3842                19.2943                10.3854

                     52                     53                     54
                      A                      A                      A
 Frequencies --   1141.3447              1153.6328              1184.5081
 Red. masses --      2.2967                 2.2820                 1.8954
 Frc consts  --      1.7627                 1.7894                 1.5669
 IR Inten    --      5.7289                12.9198                 4.7996

                     55                     56                     57
                      A                      A                      A
 Frequencies --   1208.2582              1231.1503              1243.1215
 Red. masses --      1.8558                 1.7410                 1.3611
 Frc consts  --      1.5963                 1.5547                 1.2393
 IR Inten    --      4.6221                20.1175                12.0618

                     58                     59                     60
                      A                      A                      A
 Frequencies --   1271.9998              1279.0285              1303.0954
 Red. masses --      1.2606                 1.8822                 1.6734
 Frc consts  --      1.2017                 1.8142                 1.6742
 IR Inten    --      4.3723                11.2152                29.4439

                     61                     62                     63
                      A                      A                      A
 Frequencies --   1318.7461              1348.8256              1357.5465
 Red. masses --      1.7787                 1.3531                 1.2042
 Frc consts  --      1.8225                 1.4504                 1.3076
 IR Inten    --     82.6814                 1.2663                10.1744

                     64                     65                     66
                      A                      A                      A
 Frequencies --   1377.5463              1383.9318              1417.9326
 Red. masses --      1.2530                 1.4239                 1.4469
 Frc consts  --      1.4009                 1.6068                 1.7139
 IR Inten    --      1.1443                11.1382                 6.8639

                     67                     68                     69
                      A                      A                      A
 Frequencies --   1422.3612              1425.9441              1430.8560
 Red. masses --      1.3308                 1.3019                 1.2383
 Frc consts  --      1.5863                 1.5597                 1.4937
 IR Inten    --     22.0438                 2.8370                 3.1866

                     70                     71                     72
                      A                      A                      A
 Frequencies --   1440.2471              1453.2222              1460.0426
 Red. masses --      1.2995                 1.2228                 3.0108
 Frc consts  --      1.5882                 1.5215                 3.7815
 IR Inten    --     38.8070                 2.6749                76.6979

                     73                     74                     75
                      A                      A                      A
 Frequencies --   1479.2505              1504.9896              1513.5320
 Red. masses --      1.5756                 1.1645                 1.2851
 Frc consts  --      2.0313                 1.5540                 1.7345
 IR Inten    --      1.9584                15.2450                38.1442

                     76                     77                     78
                      A                      A                      A
 Frequencies --   1515.8540              1520.9825              1525.5896
 Red. masses --      1.0837                 1.1587                 1.1571
 Frc consts  --      1.4671                 1.5793                 1.5867
 IR Inten    --      0.5980                23.8709                12.5961

                     79                     80                     81
                      A                      A                      A
 Frequencies --   1530.3511              1532.4028              1535.3823
 Red. masses --      1.0790                 1.0643                 1.3382
 Frc consts  --      1.4888                 1.4725                 1.8587
 IR Inten    --      5.0827                 7.6411                97.4554

                     82                     83                     84
                      A                      A                      A
 Frequencies --   1540.7464              1542.9341              1546.3422
 Red. masses --      1.2584                 1.0934                 1.1019
 Frc consts  --      1.7600                 1.5336                 1.5524
 IR Inten    --     16.5117                 3.6683                 0.6420

                     85                     86                     87
                      A                      A                      A
 Frequencies --   1618.3146              1669.3885              1807.9119
 Red. masses --      4.4269                 5.8286                 8.7274
 Frc consts  --      6.8309                 9.5705                16.8069
 IR Inten    --    187.2588               609.6659               821.9803

                     88                     89                     90
                      A                      A                      A
 Frequencies --   2990.4722              3024.2994              3037.2108
 Red. masses --      1.0726                 1.0628                 1.0379
 Frc consts  --      5.6515                 5.7273                 5.6411
 IR Inten    --     54.7615                33.7443                35.6107

                     91                     92                     93
                      A                      A                      A
 Frequencies --   3044.0674              3054.2772              3062.4867
 Red. masses --      1.0412                 1.0383                 1.0810
 Frc consts  --      5.6845                 5.7068                 5.9735
 IR Inten    --     18.0102                25.7954                16.7781

                     94                     95                     96
                      A                      A                      A
 Frequencies --   3070.7655              3078.6433              3091.6294
 Red. masses --      1.0840                 1.0840                 1.0941
 Frc consts  --      6.0227                 6.0532                 6.1615
 IR Inten    --      8.4440                48.5718                77.5585

                     97                     98                     99
                      A                      A                      A
 Frequencies --   3095.1442              3101.9311              3112.4426
 Red. masses --      1.0855                 1.1000                 1.0960
 Frc consts  --      6.1269                 6.2360                 6.2552
 IR Inten    --      4.8697                54.8145                12.6089

                    100                    101                    102
                      A                      A                      A
 Frequencies --   3114.5506              3125.2143              3134.4350
 Red. masses --      1.1007                 1.1002                 1.1026
 Frc consts  --      6.2909                 6.3313                 6.3825
 IR Inten    --     35.7513                29.5872                23.7188

                    103                    104                    105
                      A                      A                      A
 Frequencies --   3137.2605              3155.3585              3227.5048
 Red. masses --      1.0964                 1.1015                 1.0914
 Frc consts  --      6.3581                 6.4613                 6.6986
 IR Inten    --     16.2380                 8.1308                 4.5136

                    106                    107                    108
                      A                      A                      A
 Frequencies --   3520.5176              3602.6510              3643.6223
 Red. masses --      1.0689                 1.0773                 1.0769
 Frc consts  --      7.8055                 8.2383                 8.4236
 IR Inten    --    531.6857                49.2155                32.0371

 - Thermochemistry -
 -------------------
 Temperature   298.150 Kelvin.  Pressure   1.00000 Atm.
 Atom     1 has atomic number  6 and mass  12.00000

 Molecular mass:   239.16338 amu.
 Principal axes and moments of inertia in atomic units:
                           1         2         3
     Eigenvalues --  2947.897795306.095297506.33113
           X            0.99812   0.06110   0.00398
           Y           -0.06111   0.99813   0.00101
           Z           -0.00391  -0.00126   0.99999
 This molecule is an asymmetric top.
 Rotational symmetry number  1.
 Warning -- assumption of classical behavior for rotation
           may cause significant error
 Rotational temperatures (Kelvin)      0.02938     0.01632     0.01154
 Rotational constants (GHZ):           0.61221     0.34013     0.24043
 Zero-point vibrational energy     876035.2 (Joules/Mol)
                                  209.37745 (Kcal/Mol)
 Warning -- explicit consideration of  28 degrees of freedom as
           vibrations may cause significant error
 Vibrational temperatures:     38.25    52.74   106.99   145.20   160.80
          (Kelvin)            172.88   208.78   235.39   271.30   289.05
                              304.27   344.98   353.76   372.93   382.44
                              402.27   436.88   466.57   486.03   526.81
                              576.66   603.75   648.94   714.10   745.88
                              808.69   827.04   856.22   942.24   983.54
                              996.56  1021.55  1052.47  1120.17  1137.95
                             1156.53  1246.38  1256.14  1312.79  1326.65
                             1355.04  1373.89  1405.64  1413.81  1426.45
                             1472.96  1482.60  1580.09  1588.13  1609.15
                             1636.26  1642.14  1659.82  1704.24  1738.41
                             1771.35  1788.57  1830.12  1840.24  1874.86
                             1897.38  1940.66  1953.21  1981.98  1991.17
                             2040.09  2046.46  2051.62  2058.68  2072.19
                             2090.86  2100.68  2128.31  2165.34  2177.64
                             2180.98  2188.35  2194.98  2201.83  2204.79
                             2209.07  2216.79  2219.94  2224.84  2328.39
                             2401.88  2601.18  4302.62  4351.29  4369.87
                             4379.73  4394.42  4406.24  4418.15  4429.48
                             4448.17  4453.22  4462.99  4478.11  4481.14
                             4496.49  4509.75  4513.82  4539.86  4643.66
                             5065.24  5183.41  5242.36

 Zero-point correction=                           0.333664 (Hartree/Particle)
 Thermal correction to Energy=                    0.351547
 Thermal correction to Enthalpy=                  0.352491
 Thermal correction to Gibbs Free Energy=         0.288054
 Sum of electronic and zero-point Energies=           -784.395671
 Sum of electronic and thermal Energies=              -784.377789
 Sum of electronic and thermal Enthalpies=            -784.376844
 Sum of electronic and thermal Free Energies=         -784.441281

                     E (Thermal)             CV                S
                      KCal/Mol        Cal/Mol-Kelvin    Cal/Mol-Kelvin
 Total                  220.599             68.183            135.619
 Electronic               0.000              0.000              0.000
 Translational            0.889              2.981             42.317
 Rotational               0.889              2.981             33.129
 Vibrational            218.822             62.222             60.173
 Vibration     1          0.593              1.984              6.069
 Vibration     2          0.594              1.982              5.432
 Vibration     3          0.599              1.966              4.034
 Vibration     4          0.604              1.948              3.436
 Vibration     5          0.607              1.940              3.238
 Vibration     6          0.609              1.932              3.098
 Vibration     7          0.616              1.908              2.735
 Vibration     8          0.623              1.887              2.508
 Vibration     9          0.633              1.856              2.242
 Vibration    10          0.638              1.839              2.125
 Vibration    11          0.643              1.823              2.031
 Vibration    12          0.657              1.780              1.805
 Vibration    13          0.660              1.770              1.760
 Vibration    14          0.668              1.747              1.667
 Vibration    15          0.672              1.736              1.623
 Vibration    16          0.680              1.711              1.536
 Vibration    17          0.695              1.667              1.397
 Vibration    18          0.709              1.627              1.288
 Vibration    19          0.718              1.600              1.222
 Vibration    20          0.739              1.542              1.096
 Vibration    21          0.767              1.468              0.960
 Vibration    22          0.782              1.428              0.893
 Vibration    23          0.810              1.359              0.793
 Vibration    24          0.852              1.258              0.667
 Vibration    25          0.873              1.209              0.614
 Vibration    26          0.918              1.113              0.520
 Vibration    27          0.931              1.086              0.495
 Vibration    28          0.953              1.042              0.458

                           ! Non-Optimized Parameters !
 Normal termination of Gaussian 16 at Mon Dec 14 17:02:37 2020.

 ----------------------------------------------------------------------
 # B3LYP/6-311++G(d,p) empiricaldispersion=gd3bj scf=xqc pop=npa geom=c
 heck
 ----------------------------------------------------------------------

 ---------------------------------------
 CID_136976233_JID_7706_Energie_neutraal
 ---------------------------------------
 Structure from the checkpoint file:  "JID_7706.chk"
 Charge =  0 Multiplicity = 1

 SCF Done:  E(RB3LYP) =  -784.963209587     A.U. after   15 cycles
 Normal termination of Gaussian 16 at Mon Dec 14 17:10:26 2020.

 ----------------------------------------------------------------------
 # B3LYP/6-311++G(d,p) empiricaldispersion=gd3bj scf=xqc pop=npa geom=c
 heck
 ----------------------------------------------------------------------

 -------------------------------------
 CID_136976233_JID_7706_Energie_kation
 -------------------------------------
 Structure from the checkpoint file:  "JID_7706.chk"
 Charge =  1 Multiplicity = 2

 SCF Done:  E(UB3LYP) =  -784.676370088     A.U. after   23 cycles
 Normal termination of Gaussian 16 at Mon Dec 14 17:29:02 2020.
 Gaussian 16:  ES64L-G16RevA.03 25-Dec-2016

 ----------------------------------------------------------------------
 # B3LYP/6-311++G(d,p) empiricaldispersion=gd3bj scf=xqc pop=npa geom=c
 heck
 ----------------------------------------------------------------------

 ------------------------------------
 CID_136976233_JID_7706_Energie_anion
 ------------------------------------
 Structure from the checkpoint file:  "JID_7706.chk"
 Charge = -1 Multiplicity = 2

                         Standard orientation:
 ---------------------------------------------------------------------
 Center     Atomic      Atomic             Coordinates (Angstroms)
 Number     Number       Type             X           Y           Z
 ---------------------------------------------------------------------
      1          6           0        3.113956    2.383071    0.637017
      2          6           0        1.746373    1.919130    0.117706
      3          6           0        1.483633    2.416154   -1.318219
      4          6           0        1.564874    0.416219    0.170459
      5          7           0        0.378388   -0.074694    0.438392
      6          6           0        0.234066   -1.450596    0.412751
      7          6           0        1.276644   -2.310725    0.111943
      8          6           0        2.576929   -1.804175   -0.180946
      9          8           0        3.604373   -2.409884   -0.462145
     10          7           0        2.619667   -0.372742   -0.118217
     11          7           0       -1.009170   -1.915591    0.730266
     12          6           0       -2.168702   -1.056997    0.923672
     13          6           0       -2.734189   -0.474982   -0.388566
     14          6           0       -3.521527   -1.534417   -1.163735
     15          6           0       -3.564165    0.797064   -0.152506
     16          6           0       -2.784879    1.918193    0.556290
     17          8           0       -1.498513    2.137687    0.000950
     18          1           0        3.932065    2.097090   -0.036668
     19          1           0        3.331684    1.980655    1.631890
     20          1           0        3.127920    3.475273    0.701389
     21          1           0        0.963445    2.334275    0.758821
     22          1           0        2.189137    1.965934   -2.026502
     23          1           0        0.463070    2.178205   -1.627336
     24          1           0        1.603973    3.503593   -1.359806
     25          1           0        1.139579   -3.385622    0.101386
     26          1           0        3.527737    0.030346   -0.315678
     27          1           0       -1.163735   -2.902989    0.594445
     28          1           0       -2.934293   -1.651264    1.435322
     29          1           0       -1.874437   -0.262248    1.611206
     30          1           0       -1.873764   -0.178900   -0.999047
     31          1           0       -4.412462   -1.851217   -0.605909
     32          1           0       -3.854926   -1.148674   -2.133360
     33          1           0       -2.908685   -2.423530   -1.355021
     34          1           0       -3.906057    1.161380   -1.129461
     35          1           0       -4.467158    0.566120    0.432426
     36          1           0       -3.332874    2.861469    0.459712
     37          1           0       -2.712088    1.707029    1.635421
     38          1           0       -0.945289    1.354199    0.208041
 ---------------------------------------------------------------------

 SCF Done:  E(UB3LYP) =  -784.956660153     A.U. after   33 cycles
 SCF Done:  E(UB3LYP) =  -784.956660153     a.u. after    1 cycles

 The electronic state is 2-A.
 Alpha  occ. eigenvalues --  -19.00453 -18.96802 -14.24596 -14.22539 -14.19779
 Alpha  occ. eigenvalues --  -10.15761 -10.13889 -10.13887 -10.11335 -10.10034
 Alpha  occ. eigenvalues --  -10.09163 -10.08282 -10.07217 -10.06745 -10.06653
 Alpha  occ. eigenvalues --  -10.05840 -10.04231  -0.92640  -0.90918  -0.88037
 Alpha  occ. eigenvalues --   -0.84064  -0.77186  -0.71665  -0.70559  -0.65649
 Alpha  occ. eigenvalues --   -0.62328  -0.60210  -0.58856  -0.56748  -0.53621
 Alpha  occ. eigenvalues --   -0.51555  -0.49537  -0.46353  -0.45423  -0.42448
 Alpha  occ. eigenvalues --   -0.41518  -0.39769  -0.37628  -0.36978  -0.36353
 Alpha  occ. eigenvalues --   -0.35656  -0.34208  -0.33921  -0.32945  -0.31709
 Alpha  occ. eigenvalues --   -0.30774  -0.30565  -0.30131  -0.29989  -0.29453
 Alpha  occ. eigenvalues --   -0.27798  -0.27646  -0.26783  -0.26212  -0.25511
 Alpha  occ. eigenvalues --   -0.24545  -0.23969  -0.22998  -0.22283  -0.21663
 Alpha  occ. eigenvalues --   -0.17987  -0.16702  -0.14998  -0.14864  -0.10474
 Alpha  occ. eigenvalues --    0.04257
 Alpha virt. eigenvalues --    0.06067   0.06497   0.07307   0.07939   0.08693
 Alpha virt. eigenvalues --    0.08881   0.09091   0.09797   0.10512   0.11066
 Alpha virt. eigenvalues --    0.11133   0.11448   0.11864   0.12017   0.12679

  Beta  occ. eigenvalues --  -19.00452 -18.96809 -14.24477 -14.22502 -14.19823
  Beta  occ. eigenvalues --  -10.15773 -10.13763 -10.13540 -10.11326 -10.10016
  Beta  occ. eigenvalues --  -10.09187 -10.08265 -10.07218 -10.06733 -10.06606
  Beta  occ. eigenvalues --  -10.05800 -10.04165  -0.92556  -0.90913  -0.87842
  Beta  occ. eigenvalues --   -0.83884  -0.77054  -0.71548  -0.70528  -0.65510
  Beta  occ. eigenvalues --   -0.62282  -0.60136  -0.58778  -0.56407  -0.53561
  Beta  occ. eigenvalues --   -0.51447  -0.49441  -0.46298  -0.45322  -0.42359
  Beta  occ. eigenvalues --   -0.41452  -0.39684  -0.37541  -0.36861  -0.36294
  Beta  occ. eigenvalues --   -0.35430  -0.34069  -0.33676  -0.32894  -0.31619
  Beta  occ. eigenvalues --   -0.30728  -0.30498  -0.30083  -0.29941  -0.29414
  Beta  occ. eigenvalues --   -0.27693  -0.27503  -0.26576  -0.26079  -0.25465
  Beta  occ. eigenvalues --   -0.24488  -0.23849  -0.22954  -0.22141  -0.21238
  Beta  occ. eigenvalues --   -0.17970  -0.16685  -0.14838  -0.14725  -0.10087
  Beta virt. eigenvalues --    0.06201   0.06864   0.07712   0.08052   0.08549
  Beta virt. eigenvalues --    0.09046   0.09287   0.09323   0.09894   0.10639
  Beta virt. eigenvalues --    0.11217   0.11348   0.11690   0.11972   0.12130

 Mulliken charges and spin densities:
               1          2
     1  C   -0.492086  -0.176796
     2  C   -0.371728   0.545515
     3  C   -0.063489  -0.452507
     4  C    0.002978  -0.181957
     5  N   -0.196214  -0.042569
     6  C    0.641786  -0.636980
     7  C   -0.440993   0.486063
     8  C    0.169207  -0.257812
     9  O   -0.409260  -0.000828
    10  N   -0.143807   0.073125
    11  N   -0.065623   0.036318
    12  C    0.003070  -0.480308
    13  C   -0.266128   0.675229
    14  C    0.622305  -1.280413
    15  C   -0.210307   0.021144
    16  C   -0.206735  -0.316485
    17  O   -0.281623   0.020400
    18  H    0.066123   0.044785
    19  H    0.113973   0.047222
    20  H   -0.022899   0.182995
    21  H    0.169460   0.071256
    22  H    0.088345   0.057176
    23  H    0.027419   0.144371
    24  H   -0.125190   0.270514
    25  H   -0.001036   0.154074
    26  H    0.360787  -0.044350
    27  H    0.090592   0.201623
    28  H   -0.506889   0.683574
    29  H    0.240049  -0.016784
    30  H    0.319886  -0.121245
    31  H   -0.181064   0.321761
    32  H   -0.117176   0.248898
    33  H   -0.283356   0.421446
    34  H    0.090695   0.047239
    35  H   -0.080873   0.204518
    36  H    0.023007   0.133016
    37  H    0.001434   0.131320
    38  H    0.435359  -0.214544
 Sum of Mulliken charges =  -1.00000   1.00000

 Dipole moment (field-independent basis, Debye):
    X=              1.4463    Y=              4.5050    Z=              1.3441  Tot=              4.9187
 Quadrupole moment (field-independent basis, Debye-Ang):
   XX=           -174.8320   YY=           -161.8283   ZZ=           -128.2992
   XY=              3.9733   XZ=              3.7260   YZ=             -0.8525

 Summary of Natural Population Analysis:

                                       Natural Population
                Natural  -----------------------------------------------
    Atom  No    Charge         Core      Valence    Rydberg      Total
 -----------------------------------------------------------------------
      C    1   -0.28284      0.99966     2.27851    0.00467     3.28284
      C    2   -0.14174      0.99958     2.13255    0.00961     3.14174
      C    3   -0.27792      0.99964     2.27232    0.00596     3.27792
      C    4    0.31468      0.99958     1.67054    0.01520     2.68532
      N    5   -0.32380      0.99962     2.81490    0.00928     3.82380
      C    6    0.23882      0.99952     1.74760    0.01405     2.76118
      C    7   -0.21013      0.99948     2.20193    0.00872     3.21013
      C    8    0.31268      0.99962     1.66567    0.02203     2.68732
      O    9   -0.34353      0.99988     3.33740    0.00626     4.34353
      N   10   -0.28807      0.99962     2.78113    0.00733     3.78807
      N   11   -0.30054      0.99966     2.79056    0.01032     3.80054
      C   12   -0.08816      0.99959     2.07576    0.01281     3.08816
      C   13   -0.12676      0.99959     2.11688    0.01029     3.12676
      C   14   -0.28242      0.99965     2.27665    0.00612     3.28242
      C   15   -0.19977      0.99961     2.19163    0.00854     3.19977
      C   16   -0.00760      0.99960     1.99615    0.01185     3.00760
      O   17   -0.39686      0.99989     3.38997    0.00699     4.39686
      H   18    0.09156      0.00000     0.40740    0.00104     0.40844
      H   19    0.10154      0.00000     0.39767    0.00079     0.39846
      H   20    0.10196      0.00000     0.39726    0.00078     0.39804
      H   21    0.11404      0.00000     0.38372    0.00224     0.38596
      H   22    0.09290      0.00000     0.40624    0.00086     0.40710
      H   23    0.11258      0.00000     0.38628    0.00114     0.38742
      H   24    0.09865      0.00000     0.40028    0.00107     0.40135
      H   25    0.10564      0.00000     0.39324    0.00112     0.39436
      H   26    0.19760      0.00000     0.29968    0.00271     0.30240
      H   27    0.19269      0.00000     0.30505    0.00225     0.30731
      H   28    0.09845      0.00000     0.40011    0.00144     0.40155
      H   29    0.10104      0.00000     0.39701    0.00195     0.39896
      H   30    0.10295      0.00000     0.39452    0.00253     0.39705
      H   31    0.09670      0.00000     0.40177    0.00152     0.40330
      H   32    0.09780      0.00000     0.40132    0.00088     0.40220
      H   33    0.10147      0.00000     0.39718    0.00135     0.39853
      H   34    0.09691      0.00000     0.40207    0.00102     0.40309
      H   35    0.09641      0.00000     0.40238    0.00121     0.40359
      H   36    0.08294      0.00000     0.41586    0.00120     0.41706
      H   37    0.07165      0.00000     0.42703    0.00132     0.42835
      H   38    0.24849      0.00000     0.24735    0.00416     0.25151
 =======================================================================
   * Total *   -0.00000     16.99379    47.80360    0.20261    65.00000

 Normal termination of Gaussian 16 at Mon Dec 14 17:54:37 2020.
