 Gaussian 16, Revision A.03,

 -----------------------------------------------------------
 # opt freq B3LYP/6-31G(d) empiricaldispersion=gd3bj scf=xqc
 -----------------------------------------------------------

 -------------------------------
 CID_116850810_JID_5744_neutraal
 -------------------------------
 Symbolic Z-matrix:
 Charge =  0 Multiplicity = 1

 SCF Done:  E(RB3LYP) =  -723.492600783     A.U. after   15 cycles
 SCF Done:  E(RB3LYP) =  -723.500578735     A.U. after   12 cycles
 SCF Done:  E(RB3LYP) =  -723.501854284     A.U. after   13 cycles
 SCF Done:  E(RB3LYP) =  -723.502189862     A.U. after   12 cycles
 SCF Done:  E(RB3LYP) =  -723.502239809     A.U. after   13 cycles
 SCF Done:  E(RB3LYP) =  -723.502527604     A.U. after   11 cycles
 SCF Done:  E(RB3LYP) =  -723.502569612     A.U. after   11 cycles
 SCF Done:  E(RB3LYP) =  -723.502581959     A.U. after   11 cycles
 SCF Done:  E(RB3LYP) =  -723.502591697     A.U. after   10 cycles
 SCF Done:  E(RB3LYP) =  -723.502600274     A.U. after   10 cycles
 SCF Done:  E(RB3LYP) =  -723.502677463     A.U. after    9 cycles
 SCF Done:  E(RB3LYP) =  -723.502677297     A.U. after    8 cycles
 SCF Done:  E(RB3LYP) =  -723.502677115     A.U. after   10 cycles
 SCF Done:  E(RB3LYP) =  -723.502679069     A.U. after   10 cycles
 SCF Done:  E(RB3LYP) =  -723.502679102     A.U. after    7 cycles
 Optimization completed.
    -- Stationary point found.
 Normal termination of Gaussian 16 at Thu Dec 10 16:53:16 2020.

 --------------------------------------------------------------------
 #N Geom=AllCheck Guess=TCheck SCRF=Check GenChk RB3LYP/6-31G(d) Freq
 --------------------------------------------------------------------

 Structure from the checkpoint file:  "JID_5744.chk"
 -------------------------------
 CID_116850810_JID_5744_neutraal
 -------------------------------
 Charge =  0 Multiplicity = 1

 SCF Done:  E(RB3LYP) =  -723.502679102     A.U. after    1 cycles

  Exact polarizability: 160.010   6.746 125.479  -4.468   5.583  83.009
 Approx polarizability: 233.318   5.387 202.205 -13.584  17.198 129.651

                      1                      2                      3
                      A                      A                      A
 Frequencies --     44.1216                47.5399                75.3993
 Red. masses --      6.0223                 5.6277                 3.5646
 Frc consts  --      0.0069                 0.0075                 0.0119
 IR Inten    --      4.8074                 4.3545                 1.2138

                      4                      5                      6
                      A                      A                      A
 Frequencies --    100.7852               138.4183               158.8281
 Red. masses --      2.8418                 4.6997                 3.9673
 Frc consts  --      0.0170                 0.0531                 0.0590
 IR Inten    --      8.2866                 1.5825                 1.2378

                      7                      8                      9
                      A                      A                      A
 Frequencies --    178.4572               220.9975               242.0371
 Red. masses --      1.0384                 3.2066                 1.3443
 Frc consts  --      0.0195                 0.0923                 0.0464
 IR Inten    --      4.1762                 4.1959                30.5816

                     10                     11                     12
                      A                      A                      A
 Frequencies --    250.5264               300.2436               318.6032
 Red. masses --      3.5515                 4.2547                 4.1250
 Frc consts  --      0.1313                 0.2260                 0.2467
 IR Inten    --     15.5424                 5.5453                10.5476

                     13                     14                     15
                      A                      A                      A
 Frequencies --    329.5814               372.8727               394.9316
 Red. masses --      5.3343                 2.3162                 1.6872
 Frc consts  --      0.3414                 0.1897                 0.1550
 IR Inten    --      4.8550                95.2615               167.9665

                     16                     17                     18
                      A                      A                      A
 Frequencies --    435.1730               458.2901               469.2946
 Red. masses --      2.9956                 5.2168                 3.0379
 Frc consts  --      0.3342                 0.6456                 0.3942
 IR Inten    --      0.5855                 4.0998                 8.1139

                     19                     20                     21
                      A                      A                      A
 Frequencies --    500.6706               538.9830               584.3209
 Red. masses --      3.0463                 4.0569                 1.6134
 Frc consts  --      0.4499                 0.6944                 0.3246
 IR Inten    --      2.3006                 8.3197                23.8717

                     22                     23                     24
                      A                      A                      A
 Frequencies --    634.8625               673.9032               707.0830
 Red. masses --      3.5400                 6.2655                 4.0593
 Frc consts  --      0.8406                 1.6765                 1.1958
 IR Inten    --      7.3661                 4.0490                 5.5340

                     25                     26                     27
                      A                      A                      A
 Frequencies --    724.7963               738.3141               768.6088
 Red. masses --      5.0322                 7.9761                 6.0944
 Frc consts  --      1.5575                 2.5617                 2.1213
 IR Inten    --      1.4873                 1.5533                 2.1577

                     28                     29                     30
                      A                      A                      A
 Frequencies --    821.6775               867.5611               868.5962
 Red. masses --      4.7333                 1.7367                 2.4667
 Frc consts  --      1.8829                 0.7701                 1.0965
 IR Inten    --      5.1394                 1.2270                51.9287

                     31                     32                     33
                      A                      A                      A
 Frequencies --    872.7720               887.0284               969.1381
 Red. masses --      1.4282                 2.3135                 7.3467
 Frc consts  --      0.6410                 1.0725                 4.0655
 IR Inten    --     34.5646                 9.1558                40.0761

                     34                     35                     36
                      A                      A                      A
 Frequencies --   1005.1938              1036.3400              1058.5646
 Red. masses --      2.1292                 1.8273                 2.7394
 Frc consts  --      1.2676                 1.1563                 1.8086
 IR Inten    --    140.1512                 6.5099                 4.5848

                     37                     38                     39
                      A                      A                      A
 Frequencies --   1076.3925              1077.4239              1107.1373
 Red. masses --      1.4778                 4.4511                 1.9489
 Frc consts  --      1.0088                 3.0443                 1.4075
 IR Inten    --      4.5202               139.0410                 4.6730

                     40                     41                     42
                      A                      A                      A
 Frequencies --   1138.0875              1154.2908              1187.6904
 Red. masses --      2.0013                 1.5214                 2.3595
 Frc consts  --      1.5273                 1.1943                 1.9610
 IR Inten    --     17.4561                10.7048                 6.5405

                     43                     44                     45
                      A                      A                      A
 Frequencies --   1208.7471              1215.6740              1228.5565
 Red. masses --      1.9028                 1.1255                 1.6330
 Frc consts  --      1.6380                 0.9800                 1.4522
 IR Inten    --     51.2440                 5.9196                32.8223

                     46                     47                     48
                      A                      A                      A
 Frequencies --   1281.2512              1308.3464              1329.4320
 Red. masses --      1.3416                 4.3497                 1.9383
 Frc consts  --      1.2976                 4.3869                 2.0183
 IR Inten    --      4.2611               167.2621               108.9082

                     49                     50                     51
                      A                      A                      A
 Frequencies --   1370.0790              1402.8043              1429.9440
 Red. masses --      2.7676                 1.7301                 2.3696
 Frc consts  --      3.0609                 2.0059                 2.8547
 IR Inten    --     43.8835                11.2429                53.3745

                     52                     53                     54
                      A                      A                      A
 Frequencies --   1438.3686              1444.2853              1472.9494
 Red. masses --      1.6689                 1.3053                 2.7799
 Frc consts  --      2.0344                 1.6042                 3.5535
 IR Inten    --      5.2702                 3.5863                 1.0476

                     55                     56                     57
                      A                      A                      A
 Frequencies --   1516.9103              1538.9416              1544.5223
 Red. masses --      1.0601                 1.2114                 2.4683
 Frc consts  --      1.4372                 1.6904                 3.4692
 IR Inten    --      6.3296                37.7577               253.0371

                     58                     59                     60
                      A                      A                      A
 Frequencies --   1574.2594              1643.3614              1672.4944
 Red. masses --      1.1933                 1.2376                 9.1699
 Frc consts  --      1.7424                 1.9692                15.1128
 IR Inten    --      3.4015                95.3218                 2.1046

                     61                     62                     63
                      A                      A                      A
 Frequencies --   1676.4860              1705.5553              1803.1322
 Red. masses --      6.7669                 1.0867                 9.3696
 Frc consts  --     11.2057                 1.8626                17.9484
 IR Inten    --      4.4311                27.8544               283.4489

                     64                     65                     66
                      A                      A                      A
 Frequencies --   3029.3871              3038.4284              3042.0696
 Red. masses --      1.0669                 1.0746                 1.0501
 Frc consts  --      5.7688                 5.8451                 5.7255
 IR Inten    --    138.7518                 4.9157                39.0172

                     67                     68                     69
                      A                      A                      A
 Frequencies --   3104.2431              3125.2370              3136.3539
 Red. masses --      1.0926                 1.1045                 1.1032
 Frc consts  --      6.2031                 6.3561                 6.3939
 IR Inten    --     16.2057                51.7535                12.2818

                     70                     71                     72
                      A                      A                      A
 Frequencies --   3216.4325              3218.8136              3452.7871
 Red. masses --      1.0912                 1.0916                 1.0501
 Frc consts  --      6.6514                 6.6636                 7.3757
 IR Inten    --      5.0344                 3.6972                 1.1611

                     73                     74                     75
                      A                      A                      A
 Frequencies --   3533.8018              3578.0746              3700.2609
 Red. masses --      1.0907                 1.0451                 1.1038
 Frc consts  --      8.0251                 7.8834                 8.9045
 IR Inten    --      1.4401                22.1528                35.3458

 - Thermochemistry -
 -------------------
 Temperature   298.150 Kelvin.  Pressure   1.00000 Atm.
 Atom     1 has atomic number  6 and mass  12.00000

 Molecular mass:   208.08479 amu.
 Principal axes and moments of inertia in atomic units:
                           1         2         3
     Eigenvalues --  1720.416294537.811955560.55267
           X            0.99990   0.01384   0.00276
           Y           -0.01384   0.99990   0.00064
           Z           -0.00275  -0.00068   1.00000
 This molecule is an asymmetric top.
 Rotational symmetry number  1.
 Warning -- assumption of classical behavior for rotation
           may cause significant error
 Rotational temperatures (Kelvin)      0.05034     0.01909     0.01558
 Rotational constants (GHZ):           1.04901     0.39771     0.32456
 Zero-point vibrational energy     571321.7 (Joules/Mol)
                                  136.54916 (Kcal/Mol)
 Warning -- explicit consideration of  21 degrees of freedom as
           vibrations may cause significant error
 Vibrational temperatures:     63.48    68.40   108.48   145.01   199.15
          (Kelvin)            228.52   256.76   317.97   348.24   360.45
                              431.98   458.40   474.19   536.48   568.22
                              626.12   659.38   675.21   720.35   775.48
                              840.71   913.43   969.60  1017.33  1042.82
                             1062.27  1105.86  1182.21  1248.23  1249.72
                             1255.72  1276.24  1394.37  1446.25  1491.06
                             1523.04  1548.69  1550.17  1592.92  1637.45
                             1660.77  1708.82  1739.12  1749.08  1767.62
                             1843.43  1882.42  1912.76  1971.24  2018.32
                             2057.37  2069.49  2078.00  2119.25  2182.50
                             2214.19  2222.22  2265.01  2364.43  2406.35
                             2412.09  2453.91  2594.31  4358.61  4371.62
                             4376.86  4466.31  4496.52  4512.51  4627.73
                             4631.15  4967.79  5084.35  5148.05  5323.85

 Zero-point correction=                           0.217605 (Hartree/Particle)
 Thermal correction to Energy=                    0.231663
 Thermal correction to Enthalpy=                  0.232607
 Thermal correction to Gibbs Free Energy=         0.176333
 Sum of electronic and zero-point Energies=           -723.285074
 Sum of electronic and thermal Energies=              -723.271017
 Sum of electronic and thermal Enthalpies=            -723.270072
 Sum of electronic and thermal Free Energies=         -723.326346

                     E (Thermal)             CV                S
                      KCal/Mol        Cal/Mol-Kelvin    Cal/Mol-Kelvin
 Total                  145.370             53.045            118.439
 Electronic               0.000              0.000              0.000
 Translational            0.889              2.981             41.902
 Rotational               0.889              2.981             32.140
 Vibrational            143.593             47.083             44.396
 Vibration     1          0.595              1.980              5.065
 Vibration     2          0.595              1.979              4.917
 Vibration     3          0.599              1.965              4.007
 Vibration     4          0.604              1.948              3.439
 Vibration     5          0.614              1.915              2.826
 Vibration     6          0.621              1.893              2.564
 Vibration     7          0.629              1.869              2.344
 Vibration     8          0.648              1.809              1.951
 Vibration     9          0.658              1.776              1.788
 Vibration    10          0.663              1.762              1.727
 Vibration    11          0.693              1.673              1.416
 Vibration    12          0.705              1.638              1.317
 Vibration    13          0.712              1.616              1.262
 Vibration    14          0.744              1.528              1.068
 Vibration    15          0.762              1.481              0.981
 Vibration    16          0.796              1.394              0.842
 Vibration    17          0.816              1.343              0.771
 Vibration    18          0.826              1.318              0.740
 Vibration    19          0.856              1.249              0.656
 Vibration    20          0.894              1.164              0.567
 Vibration    21          0.941              1.065              0.477

 Optimization completed.
    -- Stationary point found.
 Normal termination of Gaussian 16 at Thu Dec 10 17:01:09 2020.

 ----------------------------------------------------------------------
 # B3LYP/6-311++G(d,p) empiricaldispersion=gd3bj scf=xqc pop=npa geom=c
 heck
 ----------------------------------------------------------------------

 ---------------------------------------
 CID_116850810_JID_5744_Energie_neutraal
 ---------------------------------------
 Structure from the checkpoint file:  "JID_5744.chk"
 Charge =  0 Multiplicity = 1

 SCF Done:  E(RB3LYP) =  -723.718187358     A.U. after   16 cycles
 Normal termination of Gaussian 16 at Thu Dec 10 17:04:29 2020.

 ----------------------------------------------------------------------
 # B3LYP/6-311++G(d,p) empiricaldispersion=gd3bj scf=xqc pop=npa geom=c
 heck
 ----------------------------------------------------------------------

 -------------------------------------
 CID_116850810_JID_5744_Energie_kation
 -------------------------------------
 Structure from the checkpoint file:  "JID_5744.chk"
 Charge =  1 Multiplicity = 2

 SCF Done:  E(UB3LYP) =  -723.430489839     A.U. after   25 cycles
 Normal termination of Gaussian 16 at Thu Dec 10 17:12:01 2020.
 Gaussian 16:  ES64L-G16RevA.03 25-Dec-2016

 ----------------------------------------------------------------------
 # B3LYP/6-311++G(d,p) empiricaldispersion=gd3bj scf=xqc pop=npa geom=c
 heck
 ----------------------------------------------------------------------

 ------------------------------------
 CID_116850810_JID_5744_Energie_anion
 ------------------------------------
 Structure from the checkpoint file:  "JID_5744.chk"
 Charge = -1 Multiplicity = 2

                         Standard orientation:
 ---------------------------------------------------------------------
 Center     Atomic      Atomic             Coordinates (Angstroms)
 Number     Number       Type             X           Y           Z
 ---------------------------------------------------------------------
      1          6           0        0.655405    2.902906    0.381930
      2          6           0       -0.107432    1.607849    0.227459
      3          6           0       -1.515166    1.627737    0.303732
      4          6           0       -2.195705    0.443083    0.113714
      5          6           0       -1.529132   -0.747585   -0.150428
      6          6           0       -0.154068   -0.801569   -0.223399
      7          6           0        0.565926    0.396677   -0.018923
      8          6           0        2.078233    0.384940   -0.169749
      9          6           0        2.737094   -0.934669    0.295905
     10          8           0        3.571464   -1.512647   -0.386380
     11          7           0        2.401117   -1.340479    1.557582
     12          7           0        2.450267    0.745992   -1.537963
     13          8           0       -2.439782   -1.772686   -0.274761
     14          6           0       -3.723435   -1.137321   -0.280049
     15          8           0       -3.550279    0.213810    0.165821
     16          1           0        1.343997    3.047874   -0.456670
     17          1           0        1.250640    2.919852    1.304446
     18          1           0       -0.029506    3.754795    0.419810
     19          1           0       -2.049385    2.551631    0.497697
     20          1           0        0.354573   -1.737100   -0.430793
     21          1           0        2.498852    1.151566    0.494669
     22          1           0        1.553471   -0.998637    1.987504
     23          1           0        2.754987   -2.236149    1.865754
     24          1           0        3.428677    0.483438   -1.667059
     25          1           0        1.931528    0.142037   -2.175479
     26          1           0       -4.127200   -1.135208   -1.302308
     27          1           0       -4.391871   -1.662789    0.406502
 ---------------------------------------------------------------------

 SCF Done:  E(UB3LYP) =  -723.706110128     A.U. after   33 cycles
 SCF Done:  E(UB3LYP) =  -723.706110128     a.u. after    1 cycles

 The electronic state is 2-A.
 Alpha  occ. eigenvalues --  -19.07374 -19.07188 -19.00152 -14.23314 -14.20328
 Alpha  occ. eigenvalues --  -10.19229 -10.17958 -10.13926 -10.13764 -10.11948
 Alpha  occ. eigenvalues --  -10.09237 -10.08924 -10.08543 -10.08300 -10.07306
 Alpha  occ. eigenvalues --   -1.03467  -0.94969  -0.94342  -0.81285  -0.80208
 Alpha  occ. eigenvalues --   -0.76747  -0.68930  -0.67166  -0.61405  -0.60866
 Alpha  occ. eigenvalues --   -0.55819  -0.53318  -0.51189  -0.48284  -0.44786
 Alpha  occ. eigenvalues --   -0.43805  -0.42574  -0.42221  -0.39764  -0.38548
 Alpha  occ. eigenvalues --   -0.37560  -0.35863  -0.34723  -0.34272  -0.32613
 Alpha  occ. eigenvalues --   -0.32231  -0.30809  -0.29873  -0.29353  -0.29269
 Alpha  occ. eigenvalues --   -0.29034  -0.27459  -0.25886  -0.25478  -0.21473
 Alpha  occ. eigenvalues --   -0.18488  -0.17773  -0.15870  -0.15469  -0.11490
 Alpha  occ. eigenvalues --    0.04363
 Alpha virt. eigenvalues --    0.06230   0.06904   0.07641   0.07975   0.08658
 Alpha virt. eigenvalues --    0.08768   0.09686   0.09840   0.10044   0.10996
 Alpha virt. eigenvalues --    0.11529   0.12193   0.12423   0.13351   0.13846

  Beta  occ. eigenvalues --  -19.07372 -19.07186 -19.00146 -14.23246 -14.20320
  Beta  occ. eigenvalues --  -10.19184 -10.17955 -10.13916 -10.13757 -10.11939
  Beta  occ. eigenvalues --  -10.09237 -10.08909 -10.08515 -10.08270 -10.07287
  Beta  occ. eigenvalues --   -1.03453  -0.94954  -0.94333  -0.81219  -0.80165
  Beta  occ. eigenvalues --   -0.76712  -0.68890  -0.67115  -0.61345  -0.60823
  Beta  occ. eigenvalues --   -0.55759  -0.53252  -0.51160  -0.48196  -0.44733
  Beta  occ. eigenvalues --   -0.43768  -0.42530  -0.42176  -0.39721  -0.38513
  Beta  occ. eigenvalues --   -0.37513  -0.35817  -0.34685  -0.34241  -0.32575
  Beta  occ. eigenvalues --   -0.32207  -0.30789  -0.29830  -0.29338  -0.29231
  Beta  occ. eigenvalues --   -0.29003  -0.27438  -0.25854  -0.25454  -0.21404
  Beta  occ. eigenvalues --   -0.18433  -0.17754  -0.15830  -0.15350  -0.11417
  Beta virt. eigenvalues --    0.06671   0.07340   0.07588   0.08021   0.08176
  Beta virt. eigenvalues --    0.09045   0.09600   0.09845   0.10024   0.10650
  Beta virt. eigenvalues --    0.11000   0.11760   0.12314   0.12559   0.13496

 Mulliken charges and spin densities:
               1          2
     1  C    1.060058  -1.638950
     2  C   -0.382669   0.496750
     3  C   -0.867984  -0.270395
     4  C   -0.054600   0.218228
     5  C    0.159560   0.306402
     6  C   -0.608017  -0.147628
     7  C    0.757821   0.636170
     8  C    0.353000  -1.122200
     9  C   -0.359756   0.122514
    10  O   -0.346160   0.022982
    11  N   -0.275162  -0.022735
    12  N   -0.297818   0.067534
    13  O   -0.209716   0.070869
    14  C    1.515006  -1.558323
    15  O   -0.206162   0.064800
    16  H    0.146874   0.069829
    17  H   -0.214610   0.380425
    18  H    0.071497   0.077545
    19  H   -0.238685   0.388033
    20  H   -0.039717   0.260327
    21  H    0.116298   0.106831
    22  H   -0.096180   0.353937
    23  H   -0.360776   0.671084
    24  H    0.198659   0.022277
    25  H    0.201858   0.017370
    26  H   -0.451697   0.642993
    27  H   -0.570919   0.763332
 Sum of Mulliken charges =  -1.00000   1.00000

 Dipole moment (field-independent basis, Debye):
    X=              1.0610    Y=              3.6716    Z=             -3.0296  Tot=              4.8770
 Quadrupole moment (field-independent basis, Debye-Ang):
   XX=           -163.8925   YY=           -129.2688   ZZ=           -123.1563
   XY=             -0.9438   XZ=             -4.5166   YZ=              4.4860

 Summary of Natural Population Analysis:

                                       Natural Population
                Natural  -----------------------------------------------
    Atom  No    Charge         Core      Valence    Rydberg      Total
 -----------------------------------------------------------------------
      C    1   -0.29826      0.99963     2.29300    0.00563     3.29826
      C    2   -0.00923      0.99949     1.99972    0.01002     3.00923
      C    3   -0.11616      0.99947     2.10789    0.00880     3.11616
      C    4    0.13871      0.99932     1.84796    0.01401     2.86129
      C    5    0.13283      0.99932     1.85373    0.01413     2.86717
      C    6   -0.11863      0.99947     2.10939    0.00977     3.11863
      C    7   -0.02967      0.99947     2.01836    0.01184     3.02967
      C    8   -0.06150      0.99953     2.04740    0.01457     3.06150
      C    9    0.33546      0.99968     1.63995    0.02491     2.66454
      O   10   -0.32656      0.99987     3.32013    0.00655     4.32656
      N   11   -0.40059      0.99970     2.89187    0.00902     3.90059
      N   12   -0.41385      0.99977     2.90539    0.00869     3.91385
      O   13   -0.27125      0.99987     3.26316    0.00821     4.27125
      C   14    0.15736      0.99962     1.82726    0.01575     2.84264
      O   15   -0.27179      0.99987     3.26385    0.00807     4.27179
      H   16    0.11226      0.00000     0.38649    0.00126     0.38774
      H   17    0.10478      0.00000     0.39390    0.00132     0.39522
      H   18    0.10048      0.00000     0.39877    0.00075     0.39952
      H   19    0.10481      0.00000     0.39384    0.00134     0.39519
      H   20    0.11079      0.00000     0.38749    0.00173     0.38921
      H   21    0.10708      0.00000     0.39079    0.00213     0.39292
      H   22    0.20272      0.00000     0.29036    0.00692     0.29728
      H   23    0.19757      0.00000     0.29776    0.00467     0.30243
      H   24    0.18084      0.00000     0.31738    0.00178     0.31916
      H   25    0.17401      0.00000     0.32424    0.00176     0.32599
      H   26    0.07349      0.00000     0.42360    0.00292     0.42651
      H   27    0.08430      0.00000     0.41225    0.00345     0.41570
 =======================================================================
   * Total *   -0.00000     14.99410    39.80589    0.20000    55.00000

 Normal termination of Gaussian 16 at Thu Dec 10 17:21:41 2020.
