 Gaussian 16, Revision A.03,

 -----------------------------------------------------------
 # opt freq B3LYP/6-31G(d) empiricaldispersion=gd3bj scf=xqc
 -----------------------------------------------------------

 ------------------------------
 CID_89334213_JID_5092_neutraal
 ------------------------------
 Symbolic Z-matrix:
 Charge =  0 Multiplicity = 1

 SCF Done:  E(RB3LYP) =  -638.064391035     A.U. after   14 cycles
 SCF Done:  E(RB3LYP) =  -638.066743082     A.U. after   12 cycles
 SCF Done:  E(RB3LYP) =  -638.067206253     A.U. after   12 cycles
 SCF Done:  E(RB3LYP) =  -638.067720677     A.U. after   11 cycles
 SCF Done:  E(RB3LYP) =  -638.068084599     A.U. after   12 cycles
 SCF Done:  E(RB3LYP) =  -638.068176427     A.U. after   11 cycles
 SCF Done:  E(RB3LYP) =  -638.068238098     A.U. after   10 cycles
 SCF Done:  E(RB3LYP) =  -638.068255006     A.U. after   10 cycles
 SCF Done:  E(RB3LYP) =  -638.068261009     A.U. after    9 cycles
 SCF Done:  E(RB3LYP) =  -638.068266550     A.U. after    9 cycles
 SCF Done:  E(RB3LYP) =  -638.068268994     A.U. after    8 cycles
 SCF Done:  E(RB3LYP) =  -638.068269713     A.U. after    8 cycles
 SCF Done:  E(RB3LYP) =  -638.068269817     A.U. after    7 cycles
 Optimization completed.
    -- Stationary point found.
 Normal termination of Gaussian 16 at Thu Dec 10 14:49:34 2020.

 --------------------------------------------------------------------
 #N Geom=AllCheck Guess=TCheck SCRF=Check GenChk RB3LYP/6-31G(d) Freq
 --------------------------------------------------------------------

 Structure from the checkpoint file:  "JID_5092.chk"
 ------------------------------
 CID_89334213_JID_5092_neutraal
 ------------------------------
 Charge =  0 Multiplicity = 1

 SCF Done:  E(RB3LYP) =  -638.068269817     A.U. after    1 cycles

  Exact polarizability: 151.350   1.183 141.579   7.109   5.284 116.517
 Approx polarizability: 192.838  -3.026 218.348   6.727  19.586 184.123

                      1                      2                      3
                      A                      A                      A
 Frequencies --     42.3477                56.9785                64.0307
 Red. masses --      4.0558                 5.0583                 3.8690
 Frc consts  --      0.0043                 0.0097                 0.0093
 IR Inten    --      0.3678                 2.2938                 1.3338

                      4                      5                      6
                      A                      A                      A
 Frequencies --    135.7915               145.2198               166.0697
 Red. masses --      2.5721                 2.6736                 3.3831
 Frc consts  --      0.0279                 0.0332                 0.0550
 IR Inten    --      1.9084                 0.1244                 1.1776

                      7                      8                      9
                      A                      A                      A
 Frequencies --    216.0133               234.5372               267.5784
 Red. masses --      3.3608                 1.1572                 2.3044
 Frc consts  --      0.0924                 0.0375                 0.0972
 IR Inten    --      0.4930                 0.1415                 0.7041

                     10                     11                     12
                      A                      A                      A
 Frequencies --    277.0221               313.2144               346.4280
 Red. masses --      2.2184                 2.5162                 2.6033
 Frc consts  --      0.1003                 0.1454                 0.1841
 IR Inten    --      0.2122                 0.9067                 1.8372

                     13                     14                     15
                      A                      A                      A
 Frequencies --    372.4581               382.6499               416.7499
 Red. masses --      2.4204                 3.1154                 2.9757
 Frc consts  --      0.1978                 0.2688                 0.3045
 IR Inten    --      0.0291                 1.2655                 1.3813

                     16                     17                     18
                      A                      A                      A
 Frequencies --    425.6990               430.9387               491.7748
 Red. masses --      2.3172                 2.4477                 3.1930
 Frc consts  --      0.2474                 0.2678                 0.4550
 IR Inten    --      6.3936                 3.2730                 0.0416

                     19                     20                     21
                      A                      A                      A
 Frequencies --    514.9029               546.4556               558.5828
 Red. masses --      2.3365                 2.3805                 2.6130
 Frc consts  --      0.3650                 0.4188                 0.4804
 IR Inten    --      4.9913                 8.4081                17.5746

                     22                     23                     24
                      A                      A                      A
 Frequencies --    615.8543               646.9290               713.9510
 Red. masses --      2.5070                 3.4734                 2.3002
 Frc consts  --      0.5602                 0.8565                 0.6908
 IR Inten    --     15.9944                 5.1596                21.9501

                     25                     26                     27
                      A                      A                      A
 Frequencies --    740.3699               781.1944               797.9232
 Red. masses --      1.7636                 2.8410                 2.7749
 Frc consts  --      0.5696                 1.0215                 1.0409
 IR Inten    --      8.4900                 5.7043                 3.2020

                     28                     29                     30
                      A                      A                      A
 Frequencies --    808.4679               829.9528               850.1703
 Red. masses --      2.7226                 2.5133                 2.6244
 Frc consts  --      1.0485                 1.0200                 1.1176
 IR Inten    --     61.6303                 7.5319                 2.0933

                     31                     32                     33
                      A                      A                      A
 Frequencies --    863.4386               885.0340               909.4261
 Red. masses --      1.9833                 1.6581                 1.6171
 Frc consts  --      0.8711                 0.7652                 0.7880
 IR Inten    --      3.9375                 0.7412                 0.6616

                     34                     35                     36
                      A                      A                      A
 Frequencies --    940.7932               957.6922               970.5255
 Red. masses --      2.0087                 2.4951                 1.3748
 Frc consts  --      1.0475                 1.3483                 0.7630
 IR Inten    --      2.8436                 4.3550                25.7169

                     37                     38                     39
                      A                      A                      A
 Frequencies --    986.2075              1006.0647              1023.3753
 Red. masses --      1.9439                 1.7656                 1.9239
 Frc consts  --      1.1139                 1.0529                 1.1871
 IR Inten    --      0.2025                 2.1566                 1.2934

                     40                     41                     42
                      A                      A                      A
 Frequencies --   1029.5783              1042.5186              1062.4206
 Red. masses --      1.1222                 1.6803                 1.8768
 Frc consts  --      0.7009                 1.0760                 1.2481
 IR Inten    --     33.2080                 7.4704                 0.7187

                     43                     44                     45
                      A                      A                      A
 Frequencies --   1077.6563              1092.4945              1096.8965
 Red. masses --      1.9109                 1.7534                 2.0029
 Frc consts  --      1.3075                 1.2330                 1.4198
 IR Inten    --      6.6364                18.5388                 1.6617

                     46                     47                     48
                      A                      A                      A
 Frequencies --   1125.4963              1138.4048              1148.2455
 Red. masses --      2.6060                 1.3060                 1.3878
 Frc consts  --      1.9449                 0.9972                 1.0781
 IR Inten    --      5.3384                 1.9093                 5.5422

                     49                     50                     51
                      A                      A                      A
 Frequencies --   1168.2532              1181.3051              1193.3322
 Red. masses --      1.9238                 1.6600                 1.4132
 Frc consts  --      1.5470                 1.3648                 1.1857
 IR Inten    --      0.7092                 1.8298                 4.0362

                     52                     53                     54
                      A                      A                      A
 Frequencies --   1252.3214              1269.3467              1303.1113
 Red. masses --      1.5160                 1.3231                 1.2352
 Frc consts  --      1.4008                 1.2561                 1.2358
 IR Inten    --     10.9099                 1.5731                 0.6988

                     55                     56                     57
                      A                      A                      A
 Frequencies --   1315.3886              1322.0783              1329.7737
 Red. masses --      1.3652                 1.3094                 1.4632
 Frc consts  --      1.3917                 1.3485                 1.5245
 IR Inten    --      0.8793                 0.7594                 6.4375

                     58                     59                     60
                      A                      A                      A
 Frequencies --   1341.1180              1361.8492              1364.7649
 Red. masses --      1.2958                 1.3473                 1.4958
 Frc consts  --      1.3731                 1.4723                 1.6415
 IR Inten    --      1.8526                21.3984                12.7576

                     61                     62                     63
                      A                      A                      A
 Frequencies --   1371.4165              1372.1872              1378.9933
 Red. masses --      1.3212                 1.4911                 2.0802
 Frc consts  --      1.4640                 1.6542                 2.3307
 IR Inten    --      0.2295                38.6310               151.5085

                     64                     65                     66
                      A                      A                      A
 Frequencies --   1387.4644              1399.1837              1408.3742
 Red. masses --      1.4938                 1.5435                 1.4792
 Frc consts  --      1.6943                 1.7803                 1.7287
 IR Inten    --      8.2885                17.8720                 1.3369

                     67                     68                     69
                      A                      A                      A
 Frequencies --   1411.0900              1419.8543              1422.4105
 Red. masses --      1.3914                 1.4885                 1.4075
 Frc consts  --      1.6323                 1.7680                 1.6778
 IR Inten    --      1.9551                 1.5604                 0.2027

                     70                     71                     72
                      A                      A                      A
 Frequencies --   1441.0112              1471.1037              1496.6884
 Red. masses --      1.2404                 1.3422                 1.3724
 Frc consts  --      1.5176                 1.7114                 1.8113
 IR Inten    --      3.4309                55.0257                33.5801

                     73                     74                     75
                      A                      A                      A
 Frequencies --   1515.4427              1519.3380              1523.7724
 Red. masses --      1.0879                 1.0909                 1.0650
 Frc consts  --      1.4721                 1.4836                 1.4569
 IR Inten    --      2.2287                 1.7355                 4.3698

                     76                     77                     78
                      A                      A                      A
 Frequencies --   1525.8150              1527.9577              1540.5318
 Red. masses --      1.0564                 1.0873                 1.0862
 Frc consts  --      1.4491                 1.4957                 1.5188
 IR Inten    --      2.0341                11.5512                14.7070

                     79                     80                     81
                      A                      A                      A
 Frequencies --   1546.1635              1703.8193              1763.7319
 Red. masses --      1.0924                 4.6441                 7.2309
 Frc consts  --      1.5387                 7.9432                13.2529
 IR Inten    --      2.2646                52.0111               302.3641

                     82                     83                     84
                      A                      A                      A
 Frequencies --   3025.6461              3027.8541              3030.0348
 Red. masses --      1.0747                 1.0663                 1.0771
 Frc consts  --      5.7964                 5.7597                 5.8262
 IR Inten    --      4.8988                12.0591                 9.5656

                     85                     86                     87
                      A                      A                      A
 Frequencies --   3033.2506              3040.3788              3041.6130
 Red. masses --      1.0704                 1.0706                 1.0705
 Frc consts  --      5.8024                 5.8310                 5.8351
 IR Inten    --     12.1193                 5.3747                33.7442

                     88                     89                     90
                      A                      A                      A
 Frequencies --   3047.9223              3050.9821              3055.2409
 Red. masses --      1.0772                 1.0375                 1.0769
 Frc consts  --      5.8961                 5.6903                 5.9227
 IR Inten    --     67.1437                43.6244                57.2885

                     91                     92                     93
                      A                      A                      A
 Frequencies --   3069.5712              3076.8372              3081.7635
 Red. masses --      1.0967                 1.0980                 1.1004
 Frc consts  --      6.0883                 6.1246                 6.1572
 IR Inten    --     58.7337                30.7307               110.5797

                     94                     95                     96
                      A                      A                      A
 Frequencies --   3083.3382              3100.1569              3111.1987
 Red. masses --      1.0983                 1.0951                 1.1019
 Frc consts  --      6.1519                 6.2012                 6.2844
 IR Inten    --     39.5107                26.5230                45.6399

                     97                     98                     99
                      A                      A                      A
 Frequencies --   3128.3744              3135.7210              3169.5492
 Red. masses --      1.1003                 1.0855                 1.0583
 Frc consts  --      6.3447                 6.2884                 6.2637
 IR Inten    --     24.4050                20.1801                 7.5004

                    100                    101                    102
                      A                      A                      A
 Frequencies --   3197.6862              3252.3365              3569.1312
 Red. masses --      1.0927                 1.1159                 1.0736
 Frc consts  --      6.5831                 6.9544                 8.0580
 IR Inten    --      3.4758                12.7535                15.1168

 - Thermochemistry -
 -------------------
 Temperature   298.150 Kelvin.  Pressure   1.00000 Atm.
 Atom     1 has atomic number  6 and mass  12.00000

 Molecular mass:   207.16231 amu.
 Principal axes and moments of inertia in atomic units:
                           1         2         3
     Eigenvalues --  1911.010723877.214414632.07648
           X            0.99949   0.02879   0.01373
           Y           -0.02839   0.99918  -0.02878
           Z           -0.01454   0.02838   0.99949
 This molecule is an asymmetric top.
 Rotational symmetry number  1.
 Warning -- assumption of classical behavior for rotation
           may cause significant error
 Rotational temperatures (Kelvin)      0.04532     0.02234     0.01870
 Rotational constants (GHZ):           0.94439     0.46547     0.38962
 Zero-point vibrational energy     857866.6 (Joules/Mol)
                                  205.03505 (Kcal/Mol)
 Warning -- explicit consideration of  22 degrees of freedom as
           vibrations may cause significant error
 Vibrational temperatures:     60.93    81.98    92.13   195.37   208.94
          (Kelvin)            238.94   310.79   337.45   384.99   398.57
                              450.65   498.43   535.88   550.55   599.61
                              612.49   620.02   707.55   740.83   786.23
                              803.68   886.08   930.79  1027.22  1065.23
                             1123.96  1148.03  1163.21  1194.12  1223.21
                             1242.30  1273.37  1308.46  1353.59  1377.91
                             1396.37  1418.93  1447.50  1472.41  1481.33
                             1499.95  1528.59  1550.51  1571.86  1578.19
                             1619.34  1637.91  1652.07  1680.86  1699.63
                             1716.94  1801.81  1826.31  1874.89  1892.55
                             1902.18  1913.25  1929.57  1959.40  1963.59
                             1973.16  1974.27  1984.06  1996.25  2013.11
                             2026.34  2030.24  2042.85  2046.53  2073.29
                             2116.59  2153.40  2180.38  2185.99  2192.37
                             2195.31  2198.39  2216.48  2224.58  2451.42
                             2537.62  4353.23  4356.41  4359.54  4364.17
                             4374.43  4376.20  4385.28  4389.68  4395.81
                             4416.43  4426.88  4433.97  4436.24  4460.43
                             4476.32  4501.03  4511.60  4560.27  4600.76
                             4679.39  5135.18

 Zero-point correction=                           0.326744 (Hartree/Particle)
 Thermal correction to Energy=                    0.340839
 Thermal correction to Enthalpy=                  0.341783
 Thermal correction to Gibbs Free Energy=         0.286108
 Sum of electronic and zero-point Energies=           -637.741526
 Sum of electronic and thermal Energies=              -637.727431
 Sum of electronic and thermal Enthalpies=            -637.726487
 Sum of electronic and thermal Free Energies=         -637.782161

                     E (Thermal)             CV                S
                      KCal/Mol        Cal/Mol-Kelvin    Cal/Mol-Kelvin
 Total                  213.880             56.804            117.177
 Electronic               0.000              0.000              0.000
 Translational            0.889              2.981             41.889
 Rotational               0.889              2.981             31.907
 Vibrational            212.102             50.842             43.381
 Vibration     1          0.595              1.980              5.146
 Vibration     2          0.596              1.975              4.559
 Vibration     3          0.597              1.971              4.329
 Vibration     4          0.614              1.918              2.862
 Vibration     5          0.617              1.908              2.734
 Vibration     6          0.624              1.884              2.480
 Vibration     7          0.645              1.817              1.992
 Vibration     8          0.654              1.788              1.844
 Vibration     9          0.673              1.733              1.612
 Vibration    10          0.678              1.716              1.552
 Vibration    11          0.701              1.648              1.345
 Vibration    12          0.724              1.583              1.182
 Vibration    13          0.744              1.529              1.070
 Vibration    14          0.752              1.507              1.029
 Vibration    15          0.780              1.434              0.903
 Vibration    16          0.788              1.414              0.873
 Vibration    17          0.792              1.403              0.856
 Vibration    18          0.848              1.268              0.679
 Vibration    19          0.870              1.217              0.622
 Vibration    20          0.902              1.147              0.552
 Vibration    21          0.914              1.121              0.527
 Vibration    22          0.975              0.998              0.423

 Optimization completed.
    -- Stationary point found.
 Normal termination of Gaussian 16 at Thu Dec 10 15:03:05 2020.

 ----------------------------------------------------------------------
 # B3LYP/6-311++G(d,p) empiricaldispersion=gd3bj scf=xqc pop=npa geom=c
 heck
 ----------------------------------------------------------------------

 --------------------------------------
 CID_89334213_JID_5092_Energie_neutraal
 --------------------------------------
 Structure from the checkpoint file:  "JID_5092.chk"
 Charge =  0 Multiplicity = 1

 SCF Done:  E(RB3LYP) =  -638.246461384     A.U. after   15 cycles
 Normal termination of Gaussian 16 at Thu Dec 10 15:09:23 2020.

 ----------------------------------------------------------------------
 # B3LYP/6-311++G(d,p) empiricaldispersion=gd3bj scf=xqc pop=npa geom=c
 heck
 ----------------------------------------------------------------------

 ------------------------------------
 CID_89334213_JID_5092_Energie_kation
 ------------------------------------
 Structure from the checkpoint file:  "JID_5092.chk"
 Charge =  1 Multiplicity = 2

 SCF Done:  E(UB3LYP) =  -637.927285299     A.U. after   26 cycles
 Normal termination of Gaussian 16 at Thu Dec 10 15:26:07 2020.
 Gaussian 16:  ES64L-G16RevA.03 25-Dec-2016

 ----------------------------------------------------------------------
 # B3LYP/6-311++G(d,p) empiricaldispersion=gd3bj scf=xqc pop=npa geom=c
 heck
 ----------------------------------------------------------------------

 -----------------------------------
 CID_89334213_JID_5092_Energie_anion
 -----------------------------------
 Structure from the checkpoint file:  "JID_5092.chk"
 Charge = -1 Multiplicity = 2

                         Standard orientation:
 ---------------------------------------------------------------------
 Center     Atomic      Atomic             Coordinates (Angstroms)
 Number     Number       Type             X           Y           Z
 ---------------------------------------------------------------------
      1          6           0        0.406861    2.626579   -0.969173
      2          6           0       -0.429053    1.746427   -0.038321
      3          6           0       -1.793113    1.395799   -0.654724
      4          6           0       -2.665360    0.476893    0.254259
      5          6           0       -3.039085   -0.835263   -0.460584
      6          6           0       -1.797503   -1.678263   -0.783878
      7          6           0       -0.874523   -1.847313    0.433681
      8          6           0       -0.582094   -0.536874    1.199612
      9          6           0       -1.920037    0.128740    1.556479
     10          6           0        0.346238    0.496201    0.458143
     11          7           0        1.135917   -0.114415   -0.616030
     12          6           0        2.297413   -0.835920   -0.461873
     13          8           0        2.581625   -1.759306   -1.220273
     14          6           0        3.266131   -0.439370    0.605757
     15          6           0        3.619645    0.815383    0.892702
     16          1           0        1.354236    2.917222   -0.500852
     17          1           0       -0.138587    3.543674   -1.219428
     18          1           0        0.648591    2.107737   -1.901865
     19          1           0       -0.632490    2.336415    0.864658
     20          1           0       -2.325982    2.329681   -0.867940
     21          1           0       -1.634956    0.922170   -1.632895
     22          1           0       -3.592381    1.004121    0.509083
     23          1           0       -3.597640   -0.620524   -1.380802
     24          1           0       -3.711046   -1.412736    0.189633
     25          1           0       -1.251483   -1.209887   -1.613517
     26          1           0       -2.097171   -2.664811   -1.156638
     27          1           0        0.055838   -2.340155    0.133186
     28          1           0       -1.365540   -2.523823    1.146678
     29          1           0       -0.060185   -0.824832    2.120897
     30          1           0       -2.529270   -0.560969    2.154684
     31          1           0       -1.764663    1.020045    2.175154
     32          1           0        1.073979    0.853658    1.186089
     33          1           0        0.596396   -0.497782   -1.384677
     34          1           0        3.789654   -1.281169    1.051577
     35          1           0        4.415799    1.032397    1.599498
     36          1           0        3.149368    1.666808    0.409387
 ---------------------------------------------------------------------

 SCF Done:  E(UB3LYP) =  -638.239642035     A.U. after   33 cycles
 SCF Done:  E(UB3LYP) =  -638.239642035     a.u. after    1 cycles

 The electronic state is 2-A.
 Alpha  occ. eigenvalues --  -18.96540 -14.21070 -10.14576 -10.09670 -10.06965
 Alpha  occ. eigenvalues --  -10.06790 -10.06739 -10.06713 -10.06395 -10.06162
 Alpha  occ. eigenvalues --  -10.06073 -10.05774 -10.05666 -10.05540 -10.05325
 Alpha  occ. eigenvalues --   -0.91616  -0.80827  -0.74277  -0.69052  -0.66304
 Alpha  occ. eigenvalues --   -0.65502  -0.64000  -0.57570  -0.57454  -0.51691
 Alpha  occ. eigenvalues --   -0.51366  -0.48381  -0.46959  -0.44947  -0.42227
 Alpha  occ. eigenvalues --   -0.39755  -0.36290  -0.35761  -0.35457  -0.35036
 Alpha  occ. eigenvalues --   -0.34145  -0.33524  -0.32907  -0.30190  -0.29881
 Alpha  occ. eigenvalues --   -0.29239  -0.28618  -0.27745  -0.27509  -0.26296
 Alpha  occ. eigenvalues --   -0.25861  -0.24949  -0.24410  -0.23289  -0.23153
 Alpha  occ. eigenvalues --   -0.22967  -0.20368  -0.18942  -0.18251  -0.16521
 Alpha  occ. eigenvalues --   -0.14455  -0.13152   0.04380
 Alpha virt. eigenvalues --    0.06087   0.07317   0.07786   0.08112   0.08952
 Alpha virt. eigenvalues --    0.09661   0.09749   0.10191   0.10803   0.11506
 Alpha virt. eigenvalues --    0.11807   0.12474   0.12833   0.13339   0.13715

  Beta  occ. eigenvalues --  -18.96427 -14.21041 -10.14480 -10.09660 -10.06955
  Beta  occ. eigenvalues --  -10.06779 -10.06734 -10.06713 -10.06384 -10.06151
  Beta  occ. eigenvalues --  -10.06064 -10.05765 -10.05645 -10.05415 -10.05172
  Beta  occ. eigenvalues --   -0.91404  -0.80737  -0.74237  -0.69024  -0.66040
  Beta  occ. eigenvalues --   -0.65374  -0.63972  -0.57534  -0.57414  -0.51340
  Beta  occ. eigenvalues --   -0.51271  -0.48341  -0.46904  -0.44772  -0.42180
  Beta  occ. eigenvalues --   -0.39676  -0.36203  -0.35684  -0.35394  -0.34949
  Beta  occ. eigenvalues --   -0.34008  -0.33462  -0.32857  -0.30128  -0.29745
  Beta  occ. eigenvalues --   -0.29161  -0.28562  -0.27620  -0.27266  -0.26253
  Beta  occ. eigenvalues --   -0.25799  -0.24845  -0.24315  -0.23247  -0.23121
  Beta  occ. eigenvalues --   -0.22917  -0.20304  -0.18888  -0.18189  -0.15718
  Beta  occ. eigenvalues --   -0.14169  -0.12831
  Beta virt. eigenvalues --    0.06619   0.07747   0.07858   0.08409   0.08469
  Beta virt. eigenvalues --    0.09141   0.09860   0.10207   0.10430   0.11073
  Beta virt. eigenvalues --    0.11568   0.11971   0.12739   0.13071   0.13584

 Mulliken charges and spin densities:
               1          2
     1  C   -0.000740  -0.711533
     2  C   -0.027161   0.457038
     3  C   -0.105346  -0.845969
     4  C   -0.032502   0.672683
     5  C    0.399824  -1.036185
     6  C   -0.511404   0.395280
     7  C   -0.265379  -0.517869
     8  C    0.102040   0.345974
     9  C    0.301447  -1.095892
    10  C    0.126595  -0.566402
    11  N    0.035188   0.021963
    12  C   -0.141648  -0.025540
    13  O   -0.318833   0.034179
    14  C    0.002688   0.158755
    15  C   -0.383303   0.092200
    16  H    0.049462   0.080445
    17  H   -0.021641   0.169352
    18  H    0.146389  -0.003553
    19  H   -0.349966   0.560944
    20  H   -0.025133   0.180829
    21  H    0.096743   0.063117
    22  H   -0.484577   0.720854
    23  H    0.021263   0.125764
    24  H   -0.066802   0.192320
    25  H    0.013624   0.051583
    26  H    0.094943   0.083191
    27  H    0.200894  -0.011763
    28  H   -0.072549   0.218104
    29  H    0.084558   0.142996
    30  H   -0.234071   0.403034
    31  H   -0.216879   0.368111
    32  H    0.017289   0.147164
    33  H    0.326326  -0.026247
    34  H    0.129017   0.048877
    35  H   -0.021032   0.132080
    36  H    0.130677  -0.025884
 Sum of Mulliken charges =  -1.00000   1.00000

 Dipole moment (field-independent basis, Debye):
    X=             -0.1001    Y=             -0.4325    Z=             -2.2213  Tot=              2.2653
 Quadrupole moment (field-independent basis, Debye-Ang):
   XX=           -158.6575   YY=           -133.4582   ZZ=           -126.0213
   XY=              9.8680   XZ=              9.2944   YZ=             -9.2560

 Summary of Natural Population Analysis:

                                       Natural Population
                Natural  -----------------------------------------------
    Atom  No    Charge         Core      Valence    Rydberg      Total
 -----------------------------------------------------------------------
      C    1   -0.28055      0.99965     2.27459    0.00631     3.28055
      C    2   -0.11560      0.99957     2.10519    0.01084     3.11560
      C    3   -0.18917      0.99960     2.17966    0.00991     3.18917
      C    4   -0.11118      0.99959     2.09917    0.01241     3.11118
      C    5   -0.18555      0.99961     2.17694    0.00900     3.18555
      C    6   -0.19168      0.99962     2.18401    0.00805     3.19168
      C    7   -0.19451      0.99961     2.18622    0.00869     3.19451
      C    8   -0.11162      0.99958     2.10093    0.01111     3.11162
      C    9   -0.18990      0.99960     2.18041    0.00989     3.18990
      C   10   -0.00922      0.99954     1.99445    0.01523     3.00922
      N   11   -0.32436      0.99967     2.81507    0.00962     3.82436
      C   12    0.33932      0.99964     1.63911    0.02193     2.66068
      O   13   -0.31668      0.99988     3.31151    0.00529     4.31668
      C   14   -0.11833      0.99953     2.10729    0.01151     3.11833
      C   15   -0.15179      0.99958     2.14468    0.00753     3.15179
      H   16    0.09998      0.00000     0.39924    0.00078     0.40002
      H   17    0.09654      0.00000     0.40275    0.00070     0.40346
      H   18    0.09880      0.00000     0.40035    0.00085     0.40120
      H   19    0.10045      0.00000     0.39767    0.00188     0.39955
      H   20    0.10233      0.00000     0.39667    0.00099     0.39767
      H   21    0.09033      0.00000     0.40831    0.00136     0.40967
      H   22    0.09996      0.00000     0.39801    0.00203     0.40004
      H   23    0.09599      0.00000     0.40318    0.00083     0.40401
      H   24    0.09589      0.00000     0.40296    0.00114     0.40411
      H   25    0.08715      0.00000     0.41151    0.00133     0.41285
      H   26    0.09896      0.00000     0.40015    0.00089     0.40104
      H   27    0.10782      0.00000     0.39123    0.00095     0.39218
      H   28    0.09646      0.00000     0.40257    0.00097     0.40354
      H   29    0.10104      0.00000     0.39745    0.00150     0.39896
      H   30    0.09979      0.00000     0.39891    0.00130     0.40021
      H   31    0.10279      0.00000     0.39547    0.00174     0.39721
      H   32    0.11300      0.00000     0.38506    0.00194     0.38700
      H   33    0.18706      0.00000     0.31064    0.00231     0.31294
      H   34    0.09755      0.00000     0.40148    0.00096     0.40245
      H   35    0.08916      0.00000     0.40996    0.00088     0.41084
      H   36    0.08973      0.00000     0.40913    0.00113     0.41027
 =======================================================================
   * Total *    0.00000     14.99427    41.82193    0.18380    57.00000

 Normal termination of Gaussian 16 at Thu Dec 10 15:47:12 2020.
