 Gaussian 16, Revision A.03,

 -----------------------------------------------------------
 # opt freq B3LYP/6-31G(d) empiricaldispersion=gd3bj scf=xqc
 -----------------------------------------------------------

 -------------------------------
 CID_146542019_JID_6693_neutraal
 -------------------------------
 Symbolic Z-matrix:
 Charge =  0 Multiplicity = 1

 SCF Done:  E(RB3LYP) =  -1010.36229980     A.U. after   14 cycles
 SCF Done:  E(RB3LYP) =  -1010.37607540     A.U. after   13 cycles
 SCF Done:  E(RB3LYP) =  -1010.37719888     A.U. after   11 cycles
 SCF Done:  E(RB3LYP) =  -1010.37746583     A.U. after   11 cycles
 SCF Done:  E(RB3LYP) =  -1010.37763751     A.U. after   11 cycles
 SCF Done:  E(RB3LYP) =  -1010.37769399     A.U. after   11 cycles
 SCF Done:  E(RB3LYP) =  -1010.37773082     A.U. after   11 cycles
 SCF Done:  E(RB3LYP) =  -1010.37773877     A.U. after   10 cycles
 SCF Done:  E(RB3LYP) =  -1010.37773970     A.U. after    8 cycles
 SCF Done:  E(RB3LYP) =  -1010.37774007     A.U. after    8 cycles
 SCF Done:  E(RB3LYP) =  -1010.37774011     A.U. after    7 cycles
 Optimization completed.
    -- Stationary point found.
 Normal termination of Gaussian 16 at Thu Dec 10 22:49:23 2020.

 --------------------------------------------------------------------
 #N Geom=AllCheck Guess=TCheck SCRF=Check GenChk RB3LYP/6-31G(d) Freq
 --------------------------------------------------------------------

 Structure from the checkpoint file:  "JID_6693.chk"
 -------------------------------
 CID_146542019_JID_6693_neutraal
 -------------------------------
 Charge =  0 Multiplicity = 1

 SCF Done:  E(RB3LYP) =  -1010.37774011     A.U. after    1 cycles

  Exact polarizability: 272.056  -1.092 165.169   3.224  -3.643  72.100
 Approx polarizability: 393.840  -3.794 310.364   7.111 -10.118 113.148

                      1                      2                      3
                      A                      A                      A
 Frequencies --     36.6696                55.5035               130.8141
 Red. masses --      4.1587                 4.8767                 3.9822
 Frc consts  --      0.0033                 0.0089                 0.0401
 IR Inten    --      0.9919                 1.0990                 0.0217

                      4                      5                      6
                      A                      A                      A
 Frequencies --    136.6888               154.1259               221.6879
 Red. masses --      4.8311                 3.9386                 5.2689
 Frc consts  --      0.0532                 0.0551                 0.1526
 IR Inten    --      2.0042                 1.9036                 1.3841

                      7                      8                      9
                      A                      A                      A
 Frequencies --    225.9233               264.0699               300.1965
 Red. masses --      5.0568                 4.1070                 1.2975
 Frc consts  --      0.1521                 0.1687                 0.0689
 IR Inten    --      1.0880                 2.5551                36.5018

                     10                     11                     12
                      A                      A                      A
 Frequencies --    333.0491               347.6937               403.3976
 Red. masses --      1.2897                 2.9556                 5.0067
 Frc consts  --      0.0843                 0.2105                 0.4800
 IR Inten    --     54.0763                27.2381                 1.8924

                     13                     14                     15
                      A                      A                      A
 Frequencies --    430.4567               439.1817               444.0107
 Red. masses --      4.3457                 3.5184                 3.3569
 Frc consts  --      0.4744                 0.3998                 0.3899
 IR Inten    --      3.6805                38.0447                 4.0485

                     16                     17                     18
                      A                      A                      A
 Frequencies --    458.1436               504.9368               515.3588
 Red. masses --      4.0038                 8.4470                 5.1511
 Frc consts  --      0.4951                 1.2689                 0.8061
 IR Inten    --     10.7865                 2.6538                10.7717

                     19                     20                     21
                      A                      A                      A
 Frequencies --    536.6752               540.7942               601.5628
 Red. masses --      3.9541                 4.5336                 4.2124
 Frc consts  --      0.6710                 0.7812                 0.8981
 IR Inten    --     10.5060                 0.5157                 6.5130

                     22                     23                     24
                      A                      A                      A
 Frequencies --    649.3980               694.7766               725.6692
 Red. masses --      4.0593                 4.9688                 5.5212
 Frc consts  --      1.0086                 1.4132                 1.7130
 IR Inten    --      5.0279                21.4512                 2.0716

                     25                     26                     27
                      A                      A                      A
 Frequencies --    728.4105               747.8503               757.1164
 Red. masses --      4.8116                 1.7393                 4.2520
 Frc consts  --      1.5042                 0.5731                 1.4360
 IR Inten    --      1.6929                33.3283                 8.0485

                     28                     29                     30
                      A                      A                      A
 Frequencies --    780.0230               837.8519               863.6277
 Red. masses --      2.3906                 1.5589                 3.4593
 Frc consts  --      0.8570                 0.6447                 1.5202
 IR Inten    --     20.9104                26.2088                43.2869

                     31                     32                     33
                      A                      A                      A
 Frequencies --    867.7107               886.9740               923.4617
 Red. masses --      1.3953                 1.7990                 1.3930
 Frc consts  --      0.6190                 0.8339                 0.6999
 IR Inten    --      0.0366                99.3298                40.5708

                     34                     35                     36
                      A                      A                      A
 Frequencies --    936.4487               941.9907               952.8577
 Red. masses --      1.3601                 1.4423                 1.3048
 Frc consts  --      0.7028                 0.7540                 0.6980
 IR Inten    --      1.2543                53.3914                 0.5914

                     37                     38                     39
                      A                      A                      A
 Frequencies --    977.5835              1022.7955              1032.8965
 Red. masses --      1.2534                 7.0379                 2.0877
 Frc consts  --      0.7058                 4.3378                 1.3123
 IR Inten    --      0.0327                 0.2181                64.6824

                     40                     41                     42
                      A                      A                      A
 Frequencies --   1057.7972              1083.1656              1086.8182
 Red. masses --      2.5526                 2.5639                 3.2839
 Frc consts  --      1.6828                 1.7723                 2.2854
 IR Inten    --      7.6887                15.5230                26.7159

                     43                     44                     45
                      A                      A                      A
 Frequencies --   1098.3130              1159.1723              1172.1752
 Red. masses --      2.5707                 1.6596                 1.5977
 Frc consts  --      1.8271                 1.3139                 1.2934
 IR Inten    --      5.8623                 7.1023                 6.6325

                     46                     47                     48
                      A                      A                      A
 Frequencies --   1176.6708              1196.3182              1229.1396
 Red. masses --      1.3112                 1.1313                 1.5900
 Frc consts  --      1.0696                 0.9539                 1.4153
 IR Inten    --      2.3052                 1.9216                 7.7678

                     49                     50                     51
                      A                      A                      A
 Frequencies --   1267.6425              1279.9570              1301.0283
 Red. masses --      1.8526                 1.6366                 1.5052
 Frc consts  --      1.7539                 1.5797                 1.5012
 IR Inten    --     17.2308                 5.1027                 6.7023

                     52                     53                     54
                      A                      A                      A
 Frequencies --   1349.9829              1365.8717              1368.1394
 Red. masses --      2.4387                 4.5676                 3.9655
 Frc consts  --      2.6186                 5.0207                 4.3733
 IR Inten    --      1.3188                 4.0834                20.3450

                     55                     56                     57
                      A                      A                      A
 Frequencies --   1397.4342              1445.2448              1464.7183
 Red. masses --      1.4192                 2.6786                 1.6173
 Frc consts  --      1.6329                 3.2964                 2.0443
 IR Inten    --     25.1124                39.3101                75.6524

                     58                     59                     60
                      A                      A                      A
 Frequencies --   1491.8737              1504.6392              1531.8642
 Red. masses --      2.5629                 2.4392                 3.3581
 Frc consts  --      3.3608                 3.2535                 4.6428
 IR Inten    --      4.5443                14.7873                 2.1644

                     61                     62                     63
                      A                      A                      A
 Frequencies --   1613.5460              1622.1158              1654.0177
 Red. masses --      5.6618                 6.1207                 5.8797
 Frc consts  --      8.6850                 9.4889                 9.4773
 IR Inten    --      2.7484                 2.8077                 2.5346

                     64                     65                     66
                      A                      A                      A
 Frequencies --   1661.7772              1683.3032              1694.1578
 Red. masses --      5.2450                 1.1233                 1.1083
 Frc consts  --      8.5337                 1.8753                 1.8742
 IR Inten    --      3.7990                50.0943                23.6278

                     67                     68                     69
                      A                      A                      A
 Frequencies --   2970.5451              3185.9772              3188.8463
 Red. masses --      1.0830                 1.0858                 1.0864
 Frc consts  --      5.6305                 6.4935                 6.5088
 IR Inten    --     67.8514                 3.2445                 4.4892

                     70                     71                     72
                      A                      A                      A
 Frequencies --   3194.8400              3204.7845              3206.2994
 Red. masses --      1.0885                 1.0934                 1.0942
 Frc consts  --      6.5460                 6.6165                 6.6277
 IR Inten    --      2.1737                 8.1548                34.6030

                     73                     74                     75
                      A                      A                      A
 Frequencies --   3214.5686              3221.5099              3447.4354
 Red. masses --      1.0973                 1.0904                 1.0495
 Frc consts  --      6.6809                 6.6676                 7.3488
 IR Inten    --     30.7382                 0.1374                 8.5686

                     76                     77                     78
                      A                      A                      A
 Frequencies --   3450.6777              3538.9549              3539.9271
 Red. masses --      1.0495                 1.0920                 1.0927
 Frc consts  --      7.3626                 8.0578                 8.0673
 IR Inten    --      3.5861                 5.4795                 1.8751

 - Thermochemistry -
 -------------------
 Temperature   298.150 Kelvin.  Pressure   1.00000 Atm.
 Atom     1 has atomic number  6 and mass  12.00000

 Molecular mass:   228.07212 amu.
 Principal axes and moments of inertia in atomic units:
                           1         2         3
     Eigenvalues --  1349.997966941.268338054.04693
           X            0.99999   0.00521   0.00078
           Y           -0.00521   0.99999   0.00035
           Z           -0.00078  -0.00036   1.00000
 This molecule is an asymmetric top.
 Rotational symmetry number  1.
 Warning -- assumption of classical behavior for rotation
           may cause significant error
 Rotational temperatures (Kelvin)      0.06416     0.01248     0.01075
 Rotational constants (GHZ):           1.33685     0.26000     0.22408
 Zero-point vibrational energy     590534.3 (Joules/Mol)
                                  141.14110 (Kcal/Mol)
 Warning -- explicit consideration of  21 degrees of freedom as
           vibrations may cause significant error
 Vibrational temperatures:     52.76    79.86   188.21   196.66   221.75
          (Kelvin)            318.96   325.05   379.94   431.92   479.18
                              500.25   580.40   619.33   631.88   638.83
                              659.17   726.49   741.49   772.16   778.08
                              865.51   934.34   999.63  1044.08  1048.02
                             1075.99  1089.32  1122.28  1205.48  1242.57
                             1248.44  1276.16  1328.66  1347.34  1355.31
                             1370.95  1406.52  1471.57  1486.11  1521.93
                             1558.43  1563.69  1580.23  1667.79  1686.50
                             1692.97  1721.24  1768.46  1823.85  1841.57
                             1871.89  1942.32  1965.18  1968.45  2010.60
                             2079.38  2107.40  2146.47  2164.84  2204.01
                             2321.53  2333.86  2379.76  2390.93  2421.90
                             2437.52  4273.95  4583.91  4588.04  4596.66
                             4610.97  4613.15  4625.05  4635.03  4960.09
                             4964.76  5091.77  5093.17

 Zero-point correction=                           0.224923 (Hartree/Particle)
 Thermal correction to Energy=                    0.238048
 Thermal correction to Enthalpy=                  0.238992
 Thermal correction to Gibbs Free Energy=         0.184910
 Sum of electronic and zero-point Energies=          -1010.152817
 Sum of electronic and thermal Energies=             -1010.139692
 Sum of electronic and thermal Enthalpies=           -1010.138748
 Sum of electronic and thermal Free Energies=        -1010.192830

                     E (Thermal)             CV                S
                      KCal/Mol        Cal/Mol-Kelvin    Cal/Mol-Kelvin
 Total                  149.377             53.074            113.824
 Electronic               0.000              0.000              0.000
 Translational            0.889              2.981             42.176
 Rotational               0.889              2.981             32.690
 Vibrational            147.600             47.112             38.959
 Vibration     1          0.594              1.982              5.431
 Vibration     2          0.596              1.975              4.611
 Vibration     3          0.612              1.923              2.934
 Vibration     4          0.614              1.917              2.850
 Vibration     5          0.620              1.898              2.621
 Vibration     6          0.648              1.808              1.945
 Vibration     7          0.650              1.802              1.911
 Vibration     8          0.671              1.739              1.635
 Vibration     9          0.693              1.673              1.416
 Vibration    10          0.715              1.610              1.245
 Vibration    11          0.725              1.580              1.177
 Vibration    12          0.769              1.463              0.950
 Vibration    13          0.792              1.404              0.857
 Vibration    14          0.799              1.385              0.829
 Vibration    15          0.804              1.374              0.814
 Vibration    16          0.816              1.343              0.772
 Vibration    17          0.860              1.239              0.646
 Vibration    18          0.870              1.216              0.621
 Vibration    19          0.892              1.169              0.572
 Vibration    20          0.896              1.160              0.564
 Vibration    21          0.960              1.028              0.447

 Optimization completed.
    -- Stationary point found.
 Normal termination of Gaussian 16 at Thu Dec 10 22:57:44 2020.

 ----------------------------------------------------------------------
 # B3LYP/6-311++G(d,p) empiricaldispersion=gd3bj scf=xqc pop=npa geom=c
 heck
 ----------------------------------------------------------------------

 ---------------------------------------
 CID_146542019_JID_6693_Energie_neutraal
 ---------------------------------------
 Structure from the checkpoint file:  "JID_6693.chk"
 Charge =  0 Multiplicity = 1

 SCF Done:  E(RB3LYP) =  -1010.57245899     A.U. after   15 cycles
 Normal termination of Gaussian 16 at Thu Dec 10 23:02:21 2020.

 ----------------------------------------------------------------------
 # B3LYP/6-311++G(d,p) empiricaldispersion=gd3bj scf=xqc pop=npa geom=c
 heck
 ----------------------------------------------------------------------

 -------------------------------------
 CID_146542019_JID_6693_Energie_kation
 -------------------------------------
 Structure from the checkpoint file:  "JID_6693.chk"
 Charge =  1 Multiplicity = 2

 SCF Done:  E(UB3LYP) =  -1010.29240441     A.U. after   30 cycles
 Normal termination of Gaussian 16 at Thu Dec 10 23:11:33 2020.
 Gaussian 16:  ES64L-G16RevA.03 25-Dec-2016

 ----------------------------------------------------------------------
 # B3LYP/6-311++G(d,p) empiricaldispersion=gd3bj scf=xqc pop=npa geom=c
 heck
 ----------------------------------------------------------------------

 ------------------------------------
 CID_146542019_JID_6693_Energie_anion
 ------------------------------------
 Structure from the checkpoint file:  "JID_6693.chk"
 Charge = -1 Multiplicity = 2

                         Standard orientation:
 ---------------------------------------------------------------------
 Center     Atomic      Atomic             Coordinates (Angstroms)
 Number     Number       Type             X           Y           Z
 ---------------------------------------------------------------------
      1          6           0        4.148186    1.306645   -0.005852
      2          6           0        4.582207   -0.024042    0.092668
      3          6           0        3.664655   -1.070720    0.127110
      4          6           0        2.304276   -0.767191    0.061207
      5          6           0        1.848567    0.567746   -0.038325
      6          6           0        2.791865    1.604163   -0.071045
      7          6           0        0.399283    0.647728   -0.091730
      8          6           0       -0.208954   -0.624369   -0.033662
      9         16           0        0.975334   -1.931658    0.089076
     10          6           0       -1.595438   -0.780047   -0.072582
     11          6           0       -2.397330    0.354715   -0.176841
     12          6           0       -1.802147    1.628607   -0.228417
     13          6           0       -0.424405    1.779732   -0.187870
     14          6           0       -3.915064    0.251314   -0.186816
     15          7           0       -4.330036   -1.109243   -0.568566
     16          7           0       -4.423888    0.630623    1.126770
     17          1           0        4.878129    2.110282   -0.031092
     18          1           0        5.644872   -0.242792    0.142988
     19          1           0        4.000394   -2.100429    0.203673
     20          1           0        2.460150    2.635917   -0.146766
     21          1           0       -2.057290   -1.759726   -0.019042
     22          1           0       -2.442853    2.503505   -0.288908
     23          1           0        0.017901    2.771115   -0.230756
     24          1           0       -4.297737    1.015898   -0.883961
     25          1           0       -5.347468   -1.141284   -0.621314
     26          1           0       -3.987033   -1.326640   -1.505226
     27          1           0       -5.444085    0.620769    1.120025
     28          1           0       -4.127053   -0.075439    1.800677
 ---------------------------------------------------------------------

 SCF Done:  E(UB3LYP) =  -1010.57214556     A.U. after   28 cycles

 The electronic state is 2-A.
 Alpha  occ. eigenvalues --  -88.75077 -14.18718 -14.18237 -10.11495 -10.08967
 Alpha  occ. eigenvalues --  -10.08421 -10.06151 -10.06130 -10.06010 -10.05512
 Alpha  occ. eigenvalues --  -10.05496 -10.05428 -10.05086 -10.05020 -10.04921
 Alpha  occ. eigenvalues --  -10.04856  -7.83725  -5.80051  -5.79712  -5.79217
 Alpha  occ. eigenvalues --   -0.81265  -0.77619  -0.73055  -0.72966  -0.69184
 Alpha  occ. eigenvalues --   -0.65674  -0.63059  -0.60989  -0.58549  -0.54142
 Alpha  occ. eigenvalues --   -0.49875  -0.47585  -0.47017  -0.45373  -0.40175
 Alpha  occ. eigenvalues --   -0.39814  -0.38020  -0.36867  -0.35577  -0.34537
 Alpha  occ. eigenvalues --   -0.33137  -0.32793  -0.31350  -0.30704  -0.29267
 Alpha  occ. eigenvalues --   -0.29027  -0.28803  -0.27139  -0.24357  -0.24194
 Alpha  occ. eigenvalues --   -0.22671  -0.22430  -0.21578  -0.19878  -0.17131
 Alpha  occ. eigenvalues --   -0.14934  -0.14441  -0.14370  -0.10694  -0.10179
 Alpha  occ. eigenvalues --    0.04137
 Alpha virt. eigenvalues --    0.06268   0.07499   0.08770   0.08905   0.09356
 Alpha virt. eigenvalues --    0.09731   0.09865   0.10500   0.10661   0.11218
 Alpha virt. eigenvalues --    0.12292   0.12795   0.13234   0.13430   0.13974

  Beta  occ. eigenvalues --  -88.75072 -14.18685 -14.18177 -10.11502 -10.08968
  Beta  occ. eigenvalues --  -10.08406 -10.06214 -10.06060 -10.05927 -10.05404
  Beta  occ. eigenvalues --  -10.05332 -10.05258 -10.05130 -10.04902 -10.04857
  Beta  occ. eigenvalues --  -10.04664  -7.83719  -5.80048  -5.79710  -5.79198
  Beta  occ. eigenvalues --   -0.81163  -0.77445  -0.72870  -0.72852  -0.69029
  Beta  occ. eigenvalues --   -0.65352  -0.62861  -0.60713  -0.58438  -0.53879
  Beta  occ. eigenvalues --   -0.49693  -0.47516  -0.46856  -0.45175  -0.40092
  Beta  occ. eigenvalues --   -0.39716  -0.37930  -0.36736  -0.35450  -0.34425
  Beta  occ. eigenvalues --   -0.33045  -0.32673  -0.31271  -0.30612  -0.28973
  Beta  occ. eigenvalues --   -0.28854  -0.28578  -0.27090  -0.24104  -0.23800
  Beta  occ. eigenvalues --   -0.22548  -0.22369  -0.21525  -0.19520  -0.16211
  Beta  occ. eigenvalues --   -0.14744  -0.14377  -0.13936  -0.09882  -0.09702
  Beta virt. eigenvalues --    0.07060   0.07462   0.08210   0.08731   0.09312
  Beta virt. eigenvalues --    0.09457   0.09893   0.09992   0.10540   0.10837
  Beta virt. eigenvalues --    0.11431   0.12373   0.13002   0.13512   0.13979

 Mulliken charges and spin densities:
               1          2
     1  C   -0.361091  -0.052213
     2  C   -0.402092   0.145876
     3  C   -0.640927   0.051550
     4  C   -0.325718   0.008181
     5  C    1.637906   0.006912
     6  C   -0.444841   0.139612
     7  C    1.686293  -0.075334
     8  C   -0.154795   0.056846
     9  S   -0.831864   0.012268
    10  C   -0.770546   0.128157
    11  C    0.749940  -0.017205
    12  C   -0.690851  -0.138013
    13  C   -0.547679   0.087141
    14  C    0.171604  -0.660461
    15  N   -0.395247   0.045084
    16  N   -0.291432  -0.025333
    17  H    0.131189   0.004244
    18  H    0.112509  -0.011331
    19  H    0.123230  -0.005917
    20  H    0.080212  -0.012304
    21  H    0.188111  -0.010740
    22  H    0.134039   0.011073
    23  H    0.056169   0.006568
    24  H   -0.227094   0.409919
    25  H   -0.107577   0.374129
    26  H    0.145241   0.063343
    27  H   -0.186481   0.412332
    28  H    0.161793   0.045615
 Sum of Mulliken charges =  -1.00000   1.00000

 Dipole moment (field-independent basis, Debye):
    X=              5.8330    Y=             -0.5786    Z=             -0.6168  Tot=              5.8940
 Quadrupole moment (field-independent basis, Debye-Ang):
   XX=           -187.4618   YY=           -117.8309   ZZ=           -118.5746
   XY=              2.4203   XZ=              3.3834   YZ=             -1.6612

 Summary of Natural Population Analysis:

                                       Natural Population
                Natural  -----------------------------------------------
    Atom  No    Charge         Core      Valence    Rydberg      Total
 -----------------------------------------------------------------------
      C    1   -0.12530      0.99958     2.11648    0.00924     3.12530
      C    2   -0.09544      0.99962     2.07833    0.01749     3.09544
      C    3   -0.05584      0.99951     2.05087    0.00546     3.05584
      C    4   -0.10069      0.99943     2.08260    0.01866     3.10069
      C    5   -0.02541      0.99943     2.01568    0.01029     3.02541
      C    6   -0.06020      0.99953     2.05266    0.00800     3.06020
      C    7   -0.03285      0.99945     2.02282    0.01058     3.03285
      C    8   -0.06511      0.99933     2.05530    0.01049     3.06511
      S    9    0.16714      4.99944     2.81434    0.01908     7.83286
      C   10   -0.11585      0.99946     2.10431    0.01207     3.11585
      C   11   -0.00442      0.99952     1.98776    0.01714     3.00442
      C   12   -0.06144      0.99953     2.05317    0.00874     3.06144
      C   13   -0.08298      0.99957     2.06829    0.01512     3.08298
      C   14    0.06930      0.99960     1.91493    0.01618     2.93070
      N   15   -0.43202      0.99976     2.92164    0.01062     3.93202
      N   16   -0.41436      0.99977     2.90359    0.01101     3.91436
      H   17    0.09317      0.00000     0.40582    0.00101     0.40683
      H   18    0.09076      0.00000     0.40821    0.00102     0.40924
      H   19    0.09067      0.00000     0.40769    0.00164     0.40933
      H   20    0.09500      0.00000     0.40371    0.00129     0.40500
      H   21    0.10924      0.00000     0.38925    0.00151     0.39076
      H   22    0.09436      0.00000     0.40432    0.00132     0.40564
      H   23    0.09390      0.00000     0.40430    0.00180     0.40610
      H   24    0.07843      0.00000     0.41859    0.00298     0.42157
      H   25    0.17510      0.00000     0.32203    0.00288     0.32490
      H   26    0.17467      0.00000     0.32379    0.00154     0.32533
      H   27    0.17324      0.00000     0.32295    0.00382     0.32676
      H   28    0.17305      0.00000     0.32510    0.00185     0.32695
 =======================================================================
   * Total *    0.00613     19.99253    39.77850    0.22284    59.99387

 Normal termination of Gaussian 16 at Thu Dec 10 23:19:54 2020.
