 Gaussian 16, Revision A.03,

 -----------------------------------------------------------
 # opt freq B3LYP/6-31G(d) empiricaldispersion=gd3bj scf=xqc
 -----------------------------------------------------------

 -------------------------------
 CID_149713631_JID_4464_neutraal
 -------------------------------
 Symbolic Z-matrix:
 Charge =  0 Multiplicity = 1

 SCF Done:  E(RB3LYP) =  -662.814871191     A.U. after   15 cycles
 SCF Done:  E(RB3LYP) =  -662.819941487     A.U. after   13 cycles
 SCF Done:  E(RB3LYP) =  -662.821372246     A.U. after   14 cycles
 SCF Done:  E(RB3LYP) =  -662.822062363     A.U. after   12 cycles
 SCF Done:  E(RB3LYP) =  -662.822196894     A.U. after   12 cycles
 SCF Done:  E(RB3LYP) =  -662.822365949     A.U. after   11 cycles
 SCF Done:  E(RB3LYP) =  -662.822423058     A.U. after   11 cycles
 SCF Done:  E(RB3LYP) =  -662.822500482     A.U. after   12 cycles
 SCF Done:  E(RB3LYP) =  -662.822545447     A.U. after   10 cycles
 SCF Done:  E(RB3LYP) =  -662.822613746     A.U. after   12 cycles
 SCF Done:  E(RB3LYP) =  -662.822626474     A.U. after    9 cycles
 SCF Done:  E(RB3LYP) =  -662.822627125     A.U. after    8 cycles
 SCF Done:  E(RB3LYP) =  -662.822627310     A.U. after    8 cycles
 SCF Done:  E(RB3LYP) =  -662.822627316     A.U. after    7 cycles
 SCF Done:  E(RB3LYP) =  -662.822627368     A.U. after    7 cycles
 SCF Done:  E(RB3LYP) =  -662.822627384     A.U. after    7 cycles
 Optimization completed.
    -- Stationary point found.
 Normal termination of Gaussian 16 at Thu Dec 10 09:53:36 2020.

 --------------------------------------------------------------------
 #N Geom=AllCheck Guess=TCheck SCRF=Check GenChk RB3LYP/6-31G(d) Freq
 --------------------------------------------------------------------

 Structure from the checkpoint file:  "JID_4464.chk"
 -------------------------------
 CID_149713631_JID_4464_neutraal
 -------------------------------
 Charge =  0 Multiplicity = 1

 SCF Done:  E(RB3LYP) =  -662.822627384     A.U. after    1 cycles

  Exact polarizability: 131.894 -14.879 117.711  -9.932   7.265  98.220
 Approx polarizability: 170.598 -38.131 192.655 -24.881  28.703 169.562

                      1                      2                      3
                      A                      A                      A
 Frequencies --     25.1005                49.9367                62.5255
 Red. masses --      8.9425                 5.6552                 4.0165
 Frc consts  --      0.0033                 0.0083                 0.0093
 IR Inten    --      0.1976                 0.4974                 1.7269

                      4                      5                      6
                      A                      A                      A
 Frequencies --    113.0467               149.7203               180.6331
 Red. masses --      3.7151                 3.5665                 5.1781
 Frc consts  --      0.0280                 0.0471                 0.0995
 IR Inten    --      0.2434                 2.1242                 3.7189

                      7                      8                      9
                      A                      A                      A
 Frequencies --    225.8948               235.6109               276.7432
 Red. masses --      3.4065                 2.6042                 2.1175
 Frc consts  --      0.1024                 0.0852                 0.0955
 IR Inten    --      1.6696                 5.6718                 1.7328

                     10                     11                     12
                      A                      A                      A
 Frequencies --    303.2372               338.5006               384.9885
 Red. masses --      3.1122                 2.2709                 1.9744
 Frc consts  --      0.1686                 0.1533                 0.1724
 IR Inten    --      7.3895                 1.6133                 7.2381

                     13                     14                     15
                      A                      A                      A
 Frequencies --    431.3193               453.3477               496.5235
 Red. masses --      2.1952                 2.3173                 5.5638
 Frc consts  --      0.2406                 0.2806                 0.8082
 IR Inten    --      2.8145                 0.2552                 5.5895

                     16                     17                     18
                      A                      A                      A
 Frequencies --    509.4145               560.0860               572.9107
 Red. masses --      3.3258                 2.6147                13.7070
 Frc consts  --      0.5085                 0.4833                 2.6507
 IR Inten    --      4.2615                 4.9502                11.4549

                     19                     20                     21
                      A                      A                      A
 Frequencies --    641.2803               649.9855               677.7537
 Red. masses --      5.8879                 2.2181                 5.8157
 Frc consts  --      1.4266                 0.5521                 1.5740
 IR Inten    --     71.1653                 8.2069                17.9513

                     22                     23                     24
                      A                      A                      A
 Frequencies --    769.4432               806.6517               811.0903
 Red. masses --      3.8136                 1.9149                 2.2381
 Frc consts  --      1.3303                 0.7341                 0.8675
 IR Inten    --      6.7551                18.3061               125.9214

                     25                     26                     27
                      A                      A                      A
 Frequencies --    818.0263               872.5905               885.1254
 Red. masses --      4.1515                 2.2124                 3.5674
 Frc consts  --      1.6368                 0.9925                 1.6467
 IR Inten    --     88.4942                11.5947                 6.5364

                     28                     29                     30
                      A                      A                      A
 Frequencies --    910.0930               955.6586               986.0610
 Red. masses --      2.2523                 1.8889                 2.2846
 Frc consts  --      1.0991                 1.0164                 1.3088
 IR Inten    --     18.0520                17.5684                 5.4129

                     31                     32                     33
                      A                      A                      A
 Frequencies --    998.0331              1008.4704              1020.0699
 Red. masses --      1.7404                 2.2250                 2.2145
 Frc consts  --      1.0214                 1.3332                 1.3577
 IR Inten    --     11.4987                11.3459                 5.7282

                     34                     35                     36
                      A                      A                      A
 Frequencies --   1022.8008              1118.5871              1124.2270
 Red. masses --      1.7719                 3.3747                 2.1950
 Frc consts  --      1.0921                 2.4879                 1.6346
 IR Inten    --      7.2815                50.9120                 2.6303

                     37                     38                     39
                      A                      A                      A
 Frequencies --   1135.7809              1147.6011              1173.7450
 Red. masses --      2.4955                 1.7260                 2.2013
 Frc consts  --      1.8967                 1.3393                 1.7868
 IR Inten    --     22.6085                39.0422                78.7834

                     40                     41                     42
                      A                      A                      A
 Frequencies --   1179.9537              1196.4209              1206.5483
 Red. masses --      2.0833                 1.7744                 1.9199
 Frc consts  --      1.7090                 1.4965                 1.6467
 IR Inten    --     10.5870                50.7558                24.4752

                     43                     44                     45
                      A                      A                      A
 Frequencies --   1234.3638              1251.2540              1275.3881
 Red. masses --      1.4624                 1.3709                 1.9231
 Frc consts  --      1.3128                 1.2646                 1.8431
 IR Inten    --      8.6261                 7.7759               120.8304

                     46                     47                     48
                      A                      A                      A
 Frequencies --   1287.7903              1314.1569              1327.7796
 Red. masses --      1.8166                 1.5559                 1.9400
 Frc consts  --      1.7750                 1.5831                 2.0151
 IR Inten    --    147.3846                39.1334                19.8664

                     49                     50                     51
                      A                      A                      A
 Frequencies --   1348.7620              1360.0526              1376.6880
 Red. masses --      1.5282                 1.4169                 1.4542
 Frc consts  --      1.6379                 1.5441                 1.6238
 IR Inten    --     41.1238                12.6829                 2.2579

                     52                     53                     54
                      A                      A                      A
 Frequencies --   1383.8636              1399.5802              1407.7227
 Red. masses --      1.3695                 1.3453                 1.4537
 Frc consts  --      1.5452                 1.5526                 1.6973
 IR Inten    --     13.2769                20.9106                 2.7087

                     55                     56                     57
                      A                      A                      A
 Frequencies --   1414.5370              1424.3908              1448.8535
 Red. masses --      1.3762                 1.4342                 1.3323
 Frc consts  --      1.6225                 1.7144                 1.6478
 IR Inten    --      3.9527                 0.9917                22.2274

                     58                     59                     60
                      A                      A                      A
 Frequencies --   1493.0415              1509.9491              1511.1791
 Red. masses --      1.0996                 1.0812                 1.1227
 Frc consts  --      1.4443                 1.4524                 1.5105
 IR Inten    --      7.2313                 2.0379                 8.9023

                     61                     62                     63
                      A                      A                      A
 Frequencies --   1513.1525              1516.3043              1522.8847
 Red. masses --      1.1040                 1.1530                 1.0975
 Frc consts  --      1.4893                 1.5619                 1.4996
 IR Inten    --      3.1078                 2.8356                 2.3611

                     64                     65                     66
                      A                      A                      A
 Frequencies --   1538.6597              1574.7782              2246.8767
 Red. masses --      1.0874                 1.0946                13.6378
 Frc consts  --      1.5167                 1.5994                40.5651
 IR Inten    --      3.6693                 4.9279               592.2076

                     67                     68                     69
                      A                      A                      A
 Frequencies --   2959.9601              3032.4067              3036.1535
 Red. masses --      1.0720                 1.0642                 1.0647
 Frc consts  --      5.5336                 5.7655                 5.7827
 IR Inten    --     59.8427                 2.3466                27.2508

                     70                     71                     72
                      A                      A                      A
 Frequencies --   3042.6128              3057.9299              3060.4274
 Red. masses --      1.0663                 1.0595                 1.0623
 Frc consts  --      5.8162                 5.8374                 5.8623
 IR Inten    --     59.6512                34.5490                34.6879

                     73                     74                     75
                      A                      A                      A
 Frequencies --   3070.3904              3076.8996              3085.8429
 Red. masses --      1.0655                 1.0912                 1.0982
 Frc consts  --      5.9180                 6.0868                 6.1615
 IR Inten    --     32.2894                65.9727                36.1527

                     76                     77                     78
                      A                      A                      A
 Frequencies --   3094.5498              3097.6618              3103.5805
 Red. masses --      1.0944                 1.1012                 1.1070
 Frc consts  --      6.1748                 6.2256                 6.2824
 IR Inten    --     33.5117                17.1458                15.7493

                     79                     80                     81
                      A                      A                      A
 Frequencies --   3105.3472              3148.5191              3460.5635
 Red. masses --      1.1068                 1.1044                 1.0734
 Frc consts  --      6.2882                 6.4502                 7.5740
 IR Inten    --     56.9950                12.9098                 3.5445

 - Thermochemistry -
 -------------------
 Temperature   298.150 Kelvin.  Pressure   1.00000 Atm.
 Atom     1 has atomic number  6 and mass  12.00000

 Molecular mass:   197.12766 amu.
 Principal axes and moments of inertia in atomic units:
                           1         2         3
     Eigenvalues --  1339.813364143.140054765.75813
           X            0.99984   0.01712  -0.00525
           Y           -0.01706   0.99980   0.01078
           Z            0.00543  -0.01069   0.99993
 This molecule is an asymmetric top.
 Rotational symmetry number  1.
 Warning -- assumption of classical behavior for rotation
           may cause significant error
 Rotational temperatures (Kelvin)      0.06465     0.02091     0.01817
 Rotational constants (GHZ):           1.34701     0.43560     0.37869
 Zero-point vibrational energy     655555.9 (Joules/Mol)
                                  156.68163 (Kcal/Mol)
 Warning -- explicit consideration of  18 degrees of freedom as
           vibrations may cause significant error
 Vibrational temperatures:     36.11    71.85    89.96   162.65   215.41
          (Kelvin)            259.89   325.01   338.99   398.17   436.29
                              487.03   553.91   620.57   652.27   714.39
                              732.93   805.84   824.29   922.66   935.18
                              975.14  1107.06  1160.59  1166.98  1176.96
                             1255.46  1273.50  1309.42  1374.98  1418.72
                             1435.95  1450.96  1467.65  1471.58  1609.40
                             1617.51  1634.14  1651.14  1688.76  1697.69
                             1721.38  1735.95  1775.97  1800.28  1835.00
                             1852.84  1890.78  1910.38  1940.57  1956.81
                             1980.75  1991.07  2013.68  2025.40  2035.20
                             2049.38  2084.58  2148.15  2172.48  2174.25
                             2177.09  2181.62  2191.09  2213.79  2265.75
                             3232.75  4258.72  4362.96  4368.35  4377.64
                             4399.68  4403.27  4417.61  4426.97  4439.84
                             4452.37  4456.84  4465.36  4467.90  4530.02
                             4978.98

 Zero-point correction=                           0.249688 (Hartree/Particle)
 Thermal correction to Energy=                    0.262371
 Thermal correction to Enthalpy=                  0.263315
 Thermal correction to Gibbs Free Energy=         0.209326
 Sum of electronic and zero-point Energies=           -662.572939
 Sum of electronic and thermal Energies=              -662.560257
 Sum of electronic and thermal Enthalpies=            -662.559313
 Sum of electronic and thermal Free Energies=         -662.613301

                     E (Thermal)             CV                S
                      KCal/Mol        Cal/Mol-Kelvin    Cal/Mol-Kelvin
 Total                  164.640             48.637            113.628
 Electronic               0.000              0.000              0.000
 Translational            0.889              2.981             41.741
 Rotational               0.889              2.981             31.648
 Vibrational            162.863             42.676             40.239
 Vibration     1          0.593              1.985              6.183
 Vibration     2          0.595              1.978              4.820
 Vibration     3          0.597              1.972              4.376
 Vibration     4          0.607              1.939              3.216
 Vibration     5          0.618              1.903              2.676
 Vibration     6          0.630              1.866              2.322
 Vibration     7          0.650              1.802              1.911
 Vibration     8          0.655              1.786              1.836
 Vibration     9          0.678              1.716              1.554
 Vibration    10          0.695              1.668              1.399
 Vibration    11          0.719              1.599              1.219
 Vibration    12          0.754              1.502              1.020
 Vibration    13          0.792              1.402              0.854
 Vibration    14          0.812              1.353              0.786
 Vibration    15          0.852              1.258              0.667
 Vibration    16          0.865              1.229              0.635
 Vibration    17          0.916              1.118              0.524
 Vibration    18          0.929              1.090              0.499

 Optimization completed.
    -- Stationary point found.
 Normal termination of Gaussian 16 at Thu Dec 10 10:01:46 2020.

 ----------------------------------------------------------------------
 # B3LYP/6-311++G(d,p) empiricaldispersion=gd3bj scf=xqc pop=npa geom=c
 heck
 ----------------------------------------------------------------------

 ---------------------------------------
 CID_149713631_JID_4464_Energie_neutraal
 ---------------------------------------
 Structure from the checkpoint file:  "JID_4464.chk"
 Charge =  0 Multiplicity = 1

 SCF Done:  E(RB3LYP) =  -663.008267660     A.U. after   15 cycles
 Normal termination of Gaussian 16 at Thu Dec 10 10:05:11 2020.

 ----------------------------------------------------------------------
 # B3LYP/6-311++G(d,p) empiricaldispersion=gd3bj scf=xqc pop=npa geom=c
 heck
 ----------------------------------------------------------------------

 -------------------------------------
 CID_149713631_JID_4464_Energie_kation
 -------------------------------------
 Structure from the checkpoint file:  "JID_4464.chk"
 Charge =  1 Multiplicity = 2

 SCF Done:  E(UB3LYP) =  -662.716131562     A.U. after   26 cycles
 Normal termination of Gaussian 16 at Thu Dec 10 10:14:15 2020.
 Gaussian 16:  ES64L-G16RevA.03 25-Dec-2016

 ----------------------------------------------------------------------
 # B3LYP/6-311++G(d,p) empiricaldispersion=gd3bj scf=xqc pop=npa geom=c
 heck
 ----------------------------------------------------------------------

 ------------------------------------
 CID_149713631_JID_4464_Energie_anion
 ------------------------------------
 Structure from the checkpoint file:  "JID_4464.chk"
 Charge = -1 Multiplicity = 2

                         Standard orientation:
 ---------------------------------------------------------------------
 Center     Atomic      Atomic             Coordinates (Angstroms)
 Number     Number       Type             X           Y           Z
 ---------------------------------------------------------------------
      1          6           0        2.370391   -1.037149   -0.407103
      2          6           0        3.392436   -0.108446    0.272797
      3          7           0        3.270799    1.299363   -0.113511
      4          6           0        1.903648    1.792481    0.074756
      5          6           0        0.836770    0.941710   -0.631531
      6          6           0        0.943556   -0.531376   -0.200767
      7          6           0       -0.139731   -1.419402   -0.841430
      8          7           0       -1.221127   -1.449556    0.156579
      9          6           0       -0.742024   -0.732947    1.347720
     10          8           0        0.651989   -0.659095    1.212464
     11          6           0       -2.533858   -1.137746   -0.289805
     12          7           0       -2.692686    0.257696   -0.874383
     13          7           0       -3.245601    1.075985   -0.136451
     14          7           0       -3.756534    1.902816    0.467699
     15          1           0        2.570624   -1.083202   -1.486756
     16          1           0        2.449550   -2.057149   -0.011997
     17          1           0        4.412764   -0.443314    0.056057
     18          1           0        3.255034   -0.168111    1.358696
     19          1           0        3.521837    1.394814   -1.097964
     20          1           0        1.699011    1.798555    1.151921
     21          1           0        1.855699    2.830754   -0.271158
     22          1           0        0.980225    0.995762   -1.719714
     23          1           0       -0.171255    1.323230   -0.432991
     24          1           0       -0.486900   -1.003816   -1.792854
     25          1           0        0.241389   -2.433241   -1.019133
     26          1           0       -0.962612   -1.286062    2.267630
     27          1           0       -1.195084    0.271999    1.420606
     28          1           0       -2.811727   -1.809976   -1.102944
     29          1           0       -3.245555   -1.264367    0.533531
 ---------------------------------------------------------------------

 SCF Done:  E(UB3LYP) =  -662.999701373     A.U. after   31 cycles

 The electronic state is 2-A.
 Alpha  occ. eigenvalues --  -19.02983 -14.34230 -14.24274 -14.23237 -14.21224
 Alpha  occ. eigenvalues --  -14.19561 -10.14608 -10.13334 -10.12945 -10.09295
 Alpha  occ. eigenvalues --  -10.09017 -10.08925 -10.06575 -10.06176  -1.00987
 Alpha  occ. eigenvalues --   -0.96226  -0.85772  -0.81318  -0.80789  -0.70047
 Alpha  occ. eigenvalues --   -0.65372  -0.62706  -0.60041  -0.53226  -0.52360
 Alpha  occ. eigenvalues --   -0.51116  -0.46411  -0.43762  -0.41759  -0.40268
 Alpha  occ. eigenvalues --   -0.39010  -0.38341  -0.37314  -0.35553  -0.34888
 Alpha  occ. eigenvalues --   -0.34648  -0.33759  -0.32489  -0.31928  -0.29934
 Alpha  occ. eigenvalues --   -0.29335  -0.28517  -0.27793  -0.27614  -0.25216
 Alpha  occ. eigenvalues --   -0.24401  -0.23326  -0.22263  -0.19441  -0.16939
 Alpha  occ. eigenvalues --   -0.14428  -0.12766  -0.11885   0.04513
 Alpha virt. eigenvalues --    0.06357   0.07608   0.08286   0.08330   0.09286
 Alpha virt. eigenvalues --    0.09564   0.10528   0.10739   0.11381   0.12075
 Alpha virt. eigenvalues --    0.12445   0.12722   0.12946   0.14034   0.14594

  Beta  occ. eigenvalues --  -19.02976 -14.33988 -14.23939 -14.23299 -14.21223
  Beta  occ. eigenvalues --  -14.19542 -10.14600 -10.13237 -10.12946 -10.09272
  Beta  occ. eigenvalues --  -10.09008 -10.08919 -10.06554 -10.06159  -1.00516
  Beta  occ. eigenvalues --   -0.96212  -0.85578  -0.81260  -0.80737  -0.70023
  Beta  occ. eigenvalues --   -0.65345  -0.62563  -0.59987  -0.53182  -0.52285
  Beta  occ. eigenvalues --   -0.51047  -0.46331  -0.43659  -0.41649  -0.40148
  Beta  occ. eigenvalues --   -0.38475  -0.38144  -0.37084  -0.35474  -0.34858
  Beta  occ. eigenvalues --   -0.34546  -0.33451  -0.31977  -0.31795  -0.29865
  Beta  occ. eigenvalues --   -0.29293  -0.28430  -0.27656  -0.27578  -0.25183
  Beta  occ. eigenvalues --   -0.24369  -0.23297  -0.22232  -0.19020  -0.16887
  Beta  occ. eigenvalues --   -0.14306  -0.12703  -0.11803
  Beta virt. eigenvalues --    0.07003   0.07680   0.08490   0.08611   0.09541
  Beta virt. eigenvalues --    0.09737   0.10392   0.10823   0.10993   0.11592
  Beta virt. eigenvalues --    0.12267   0.12659   0.13136   0.13296   0.14331

 Mulliken charges and spin densities:
               1          2
     1  C    0.417394  -0.692009
     2  C    0.247531  -0.864594
     3  N   -0.248592   0.203512
     4  C    0.325561  -0.977874
     5  C   -0.107480  -0.226465
     6  C   -0.536846   0.788795
     7  C   -0.108478  -0.399058
     8  N   -0.078112   0.103124
     9  C    0.025040  -0.087218
    10  O   -0.067478   0.016823
    11  C    0.584970  -1.042804
    12  N   -0.579871   0.445172
    13  N    0.458757  -0.141887
    14  N   -0.177373   0.041368
    15  H   -0.290236   0.464941
    16  H    0.108202   0.044626
    17  H   -0.225051   0.411854
    18  H    0.203743  -0.029370
    19  H   -0.008895   0.240249
    20  H    0.163788   0.015422
    21  H    0.011656   0.166989
    22  H   -0.292859   0.501303
    23  H    0.117280  -0.001963
    24  H    0.069207   0.112901
    25  H   -0.582305   0.794980
    26  H   -0.007578   0.185322
    27  H    0.172781  -0.049204
    28  H   -0.604688   0.815781
    29  H    0.009934   0.159284
 Sum of Mulliken charges =  -1.00000   1.00000

 Dipole moment (field-independent basis, Debye):
    X=              0.5877    Y=              0.3132    Z=              3.7485  Tot=              3.8072
 Quadrupole moment (field-independent basis, Debye-Ang):
   XX=           -154.5955   YY=           -125.6149   ZZ=           -115.1905
   XY=              0.6860   XZ=              1.7423   YZ=             -5.2802

 Summary of Natural Population Analysis:

                                       Natural Population
                Natural  -----------------------------------------------
    Atom  No    Charge         Core      Valence    Rydberg      Total
 -----------------------------------------------------------------------
      C    1   -0.20575      0.99956     2.19521    0.01098     3.20575
      C    2   -0.08881      0.99962     2.07686    0.01232     3.08881
      N    3   -0.33681      0.99976     2.82468    0.01237     3.83681
      C    4   -0.09012      0.99962     2.07836    0.01214     3.09012
      C    5   -0.21502      0.99956     2.20516    0.01030     3.21502
      C    6    0.13329      0.99951     1.84970    0.01750     2.86671
      C    7   -0.08949      0.99954     2.07718    0.01277     3.08949
      N    8   -0.28562      0.99971     2.77246    0.01345     3.78562
      C    9    0.09117      0.99960     1.89535    0.01387     2.90883
      O   10   -0.30828      0.99988     3.30030    0.00811     4.30828
      C   11    0.01188      0.99957     1.97343    0.01512     2.98812
      N   12   -0.22049      0.99972     2.70646    0.01431     3.72049
      N   13    0.12994      0.99970     2.35496    0.01540     3.37006
      N   14   -0.02886      0.99982     2.51564    0.01340     3.52886
      H   15    0.10152      0.00000     0.39630    0.00219     0.39848
      H   16    0.10390      0.00000     0.39480    0.00130     0.39610
      H   17    0.09438      0.00000     0.40470    0.00092     0.40562
      H   18    0.09301      0.00000     0.40561    0.00138     0.40699
      H   19    0.16937      0.00000     0.32799    0.00264     0.33063
      H   20    0.09263      0.00000     0.40598    0.00139     0.40737
      H   21    0.09428      0.00000     0.40493    0.00079     0.40572
      H   22    0.10129      0.00000     0.39695    0.00176     0.39871
      H   23    0.10832      0.00000     0.39013    0.00155     0.39168
      H   24    0.10395      0.00000     0.39402    0.00203     0.39605
      H   25    0.09492      0.00000     0.40287    0.00220     0.40508
      H   26    0.08404      0.00000     0.41485    0.00111     0.41596
      H   27    0.07129      0.00000     0.42728    0.00143     0.42871
      H   28    0.10045      0.00000     0.39732    0.00223     0.39955
      H   29    0.08962      0.00000     0.40910    0.00127     0.41038
 =======================================================================
   * Total *   -0.00000     13.99518    38.79859    0.20623    53.00000

 Normal termination of Gaussian 16 at Thu Dec 10 10:23:11 2020.
