 Gaussian 16, Revision A.03,

 -----------------------------------------------------------
 # opt freq B3LYP/6-31G(d) empiricaldispersion=gd3bj scf=xqc
 -----------------------------------------------------------

 ------------------------------
 CID_2340452_JID_10821_neutraal
 ------------------------------
 Symbolic Z-matrix:
 Charge =  0 Multiplicity = 1

 SCF Done:  E(RB3LYP) =  -898.992963743     A.U. after   15 cycles
 SCF Done:  E(RB3LYP) =  -898.999798967     A.U. after   12 cycles
 SCF Done:  E(RB3LYP) =  -899.000259005     A.U. after   12 cycles
 SCF Done:  E(RB3LYP) =  -899.001396546     A.U. after   12 cycles
 SCF Done:  E(RB3LYP) =  -899.001689951     A.U. after   12 cycles
 SCF Done:  E(RB3LYP) =  -899.001967206     A.U. after   12 cycles
 SCF Done:  E(RB3LYP) =  -899.002119860     A.U. after   11 cycles
 SCF Done:  E(RB3LYP) =  -899.002209947     A.U. after   12 cycles
 SCF Done:  E(RB3LYP) =  -899.002286847     A.U. after   10 cycles
 SCF Done:  E(RB3LYP) =  -899.002338017     A.U. after   10 cycles
 SCF Done:  E(RB3LYP) =  -899.002391385     A.U. after   10 cycles
 SCF Done:  E(RB3LYP) =  -899.002397052     A.U. after   10 cycles
 SCF Done:  E(RB3LYP) =  -899.002398473     A.U. after   10 cycles
 SCF Done:  E(RB3LYP) =  -899.002398857     A.U. after    8 cycles
 SCF Done:  E(RB3LYP) =  -899.002398900     A.U. after    7 cycles
 Optimization completed.
    -- Stationary point found.
 Normal termination of Gaussian 16 at Sun Dec 13 20:50:37 2020.

 --------------------------------------------------------------------
 #N Geom=AllCheck Guess=TCheck SCRF=Check GenChk RB3LYP/6-31G(d) Freq
 --------------------------------------------------------------------

 Structure from the checkpoint file:  "JID_10821.chk"
 ------------------------------
 CID_2340452_JID_10821_neutraal
 ------------------------------
 Charge =  0 Multiplicity = 1

 SCF Done:  E(RB3LYP) =  -899.002398900     A.U. after    1 cycles

  Exact polarizability: 192.326  28.227 175.321  13.569  -0.793 162.900
 Approx polarizability: 247.371  53.102 267.057  32.933   1.937 284.032

                      1                      2                      3
                      A                      A                      A
 Frequencies --     21.3123                27.7694                44.2226
 Red. masses --      4.8605                 4.4889                 3.3024
 Frc consts  --      0.0013                 0.0020                 0.0038
 IR Inten    --      0.1950                 0.4336                 0.5960

                      4                      5                      6
                      A                      A                      A
 Frequencies --     59.2264                87.3224                90.7717
 Red. masses --      4.5403                 6.6256                 4.7676
 Frc consts  --      0.0094                 0.0298                 0.0231
 IR Inten    --      0.2514                 0.3457                 1.3033

                      7                      8                      9
                      A                      A                      A
 Frequencies --    103.8038               133.5573               159.9115
 Red. masses --      3.5327                 5.1878                 4.9557
 Frc consts  --      0.0224                 0.0545                 0.0747
 IR Inten    --      0.2312                 2.4246                 0.1873

                     10                     11                     12
                      A                      A                      A
 Frequencies --    203.6815               226.9722               239.2142
 Red. masses --      4.6084                 2.7268                 3.9159
 Frc consts  --      0.1126                 0.0828                 0.1320
 IR Inten    --      1.0425                 0.6087                 6.2334

                     13                     14                     15
                      A                      A                      A
 Frequencies --    274.7810               296.8632               332.0677
 Red. masses --      2.3615                 3.8009                 3.5824
 Frc consts  --      0.1051                 0.1974                 0.2327
 IR Inten    --      0.6138                 0.3458                 7.6171

                     16                     17                     18
                      A                      A                      A
 Frequencies --    351.6483               359.0601               377.6019
 Red. masses --      1.2311                 3.7804                 3.4546
 Frc consts  --      0.0897                 0.2872                 0.2902
 IR Inten    --     78.4534                18.0888                 0.8606

                     19                     20                     21
                      A                      A                      A
 Frequencies --    389.4682               403.4212               447.6837
 Red. masses --      1.8534                 2.6156                 3.7607
 Frc consts  --      0.1656                 0.2508                 0.4441
 IR Inten    --      0.6981                 1.5382                 3.5177

                     22                     23                     24
                      A                      A                      A
 Frequencies --    481.5950               484.9526               509.3152
 Red. masses --      2.2659                 2.9336                 3.3478
 Frc consts  --      0.3096                 0.4065                 0.5117
 IR Inten    --      1.9241                 2.6441                 1.3568

                     25                     26                     27
                      A                      A                      A
 Frequencies --    529.5340               547.7296               554.7362
 Red. masses --      3.1738                 2.8506                 2.6650
 Frc consts  --      0.5244                 0.5039                 0.4832
 IR Inten    --     13.6710                11.5547                24.3863

                     28                     29                     30
                      A                      A                      A
 Frequencies --    575.8445               606.9696               637.7035
 Red. masses --      3.0938                 1.9927                 2.4583
 Frc consts  --      0.6044                 0.4326                 0.5890
 IR Inten    --      5.7418                54.3157                 7.6958

                     31                     32                     33
                      A                      A                      A
 Frequencies --    648.1731               658.9682               674.4863
 Red. masses --      2.8988                 2.6953                 2.8496
 Frc consts  --      0.7175                 0.6896                 0.7638
 IR Inten    --     23.8266                78.6615                10.7847

                     34                     35                     36
                      A                      A                      A
 Frequencies --    744.6286               759.1471               764.8089
 Red. masses --      1.9194                 1.7412                 3.1607
 Frc consts  --      0.6270                 0.5912                 1.0893
 IR Inten    --      8.9627                30.4421                33.5718

                     37                     38                     39
                      A                      A                      A
 Frequencies --    768.4688               795.5359               796.4324
 Red. masses --      1.6610                 1.6226                 1.7825
 Frc consts  --      0.5779                 0.6051                 0.6662
 IR Inten    --     10.5998                54.7562                84.6455

                     40                     41                     42
                      A                      A                      A
 Frequencies --    817.3046               823.7961               851.6289
 Red. masses --      3.8281                 3.4299                 1.4732
 Frc consts  --      1.5066                 1.3714                 0.6295
 IR Inten    --     49.1094                 8.0079                45.7954

                     43                     44                     45
                      A                      A                      A
 Frequencies --    854.4367               862.5519               868.0602
 Red. masses --      1.5005                 1.7786                 2.7080
 Frc consts  --      0.6454                 0.7797                 1.2022
 IR Inten    --     13.9426                43.7219                22.0139

                     46                     47                     48
                      A                      A                      A
 Frequencies --    876.5134               886.6540               944.7575
 Red. masses --      2.2657                 2.3682                 1.3380
 Frc consts  --      1.0256                 1.0969                 0.7036
 IR Inten    --      3.3868                 1.3755                 1.4963

                     49                     50                     51
                      A                      A                      A
 Frequencies --    951.2785               961.6145               976.8960
 Red. masses --      1.4148                 1.8977                 1.2591
 Frc consts  --      0.7543                 1.0339                 0.7080
 IR Inten    --      6.0852                21.7122                 0.3305

                     52                     53                     54
                      A                      A                      A
 Frequencies --   1023.2144              1040.4403              1048.7365
 Red. masses --      2.1981                 1.7423                 2.1995
 Frc consts  --      1.3559                 1.1113                 1.4253
 IR Inten    --      2.0194                 2.7951                 4.8631

                     55                     56                     57
                      A                      A                      A
 Frequencies --   1051.7314              1074.4877              1082.4199
 Red. masses --      1.8147                 2.4611                 2.1844
 Frc consts  --      1.1827                 1.6741                 1.5079
 IR Inten    --      3.6797                 5.6986                13.8718

                     58                     59                     60
                      A                      A                      A
 Frequencies --   1096.3147              1109.5747              1140.0072
 Red. masses --      1.7878                 2.5955                 1.5521
 Frc consts  --      1.2660                 1.8827                 1.1885
 IR Inten    --      1.3504                32.7047                21.2602

                     61                     62                     63
                      A                      A                      A
 Frequencies --   1142.6612              1174.4954              1193.8839
 Red. masses --      1.1752                 1.5973                 2.2570
 Frc consts  --      0.9040                 1.2982                 1.8954
 IR Inten    --      5.7744                 4.9298                 6.9962

                     64                     65                     66
                      A                      A                      A
 Frequencies --   1194.9701              1207.8986              1225.9120
 Red. masses --      1.1483                 1.3911                 2.6927
 Frc consts  --      0.9661                 1.1958                 2.3843
 IR Inten    --      5.2149                39.7995                38.1846

                     67                     68                     69
                      A                      A                      A
 Frequencies --   1282.3608              1288.7647              1302.5936
 Red. masses --      1.3438                 3.0894                 1.2604
 Frc consts  --      1.3020                 3.0233                 1.2600
 IR Inten    --     17.6832                33.8676                 1.8726

                     70                     71                     72
                      A                      A                      A
 Frequencies --   1309.5355              1324.3668              1339.6515
 Red. masses --      1.2592                 2.5354                 1.4090
 Frc consts  --      1.2723                 2.6201                 1.4898
 IR Inten    --     10.9488                42.1962                 2.5926

                     73                     74                     75
                      A                      A                      A
 Frequencies --   1354.8217              1367.0780              1370.3938
 Red. masses --      2.4647                 1.3307                 1.4444
 Frc consts  --      2.6655                 1.4653                 1.5982
 IR Inten    --     55.1920                 1.6598                 3.5666

                     76                     77                     78
                      A                      A                      A
 Frequencies --   1378.7352              1396.6697              1401.0498
 Red. masses --      2.5411                 1.4152                 1.4576
 Frc consts  --      2.8460                 1.6265                 1.6858
 IR Inten    --     38.9380                 0.0457                 7.1425

                     79                     80                     81
                      A                      A                      A
 Frequencies --   1402.7266              1412.9842              1446.3484
 Red. masses --      1.5119                 1.4484                 3.0886
 Frc consts  --      1.7528                 1.7037                 3.8068
 IR Inten    --     27.2962                 5.4987               220.4601

                     82                     83                     84
                      A                      A                      A
 Frequencies --   1469.2215              1475.1454              1493.8188
 Red. masses --      1.4474                 1.2813                 1.4571
 Frc consts  --      1.8408                 1.6427                 1.9158
 IR Inten    --     65.0123                24.5008                44.1479

                     85                     86                     87
                      A                      A                      A
 Frequencies --   1500.8564              1507.7148              1512.7837
 Red. masses --      2.5074                 1.0924                 1.0932
 Frc consts  --      3.3278                 1.4631                 1.4740
 IR Inten    --     60.0715                 2.2430                 0.4958

                     88                     89                     90
                      A                      A                      A
 Frequencies --   1523.0223              1526.6957              1539.9304
 Red. masses --      1.0860                 1.0987                 1.1041
 Frc consts  --      1.4841                 1.5088                 1.5426
 IR Inten    --      5.3094                 5.3227                 1.2816

                     91                     92                     93
                      A                      A                      A
 Frequencies --   1547.1243              1567.6939              1643.2004
 Red. masses --      2.0534                 1.4901                 5.5913
 Frc consts  --      2.8958                 2.1577                 8.8950
 IR Inten    --     52.1162                86.4362                 5.6470

                     94                     95                     96
                      A                      A                      A
 Frequencies --   1670.2270              1711.4689              1797.1284
 Red. masses --      6.1910                 4.4615                 6.1177
 Frc consts  --     10.1756                 7.6996                11.6412
 IR Inten    --     22.7288                55.5832               456.4872

                     97                     98                     99
                      A                      A                      A
 Frequencies --   3015.8318              3024.0954              3027.1858
 Red. masses --      1.0720                 1.0653                 1.0714
 Frc consts  --      5.7446                 5.7402                 5.7845
 IR Inten    --     13.6374                32.1304                 6.9704

                    100                    101                    102
                      A                      A                      A
 Frequencies --   3037.0977              3040.4723              3074.8381
 Red. masses --      1.0625                 1.0634                 1.0950
 Frc consts  --      5.7740                 5.7918                 6.0999
 IR Inten    --     13.8740                46.6730                61.1370

                    103                    104                    105
                      A                      A                      A
 Frequencies --   3075.7190              3081.0043              3087.0367
 Red. masses --      1.0927                 1.1017                 1.1028
 Frc consts  --      6.0901                 6.1619                 6.1918
 IR Inten    --     64.2306                40.7439                56.3114

                    106                    107                    108
                      A                      A                      A
 Frequencies --   3127.6536              3131.6517              3166.7268
 Red. masses --      1.0860                 1.0915                 1.0889
 Frc consts  --      6.2594                 6.3071                 6.4337
 IR Inten    --     17.3554                20.7466                16.3620

                    109                    110                    111
                      A                      A                      A
 Frequencies --   3197.1974              3199.4341              3209.7785
 Red. masses --      1.0866                 1.0601                 1.0918
 Frc consts  --      6.5445                 6.3936                 6.6275
 IR Inten    --      4.2643                 1.6809                17.7943

                    112                    113                    114
                      A                      A                      A
 Frequencies --   3221.5345              3282.9268              3454.3481
 Red. masses --      1.0961                 1.1174                 1.0740
 Frc consts  --      6.7026                 7.0952                 7.5505
 IR Inten    --     11.1136                 2.3712                11.1890

                    115                    116                    117
                      A                      A                      A
 Frequencies --   3577.5290              3616.4029              3753.4170
 Red. masses --      1.0765                 1.0752                 1.0660
 Frc consts  --      8.1176                 8.2846                 8.8483
 IR Inten    --     42.9700                24.7606                46.9549

 - Thermochemistry -
 -------------------
 Temperature   298.150 Kelvin.  Pressure   1.00000 Atm.
 Atom     1 has atomic number  6 and mass  12.00000

 Molecular mass:   275.16338 amu.
 Principal axes and moments of inertia in atomic units:
                           1         2         3
     Eigenvalues --  3500.269898703.77120**********
           X            0.99984  -0.01760  -0.00290
           Y            0.01758   0.99982  -0.00677
           Z            0.00302   0.00672   0.99997
 This molecule is an asymmetric top.
 Rotational symmetry number  1.
 Warning -- assumption of classical behavior for rotation
           may cause significant error
 Rotational temperatures (Kelvin)      0.02474     0.00995     0.00839
 Rotational constants (GHZ):           0.51560     0.20735     0.17477
 Zero-point vibrational energy     926613.2 (Joules/Mol)
                                  221.46586 (Kcal/Mol)
 Warning -- explicit consideration of  29 degrees of freedom as
           vibrations may cause significant error
 Vibrational temperatures:     30.66    39.95    63.63    85.21   125.64
          (Kelvin)            130.60   149.35   192.16   230.08   293.05
                              326.56   344.18   395.35   427.12   477.77
                              505.94   516.61   543.28   560.36   580.43
                              644.12   692.91   697.74   732.79   761.88
                              788.06   798.14   828.51   873.29   917.51
                              932.58   948.11   970.44  1071.35  1092.24
                             1100.39  1105.66  1144.60  1145.89  1175.92
                             1185.26  1225.30  1229.34  1241.02  1248.94
                             1261.11  1275.70  1359.30  1368.68  1383.55
                             1405.54  1472.18  1496.96  1508.90  1513.21
                             1545.95  1557.36  1577.35  1596.43  1640.22
                             1644.03  1689.84  1717.73  1719.30  1737.90
                             1763.81  1845.03  1854.25  1874.14  1884.13
                             1905.47  1927.46  1949.29  1966.92  1971.69
                             1983.69  2009.50  2015.80  2018.21  2032.97
                             2080.97  2113.88  2122.41  2149.27  2159.40
                             2169.27  2176.56  2191.29  2196.57  2215.62
                             2225.97  2255.56  2364.20  2403.08  2462.42
                             2585.67  4339.11  4351.00  4355.45  4369.71
                             4374.56  4424.01  4425.27  4432.88  4441.56
                             4500.00  4505.75  4556.21  4600.05  4603.27
                             4618.16  4635.07  4723.40  4970.04  5147.27
                             5203.20  5400.33

 Zero-point correction=                           0.352928 (Hartree/Particle)
 Thermal correction to Energy=                    0.371400
 Thermal correction to Enthalpy=                  0.372344
 Thermal correction to Gibbs Free Energy=         0.304945
 Sum of electronic and zero-point Energies=           -898.649471
 Sum of electronic and thermal Energies=              -898.630999
 Sum of electronic and thermal Enthalpies=            -898.630055
 Sum of electronic and thermal Free Energies=         -898.697454

                     E (Thermal)             CV                S
                      KCal/Mol        Cal/Mol-Kelvin    Cal/Mol-Kelvin
 Total                  233.057             73.195            141.853
 Electronic               0.000              0.000              0.000
 Translational            0.889              2.981             42.735
 Rotational               0.889              2.981             34.108
 Vibrational            231.279             67.234             65.009
 Vibration     1          0.593              1.985              6.508
 Vibration     2          0.593              1.984              5.983
 Vibration     3          0.595              1.980              5.060
 Vibration     4          0.597              1.974              4.483
 Vibration     5          0.601              1.958              3.719
 Vibration     6          0.602              1.956              3.643
 Vibration     7          0.605              1.946              3.382
 Vibration     8          0.613              1.920              2.894
 Vibration     9          0.622              1.891              2.551
 Vibration    10          0.639              1.835              2.100
 Vibration    11          0.651              1.800              1.903
 Vibration    12          0.657              1.780              1.809
 Vibration    13          0.677              1.720              1.566
 Vibration    14          0.691              1.680              1.435
 Vibration    15          0.714              1.611              1.250
 Vibration    16          0.728              1.572              1.159
 Vibration    17          0.734              1.557              1.126
 Vibration    18          0.748              1.518              1.049
 Vibration    19          0.757              1.493              1.002
 Vibration    20          0.769              1.463              0.950
 Vibration    21          0.807              1.366              0.803
 Vibration    22          0.838              1.291              0.706
 Vibration    23          0.841              1.283              0.697
 Vibration    24          0.864              1.229              0.635
 Vibration    25          0.884              1.185              0.588
 Vibration    26          0.903              1.145              0.549
 Vibration    27          0.910              1.129              0.534
 Vibration    28          0.932              1.084              0.493
 Vibration    29          0.966              1.017              0.438

 Optimization completed.
    -- Stationary point found.
 Normal termination of Gaussian 16 at Sun Dec 13 21:11:33 2020.

 ----------------------------------------------------------------------
 # B3LYP/6-311++G(d,p) empiricaldispersion=gd3bj scf=xqc pop=npa geom=c
 heck
 ----------------------------------------------------------------------

 --------------------------------------
 CID_2340452_JID_10821_Energie_neutraal
 --------------------------------------
 Structure from the checkpoint file:  "JID_10821.chk"
 Charge =  0 Multiplicity = 1

 SCF Done:  E(RB3LYP) =  -899.267010995     A.U. after   15 cycles
 Normal termination of Gaussian 16 at Sun Dec 13 21:20:06 2020.

 ----------------------------------------------------------------------
 # B3LYP/6-311++G(d,p) empiricaldispersion=gd3bj scf=xqc pop=npa geom=c
 heck
 ----------------------------------------------------------------------

 ------------------------------------
 CID_2340452_JID_10821_Energie_kation
 ------------------------------------
 Structure from the checkpoint file:  "JID_10821.chk"
 Charge =  1 Multiplicity = 2

 SCF Done:  E(UB3LYP) =  -898.982044449     A.U. after   27 cycles
 Normal termination of Gaussian 16 at Sun Dec 13 21:40:13 2020.
 Gaussian 16:  ES64L-G16RevA.03 25-Dec-2016

 ----------------------------------------------------------------------
 # B3LYP/6-311++G(d,p) empiricaldispersion=gd3bj scf=xqc pop=npa geom=c
 heck
 ----------------------------------------------------------------------

 -----------------------------------
 CID_2340452_JID_10821_Energie_anion
 -----------------------------------
 Structure from the checkpoint file:  "JID_10821.chk"
 Charge = -1 Multiplicity = 2

                         Standard orientation:
 ---------------------------------------------------------------------
 Center     Atomic      Atomic             Coordinates (Angstroms)
 Number     Number       Type             X           Y           Z
 ---------------------------------------------------------------------
      1          6           0       -1.153102    1.684572    1.755024
      2          6           0       -1.319688    1.071448    0.569642
      3          6           0       -2.410935    0.086036    0.340889
      4          6           0       -2.691519   -0.880239    1.316743
      5          6           0       -3.713561   -1.813866    1.157691
      6          6           0       -4.477353   -1.803342   -0.008248
      7          6           0       -4.214274   -0.861809   -1.001343
      8          6           0       -3.192646    0.073011   -0.829786
      9          8           0       -2.923862    1.018468   -1.793364
     10          7           0       -0.432598    1.221536   -0.515001
     11          7           0        0.482727    2.278456   -0.462772
     12          6           0        1.664636    2.105619    0.285277
     13          8           0        2.112945    3.043476    0.937826
     14          7           0        2.277180    0.885432    0.232026
     15          6           0        2.156450   -0.162669   -0.788791
     16          6           0        3.552330   -0.520261   -1.334459
     17          6           0        4.421623   -1.249325   -0.297971
     18          6           0        3.705823   -2.486770    0.261474
     19          6           0        2.322538   -2.125360    0.820757
     20          6           0        1.461399   -1.418489   -0.232890
     21          1           0       -1.855394    1.502026    2.558631
     22          1           0       -0.326736    2.356154    1.954611
     23          1           0       -2.074654   -0.894092    2.209221
     24          1           0       -3.902805   -2.549519    1.932989
     25          1           0       -5.273957   -2.526985   -0.153405
     26          1           0       -4.807171   -0.845271   -1.914081
     27          1           0       -3.534483    0.892846   -2.536003
     28          1           0       -0.887341    1.176079   -1.418923
     29          1           0        0.066281    3.168490   -0.183859
     30          1           0        3.127194    0.894257    0.779135
     31          1           0        1.556627    0.250988   -1.600400
     32          1           0        3.415009   -1.177244   -2.203956
     33          1           0        4.051402    0.387858   -1.692846
     34          1           0        4.672776   -0.570517    0.531021
     35          1           0        5.379588   -1.530393   -0.751605
     36          1           0        4.321329   -2.963694    1.034119
     37          1           0        3.585181   -3.224643   -0.545422
     38          1           0        2.438692   -1.463973    1.690738
     39          1           0        1.810693   -3.025598    1.181612
     40          1           0        0.490115   -1.135314    0.179234
     41          1           0        1.273512   -2.106312   -1.070330
 ---------------------------------------------------------------------

 SCF Done:  E(UB3LYP) =  -899.262490771     A.U. after   33 cycles
 SCF Done:  E(UB3LYP) =  -899.262490771     a.u. after    1 cycles

 The electronic state is 2-A.
 Alpha  occ. eigenvalues --  -19.06106 -18.99632 -14.26663 -14.25842 -14.24444
 Alpha  occ. eigenvalues --  -10.20725 -10.14752 -10.12423 -10.12402 -10.09237
 Alpha  occ. eigenvalues --  -10.09103 -10.08845 -10.08635 -10.08601 -10.08551
 Alpha  occ. eigenvalues --  -10.08211 -10.08085 -10.08018 -10.07414 -10.05841
 Alpha  occ. eigenvalues --   -0.97147  -0.96752  -0.90514  -0.83901  -0.77313
 Alpha  occ. eigenvalues --   -0.74689  -0.73747  -0.67528  -0.66341  -0.65878
 Alpha  occ. eigenvalues --   -0.65061  -0.63420  -0.54647  -0.53977  -0.53360
 Alpha  occ. eigenvalues --   -0.52802  -0.52063  -0.48980  -0.47718  -0.45902
 Alpha  occ. eigenvalues --   -0.44296  -0.42623  -0.41356  -0.40376  -0.38625
 Alpha  occ. eigenvalues --   -0.38385  -0.37758  -0.36757  -0.35697  -0.34467
 Alpha  occ. eigenvalues --   -0.34258  -0.33518  -0.32868  -0.32339  -0.31218
 Alpha  occ. eigenvalues --   -0.30437  -0.30143  -0.29976  -0.29748  -0.29333
 Alpha  occ. eigenvalues --   -0.27564  -0.26864  -0.25706  -0.25260  -0.24693
 Alpha  occ. eigenvalues --   -0.23901  -0.23002  -0.22482  -0.19699  -0.17670
 Alpha  occ. eigenvalues --   -0.16839  -0.16443  -0.14269  -0.12686   0.03712
 Alpha virt. eigenvalues --    0.05015   0.05836   0.06513   0.06938   0.07354
 Alpha virt. eigenvalues --    0.07720   0.08367   0.08705   0.09216   0.09555
 Alpha virt. eigenvalues --    0.09964   0.10066   0.10716   0.10994   0.11467

  Beta  occ. eigenvalues --  -19.06036 -18.99632 -14.26657 -14.25818 -14.24442
  Beta  occ. eigenvalues --  -10.20723 -10.14747 -10.12421 -10.12392 -10.09194
  Beta  occ. eigenvalues --  -10.09092 -10.08833 -10.08609 -10.08589 -10.08494
  Beta  occ. eigenvalues --  -10.08209 -10.08092 -10.07971 -10.07408 -10.05821
  Beta  occ. eigenvalues --   -0.97035  -0.96726  -0.90497  -0.83896  -0.77239
  Beta  occ. eigenvalues --   -0.74658  -0.73713  -0.67450  -0.66323  -0.65857
  Beta  occ. eigenvalues --   -0.64983  -0.63352  -0.54575  -0.53939  -0.53332
  Beta  occ. eigenvalues --   -0.52740  -0.52004  -0.48927  -0.47693  -0.45806
  Beta  occ. eigenvalues --   -0.44243  -0.42568  -0.41334  -0.40355  -0.38608
  Beta  occ. eigenvalues --   -0.38338  -0.37693  -0.36740  -0.35681  -0.34421
  Beta  occ. eigenvalues --   -0.34218  -0.33485  -0.32845  -0.32236  -0.31173
  Beta  occ. eigenvalues --   -0.30414  -0.30125  -0.29956  -0.29726  -0.29298
  Beta  occ. eigenvalues --   -0.27508  -0.26843  -0.25630  -0.25174  -0.24636
  Beta  occ. eigenvalues --   -0.23837  -0.22986  -0.22464  -0.19689  -0.17635
  Beta  occ. eigenvalues --   -0.16690  -0.16378  -0.14158  -0.12551
  Beta virt. eigenvalues --    0.05382   0.06164   0.06438   0.06918   0.07370
  Beta virt. eigenvalues --    0.07851   0.07957   0.08447   0.08938   0.09388
  Beta virt. eigenvalues --    0.09749   0.10019   0.10167   0.10854   0.11053

 Mulliken charges and spin densities:
               1          2
     1  C   -0.696644   0.172422
     2  C    2.363704  -1.993734
     3  C    1.213641  -0.756424
     4  C   -1.308670   0.899984
     5  C   -0.514027   0.250084
     6  C    0.383021  -0.766560
     7  C   -0.357728   0.292457
     8  C   -0.605235   0.181599
     9  O   -0.259314   0.028462
    10  N    0.052601  -0.001253
    11  N   -0.296484  -0.021776
    12  C    0.068133  -0.066656
    13  O   -0.312714  -0.000301
    14  N   -0.124226  -0.030243
    15  C   -0.106291   0.211890
    16  C   -0.174370  -0.428751
    17  C   -0.041306  -0.137001
    18  C   -0.154138  -0.392203
    19  C   -0.367668   0.030535
    20  C   -0.042647  -0.241216
    21  H    0.126470   0.013932
    22  H    0.189952  -0.002077
    23  H    0.101257   0.063965
    24  H    0.018894   0.132667
    25  H    0.010364   0.145334
    26  H   -1.153252   1.328198
    27  H   -0.535922   0.844776
    28  H    0.360482  -0.017944
    29  H    0.273627   0.030557
    30  H    0.329124  -0.021730
    31  H   -0.071188   0.335860
    32  H   -0.027304   0.177905
    33  H    0.116707   0.065440
    34  H    0.098664  -0.005637
    35  H   -0.192968   0.372221
    36  H   -0.061674   0.223674
    37  H    0.035808   0.099602
    38  H    0.114936   0.041832
    39  H    0.108322   0.054642
    40  H    0.528956  -0.369967
    41  H   -0.090890   0.255433
 Sum of Mulliken charges =  -1.00000   1.00000

 Dipole moment (field-independent basis, Debye):
    X=              5.2674    Y=             -1.7306    Z=              5.6872  Tot=              7.9426
 Quadrupole moment (field-independent basis, Debye-Ang):
   XX=           -216.3227   YY=           -166.2127   ZZ=           -165.7387
   XY=              2.3069   XZ=            -24.2562   YZ=             -5.1614

 Summary of Natural Population Analysis:

                                       Natural Population
                Natural  -----------------------------------------------
    Atom  No    Charge         Core      Valence    Rydberg      Total
 -----------------------------------------------------------------------
      C    1   -0.24243      0.99954     2.23703    0.00587     3.24243
      C    2    0.08709      0.99948     1.90065    0.01279     2.91291
      C    3   -0.05942      0.99943     2.04833    0.01166     3.05942
      C    4   -0.07939      0.99954     2.07078    0.00907     3.07939
      C    5   -0.12069      0.99956     2.11209    0.00904     3.12069
      C    6   -0.08253      0.99957     2.07269    0.01028     3.08253
      C    7   -0.12993      0.99952     2.11961    0.01080     3.12993
      C    8    0.16866      0.99935     1.81804    0.01396     2.83134
      O    9   -0.35051      0.99987     3.34293    0.00771     4.35051
      N   10   -0.23720      0.99966     2.72473    0.01281     3.73720
      N   11   -0.24584      0.99968     2.73450    0.01165     3.74584
      C   12    0.40682      0.99971     1.57070    0.02277     2.59318
      O   13   -0.34140      0.99988     3.33647    0.00505     4.34140
      N   14   -0.32879      0.99965     2.81927    0.00987     3.82879
      C   15   -0.01061      0.99957     1.99869    0.01234     3.01061
      C   16   -0.19289      0.99961     2.18491    0.00837     3.19289
      C   17   -0.19283      0.99963     2.18475    0.00846     3.19283
      C   18   -0.19139      0.99963     2.18359    0.00818     3.19139
      C   19   -0.19316      0.99963     2.18515    0.00839     3.19316
      C   20   -0.19370      0.99960     2.18515    0.00895     3.19370
      H   21    0.09967      0.00000     0.39957    0.00076     0.40033
      H   22    0.10209      0.00000     0.39673    0.00118     0.39791
      H   23    0.10194      0.00000     0.39673    0.00133     0.39806
      H   24    0.09896      0.00000     0.40029    0.00074     0.40104
      H   25    0.09979      0.00000     0.39941    0.00080     0.40021
      H   26    0.10783      0.00000     0.38833    0.00384     0.39217
      H   27    0.24906      0.00000     0.22266    0.02827     0.25094
      H   28    0.19986      0.00000     0.29704    0.00310     0.30014
      H   29    0.18430      0.00000     0.31325    0.00244     0.31570
      H   30    0.19322      0.00000     0.30444    0.00234     0.30678
      H   31    0.10833      0.00000     0.38974    0.00193     0.39167
      H   32    0.10129      0.00000     0.39768    0.00103     0.39871
      H   33    0.10145      0.00000     0.39772    0.00083     0.39855
      H   34    0.08761      0.00000     0.41119    0.00120     0.41239
      H   35    0.10170      0.00000     0.39732    0.00098     0.39830
      H   36    0.09741      0.00000     0.40177    0.00082     0.40259
      H   37    0.09421      0.00000     0.40466    0.00113     0.40579
      H   38    0.09367      0.00000     0.40506    0.00126     0.40633
      H   39    0.09995      0.00000     0.39923    0.00082     0.40005
      H   40    0.11154      0.00000     0.38668    0.00178     0.38846
      H   41    0.09626      0.00000     0.40266    0.00108     0.40374
 =======================================================================
   * Total *   -0.00000     19.99209    53.74221    0.26570    74.00000

 Normal termination of Gaussian 16 at Sun Dec 13 22:05:15 2020.
