 Gaussian 16, Revision A.03,

 -----------------------------------------------------------
 # opt freq B3LYP/6-31G(d) empiricaldispersion=gd3bj scf=xqc
 -----------------------------------------------------------

 -------------------------------
 CID_152769174_JID_2952_neutraal
 -------------------------------
 Symbolic Z-matrix:
 Charge =  0 Multiplicity = 1

 SCF Done:  E(RB3LYP) =  -877.703827362     A.U. after   15 cycles
 SCF Done:  E(RB3LYP) =  -877.707512952     A.U. after   13 cycles
 SCF Done:  E(RB3LYP) =  -877.707736643     A.U. after   12 cycles
 SCF Done:  E(RB3LYP) =  -877.707820167     A.U. after   11 cycles
 SCF Done:  E(RB3LYP) =  -877.707830907     A.U. after   10 cycles
 SCF Done:  E(RB3LYP) =  -877.707832309     A.U. after    8 cycles
 SCF Done:  E(RB3LYP) =  -877.707832923     A.U. after    8 cycles
 SCF Done:  E(RB3LYP) =  -877.707833352     A.U. after    8 cycles
 SCF Done:  E(RB3LYP) =  -877.707833969     A.U. after   10 cycles
 SCF Done:  E(RB3LYP) =  -877.707834329     A.U. after    9 cycles
 SCF Done:  E(RB3LYP) =  -877.707834547     A.U. after    8 cycles
 Optimization completed.
    -- Stationary point found.
 Normal termination of Gaussian 16 at Wed Dec  9 18:26:03 2020.

 --------------------------------------------------------------------
 #N Geom=AllCheck Guess=TCheck SCRF=Check GenChk RB3LYP/6-31G(d) Freq
 --------------------------------------------------------------------

 Structure from the checkpoint file:  "JID_2952.chk"
 -------------------------------
 CID_152769174_JID_2952_neutraal
 -------------------------------
 Charge =  0 Multiplicity = 1

 SCF Done:  E(RB3LYP) =  -877.707834547     A.U. after    1 cycles

  Exact polarizability: 239.957  15.429 121.054   2.999  -8.849  59.669
 Approx polarizability: 379.816  49.747 213.224   3.943 -21.401  91.568

                      1                      2                      3
                      A                      A                      A
 Frequencies --     24.9298                50.7407                75.4931
 Red. masses --      4.8850                 3.0891                 5.1553
 Frc consts  --      0.0018                 0.0047                 0.0173
 IR Inten    --      0.2657                 0.1897                 0.6570

                      4                      5                      6
                      A                      A                      A
 Frequencies --     93.0588               133.8029               202.2691
 Red. masses --      4.2746                 3.6025                 3.0656
 Frc consts  --      0.0218                 0.0380                 0.0739
 IR Inten    --      0.5993                 0.0613                 0.9448

                      7                      8                      9
                      A                      A                      A
 Frequencies --    224.9059               253.2514               265.7903
 Red. masses --      1.1780                 2.7604                 6.3345
 Frc consts  --      0.0351                 0.1043                 0.2637
 IR Inten    --      0.0553                 0.4234                 1.9746

                     10                     11                     12
                      A                      A                      A
 Frequencies --    303.4187               343.5889               371.7549
 Red. masses --      3.4515                 5.2895                 3.0962
 Frc consts  --      0.1872                 0.3679                 0.2521
 IR Inten    --      2.1386                 9.9823                 0.7634

                     13                     14                     15
                      A                      A                      A
 Frequencies --    439.2128               474.7083               498.7873
 Red. masses --      1.2612                 3.7546                 4.5337
 Frc consts  --      0.1433                 0.4985                 0.6646
 IR Inten    --     91.7137                11.0519                10.3171

                     16                     17                     18
                      A                      A                      A
 Frequencies --    577.1098               597.7492               640.4986
 Red. masses --      3.1294                 7.7464                 4.2090
 Frc consts  --      0.6141                 1.6308                 1.0173
 IR Inten    --      1.1348                32.0541                15.1747

                     19                     20                     21
                      A                      A                      A
 Frequencies --    661.3187               700.4000               748.9594
 Red. masses --      4.2876                 1.1957                 6.4915
 Frc consts  --      1.1048                 0.3456                 2.1454
 IR Inten    --     10.4776                54.4634                 1.6576

                     22                     23                     24
                      A                      A                      A
 Frequencies --    774.9345               810.3871               827.4798
 Red. masses --      2.8226                 1.7145                 1.3309
 Frc consts  --      0.9987                 0.6634                 0.5369
 IR Inten    --     25.3181                 0.5227                 8.5072

                     25                     26                     27
                      A                      A                      A
 Frequencies --    850.9809               868.9403               872.2411
 Red. masses --      2.2677                 3.9756                 2.0102
 Frc consts  --      0.9676                 1.7686                 0.9011
 IR Inten    --      4.2850                21.3546                 0.9471

                     28                     29                     30
                      A                      A                      A
 Frequencies --    910.7625               993.2767               999.3508
 Red. masses --      1.3280                 2.9723                 1.3389
 Frc consts  --      0.6490                 1.7278                 0.7878
 IR Inten    --      0.0321               129.5094                81.3252

                     31                     32                     33
                      A                      A                      A
 Frequencies --   1006.2665              1072.7095              1097.1869
 Red. masses --      2.9155                 1.7483                 1.7646
 Frc consts  --      1.7394                 1.1853                 1.2516
 IR Inten    --     94.3797                 8.1233                 6.4762

                     34                     35                     36
                      A                      A                      A
 Frequencies --   1107.6258              1113.1803              1164.4316
 Red. masses --      1.5396                 1.2448                 2.2347
 Frc consts  --      1.1129                 0.9088                 1.7853
 IR Inten    --     16.9843                 1.2249                10.4763

                     37                     38                     39
                      A                      A                      A
 Frequencies --   1280.2397              1281.5075              1311.8126
 Red. masses --      1.4643                 1.5007                 1.3078
 Frc consts  --      1.4140                 1.4521                 1.3259
 IR Inten    --      4.5684                 4.2448                17.9800

                     40                     41                     42
                      A                      A                      A
 Frequencies --   1327.8019              1359.9377              1378.2501
 Red. masses --      1.6007                 1.4403                 1.5992
 Frc consts  --      1.6627                 1.5695                 1.7899
 IR Inten    --    113.6900                11.4817                10.5334

                     43                     44                     45
                      A                      A                      A
 Frequencies --   1409.2446              1430.3689              1436.4808
 Red. masses --      2.3735                 1.3818                 1.5655
 Frc consts  --      2.7772                 1.6656                 1.9032
 IR Inten    --     15.8326                 8.9246                 3.8377

                     46                     47                     48
                      A                      A                      A
 Frequencies --   1483.5534              1525.5528              1529.2213
 Red. masses --      5.6257                 1.0565                 1.0499
 Frc consts  --      7.2951                 1.4487                 1.4465
 IR Inten    --     22.3349                 3.1940                 5.1880

                     49                     50                     51
                      A                      A                      A
 Frequencies --   1541.7044              1584.6751              1673.9764
 Red. masses --      1.0812                 4.8502                 6.0592
 Frc consts  --      1.5141                 7.1762                10.0038
 IR Inten    --      8.0683                 0.3167                 3.4512

                     52                     53                     54
                      A                      A                      A
 Frequencies --   1688.1801              3057.2882              3079.1013
 Red. masses --      5.0463                 1.0349                 1.0631
 Frc consts  --      8.4734                 5.6992                 5.9387
 IR Inten    --      4.1142                26.7812                16.7748

                     55                     56                     57
                      A                      A                      A
 Frequencies --   3117.2040              3129.6321              3143.0719
 Red. masses --      1.1021                 1.1003                 1.1036
 Frc consts  --      6.3098                 6.3496                 6.4237
 IR Inten    --      8.1888                30.1193                22.3283

                     58                     59                     60
                      A                      A                      A
 Frequencies --   3180.9801              3190.9009              3219.3613
 Red. masses --      1.0904                 1.0861                 1.0882
 Frc consts  --      6.5004                 6.5154                 6.6451
 IR Inten    --      3.9920                15.4973                 9.3608

                     61                     62                     63
                      A                      A                      A
 Frequencies --   3233.7211              3274.5232              3760.3472
 Red. masses --      1.0955                 1.0966                 1.0676
 Frc consts  --      6.7493                 6.9278                 8.8943
 IR Inten    --      6.4040                 0.7505               127.7138

 - Thermochemistry -
 -------------------
 Temperature   298.150 Kelvin.  Pressure   1.00000 Atm.
 Atom     1 has atomic number  6 and mass  12.00000

 Molecular mass:   181.05614 amu.
 Principal axes and moments of inertia in atomic units:
                           1         2         3
     Eigenvalues --   857.823515493.669006193.68259
           X            0.99980  -0.01999  -0.00090
           Y            0.01999   0.99979   0.00403
           Z            0.00082  -0.00405   0.99999
 This molecule is an asymmetric top.
 Rotational symmetry number  1.
 Warning -- assumption of classical behavior for rotation
           may cause significant error
 Rotational temperatures (Kelvin)      0.10097     0.01577     0.01398
 Rotational constants (GHZ):           2.10386     0.32851     0.29138
 Zero-point vibrational energy     483172.5 (Joules/Mol)
                                  115.48101 (Kcal/Mol)
 Warning -- explicit consideration of  17 degrees of freedom as
           vibrations may cause significant error
 Vibrational temperatures:     35.87    73.00   108.62   133.89   192.51
          (Kelvin)            291.02   323.59   364.37   382.41   436.55
                              494.35   534.87   631.93   683.00   717.64
                              830.33   860.03   921.53   951.49  1007.72
                             1077.59  1114.96  1165.97  1190.56  1224.37
                             1250.21  1254.96  1310.38  1429.10  1437.84
                             1447.79  1543.39  1578.61  1593.63  1601.62
                             1675.36  1841.98  1843.80  1887.41  1910.41
                             1956.65  1982.99  2027.59  2057.98  2066.78
                             2134.50  2194.93  2200.21  2218.17  2279.99
                             2408.48  2428.91  4398.76  4430.14  4484.96
                             4502.84  4522.18  4576.72  4590.99  4631.94
                             4652.60  4711.31  5410.30

 Zero-point correction=                           0.184031 (Hartree/Particle)
 Thermal correction to Energy=                    0.196296
 Thermal correction to Enthalpy=                  0.197240
 Thermal correction to Gibbs Free Energy=         0.143897
 Sum of electronic and zero-point Energies=           -877.523804
 Sum of electronic and thermal Energies=              -877.511539
 Sum of electronic and thermal Enthalpies=            -877.510594
 Sum of electronic and thermal Free Energies=         -877.563937

                     E (Thermal)             CV                S
                      KCal/Mol        Cal/Mol-Kelvin    Cal/Mol-Kelvin
 Total                  123.178             45.259            112.269
 Electronic               0.000              0.000              0.000
 Translational            0.889              2.981             41.488
 Rotational               0.889              2.981             31.746
 Vibrational            121.400             39.298             39.036
 Vibration     1          0.593              1.985              6.197
 Vibration     2          0.595              1.977              4.788
 Vibration     3          0.599              1.965              4.005
 Vibration     4          0.602              1.954              3.595
 Vibration     5          0.613              1.920              2.891
 Vibration     6          0.639              1.837              2.112
 Vibration     7          0.650              1.803              1.919
 Vibration     8          0.664              1.757              1.708
 Vibration     9          0.672              1.736              1.623
 Vibration    10          0.695              1.667              1.398
 Vibration    11          0.722              1.588              1.195
 Vibration    12          0.743              1.530              1.073
 Vibration    13          0.799              1.385              0.829
 Vibration    14          0.831              1.306              0.724
 Vibration    15          0.854              1.253              0.661
 Vibration    16          0.934              1.081              0.491
 Vibration    17          0.956              1.037              0.454

                           ! Non-Optimized Parameters !
 Normal termination of Gaussian 16 at Wed Dec  9 18:30:30 2020.

 ----------------------------------------------------------------------
 # B3LYP/6-311++G(d,p) empiricaldispersion=gd3bj scf=xqc pop=npa geom=c
 heck
 ----------------------------------------------------------------------

 ---------------------------------------
 CID_152769174_JID_2952_Energie_neutraal
 ---------------------------------------
 Structure from the checkpoint file:  "JID_2952.chk"
 Charge =  0 Multiplicity = 1

 SCF Done:  E(RB3LYP) =  -877.874774164     A.U. after   15 cycles
 Normal termination of Gaussian 16 at Wed Dec  9 18:32:50 2020.

 ----------------------------------------------------------------------
 # B3LYP/6-311++G(d,p) empiricaldispersion=gd3bj scf=xqc pop=npa geom=c
 heck
 ----------------------------------------------------------------------

 -------------------------------------
 CID_152769174_JID_2952_Energie_kation
 -------------------------------------
 Structure from the checkpoint file:  "JID_2952.chk"
 Charge =  1 Multiplicity = 2

 SCF Done:  E(UB3LYP) =  -877.599777737     A.U. after   21 cycles
 Normal termination of Gaussian 16 at Wed Dec  9 18:37:14 2020.
 Gaussian 16:  ES64L-G16RevA.03 25-Dec-2016

 ----------------------------------------------------------------------
 # B3LYP/6-311++G(d,p) empiricaldispersion=gd3bj scf=xqc pop=npa geom=c
 heck
 ----------------------------------------------------------------------

 ------------------------------------
 CID_152769174_JID_2952_Energie_anion
 ------------------------------------
 Structure from the checkpoint file:  "JID_2952.chk"
 Charge = -1 Multiplicity = 2

                         Standard orientation:
 ---------------------------------------------------------------------
 Center     Atomic      Atomic             Coordinates (Angstroms)
 Number     Number       Type             X           Y           Z
 ---------------------------------------------------------------------
      1          6           0       -2.934959    1.849005    0.799511
      2          6           0       -2.684430    1.058759   -0.496071
      3          6           0       -2.209766   -0.344320   -0.207064
      4          7           0       -3.004594   -1.346706   -0.000178
      5          8           0       -4.354531   -0.967413   -0.091632
      6          6           0       -0.798236   -0.672135   -0.079861
      7          6           0        0.222024    0.207016   -0.188536
      8          6           0        1.623675   -0.125445   -0.043558
      9          6           0        2.238096   -1.333648    0.220251
     10          6           0        3.654771   -1.246278    0.287062
     11          6           0        4.124118    0.024239    0.075587
     12         16           0        2.830005    1.137929   -0.210680
     13          1           0       -3.704500    1.356291    1.400835
     14          1           0       -3.273427    2.865651    0.572751
     15          1           0       -2.022731    1.917889    1.401739
     16          1           0       -3.610084    1.000139   -1.074082
     17          1           0       -1.945782    1.575441   -1.116858
     18          1           0       -4.808959   -1.810929    0.056595
     19          1           0       -0.597483   -1.718095    0.138231
     20          1           0        0.002592    1.251425   -0.395697
     21          1           0        1.686281   -2.255922    0.361647
     22          1           0        4.301563   -2.093924    0.484768
     23          1           0        5.149102    0.368264    0.071321
 ---------------------------------------------------------------------

 SCF Done:  E(UB3LYP) =  -877.887531470     A.U. after   26 cycles

 The electronic state is 2-A.
 Alpha  occ. eigenvalues --  -88.71958 -19.02104 -14.18399 -10.04894 -10.04674
 Alpha  occ. eigenvalues --  -10.04518 -10.04469 -10.04261 -10.03535 -10.01356
 Alpha  occ. eigenvalues --  -10.01042 -10.00358  -7.80661  -5.76948  -5.76604
 Alpha  occ. eigenvalues --   -5.76274  -0.93881  -0.73188  -0.72315  -0.63799
 Alpha  occ. eigenvalues --   -0.63027  -0.58706  -0.56389  -0.51297  -0.47732
 Alpha  occ. eigenvalues --   -0.41919  -0.40250  -0.37327  -0.36724  -0.36004
 Alpha  occ. eigenvalues --   -0.33284  -0.31027  -0.29119  -0.28320  -0.26941
 Alpha  occ. eigenvalues --   -0.25826  -0.24661  -0.24480  -0.24071  -0.23227
 Alpha  occ. eigenvalues --   -0.21758  -0.20145  -0.19639  -0.16933  -0.12998
 Alpha  occ. eigenvalues --   -0.12348  -0.11326  -0.06126   0.04467
 Alpha virt. eigenvalues --    0.08416   0.09030   0.09534   0.10748   0.11160
 Alpha virt. eigenvalues --    0.12069   0.12676   0.13274   0.13461   0.14283
 Alpha virt. eigenvalues --    0.14986   0.15839   0.16034   0.16457   0.16692

  Beta  occ. eigenvalues --  -88.71900 -19.02005 -14.17773 -10.04922 -10.04598
  Beta  occ. eigenvalues --  -10.04521 -10.04460 -10.03992 -10.03629 -10.01155
  Beta  occ. eigenvalues --  -10.00835 -10.00103  -7.80609  -5.76920  -5.76577
  Beta  occ. eigenvalues --   -5.76086  -0.93455  -0.72899  -0.71867  -0.63536
  Beta  occ. eigenvalues --   -0.62545  -0.58437  -0.55898  -0.51162  -0.47128
  Beta  occ. eigenvalues --   -0.41713  -0.39936  -0.37098  -0.36529  -0.35778
  Beta  occ. eigenvalues --   -0.33106  -0.30850  -0.28936  -0.27809  -0.26625
  Beta  occ. eigenvalues --   -0.25601  -0.24469  -0.23963  -0.23259  -0.22981
  Beta  occ. eigenvalues --   -0.21624  -0.19963  -0.19440  -0.15582  -0.12391
  Beta  occ. eigenvalues --   -0.10975  -0.10368  -0.04081
  Beta virt. eigenvalues --    0.08340   0.09005   0.09486   0.10379   0.10711
  Beta virt. eigenvalues --    0.11115   0.12009   0.12643   0.13239   0.14165
  Beta virt. eigenvalues --    0.14251   0.15460   0.15866   0.16057   0.16535

 Mulliken charges and spin densities:
               1          2
     1  C   -0.520851  -0.088631
     2  C   -0.195936   0.052546
     3  C    0.665717  -0.009498
     4  N   -0.473834   0.269225
     5  O   -0.054558   0.019743
     6  C   -0.603535   0.171407
     7  C   -0.380889   0.131842
     8  C    0.192362   0.023438
     9  C    0.163305   0.179197
    10  C   -0.627397  -0.047054
    11  C   -0.026154   0.172243
    12  S   -0.534665   0.095936
    13  H    0.121475   0.012992
    14  H    0.052798   0.043245
    15  H    0.129542   0.012808
    16  H    0.165494   0.007160
    17  H    0.119293   0.013286
    18  H    0.250376  -0.000294
    19  H    0.151289  -0.013735
    20  H    0.066412  -0.024759
    21  H    0.070548  -0.011970
    22  H    0.093927   0.004657
    23  H    0.175281  -0.013786
 Sum of Mulliken charges =  -1.00000   1.00000

 Dipole moment (field-independent basis, Debye):
    X=             -0.9003    Y=              1.1264    Z=              0.1056  Tot=              1.4458
 Quadrupole moment (field-independent basis, Debye-Ang):
   XX=           -121.0896   YY=            -89.4334   ZZ=            -91.0310
   XY=             -0.7932   XZ=              0.1539   YZ=             -1.7036

 Summary of Natural Population Analysis:

                                       Natural Population
                Natural  -----------------------------------------------
    Atom  No    Charge         Core      Valence    Rydberg      Total
 -----------------------------------------------------------------------
      C    1   -0.28174      0.99966     2.27731    0.00476     3.28174
      C    2   -0.21514      0.99960     2.20743    0.00810     3.21514
      C    3    0.07062      0.99958     1.91113    0.01867     2.92938
      N    4   -0.01021      0.99960     2.49393    0.01668     3.51021
      O    5   -0.29683      0.99990     3.28996    0.00698     4.29683
      C    6   -0.05324      0.99949     2.04459    0.00916     3.05324
      C    7   -0.08568      0.99950     2.07674    0.00944     3.08568
      C    8   -0.08674      0.99950     2.07516    0.01208     3.08674
      C    9   -0.09860      0.99949     2.08999    0.00912     3.09860
      C   10   -0.15421      0.99955     2.14477    0.00990     3.15421
      C   11   -0.16408      0.99956     2.15212    0.01240     3.16408
      S   12    0.19581      4.99943     2.78117    0.02359     7.80419
      H   13    0.09914      0.00000     0.39926    0.00160     0.40086
      H   14    0.08718      0.00000     0.41135    0.00147     0.41282
      H   15    0.09888      0.00000     0.39956    0.00156     0.40112
      H   16    0.10538      0.00000     0.39294    0.00168     0.39462
      H   17    0.09714      0.00000     0.40067    0.00219     0.40286
      H   18    0.22443      0.00000     0.27149    0.00407     0.27557
      H   19    0.09313      0.00000     0.40508    0.00180     0.40687
      H   20    0.08567      0.00000     0.41278    0.00155     0.41433
      H   21    0.09854      0.00000     0.40008    0.00138     0.40146
      H   22    0.09524      0.00000     0.40364    0.00112     0.40476
      H   23    0.09533      0.00000     0.40363    0.00104     0.40467
 =======================================================================
   * Total *    0.00000     15.99486    31.84479    0.16035    48.00000

 Normal termination of Gaussian 16 at Wed Dec  9 18:42:32 2020.
