 Gaussian 16, Revision A.03,

 -----------------------------------------------------------
 # opt freq B3LYP/6-31G(d) empiricaldispersion=gd3bj scf=xqc
 -----------------------------------------------------------

 -------------------------------
 CID_105552275_JID_7224_neutraal
 -------------------------------
 Symbolic Z-matrix:
 Charge =  0 Multiplicity = 1

 SCF Done:  E(RB3LYP) =  -805.782165602     A.U. after   14 cycles
 SCF Done:  E(RB3LYP) =  -805.786568368     A.U. after   13 cycles
 SCF Done:  E(RB3LYP) =  -805.786840926     A.U. after   12 cycles
 SCF Done:  E(RB3LYP) =  -805.787778257     A.U. after   12 cycles
 SCF Done:  E(RB3LYP) =  -805.787834476     A.U. after   11 cycles
 SCF Done:  E(RB3LYP) =  -805.788010561     A.U. after   12 cycles
 SCF Done:  E(RB3LYP) =  -805.788228898     A.U. after   11 cycles
 SCF Done:  E(RB3LYP) =  -805.788371304     A.U. after   13 cycles
 SCF Done:  E(RB3LYP) =  -805.788483111     A.U. after   12 cycles
 SCF Done:  E(RB3LYP) =  -805.788603416     A.U. after   11 cycles
 SCF Done:  E(RB3LYP) =  -805.790930650     A.U. after   10 cycles
 SCF Done:  E(RB3LYP) =  -805.790932635     A.U. after    8 cycles
 SCF Done:  E(RB3LYP) =  -805.790933029     A.U. after    7 cycles
 SCF Done:  E(RB3LYP) =  -805.790933250     A.U. after    7 cycles
 SCF Done:  E(RB3LYP) =  -805.790933334     A.U. after    7 cycles
 Optimization completed.
    -- Stationary point found.
 Normal termination of Gaussian 16 at Sun Dec 13 20:43:38 2020.

 --------------------------------------------------------------------
 #N Geom=AllCheck Guess=TCheck SCRF=Check GenChk RB3LYP/6-31G(d) Freq
 --------------------------------------------------------------------

 Structure from the checkpoint file:  "JID_7224.chk"
 -------------------------------
 CID_105552275_JID_7224_neutraal
 -------------------------------
 Charge =  0 Multiplicity = 1

 SCF Done:  E(RB3LYP) =  -805.790933334     A.U. after    1 cycles

  Exact polarizability: 147.221   0.161 140.240  -1.709   1.606 135.262
 Approx polarizability: 180.644   1.944 202.712  -4.654  -6.925 221.605

 ******    1 imaginary frequencies (negative Signs) ******

                      1                      2                      3
                      A                      A                      A
 Frequencies --   -138.4613                30.5589                48.8811
 Red. masses --      1.3075                 4.3773                 3.8420
 Frc consts  --      0.0148                 0.0024                 0.0054
 IR Inten    --    230.3218                 0.3779                 1.9923

                      4                      5                      6
                      A                      A                      A
 Frequencies --     63.7552                74.3435                79.4687
 Red. masses --      7.4201                 3.7878                 6.5706
 Frc consts  --      0.0178                 0.0123                 0.0244
 IR Inten    --     11.8164                 5.1744                 7.7992

                      7                      8                      9
                      A                      A                      A
 Frequencies --    110.2483               133.4274               161.6264
 Red. masses --      2.8147                 3.1568                 2.7753
 Frc consts  --      0.0202                 0.0331                 0.0427
 IR Inten    --      0.5069                 0.9817                 0.4734

                     10                     11                     12
                      A                      A                      A
 Frequencies --    191.7019               198.8623               202.6518
 Red. masses --      1.2344                 2.2276                 2.7321
 Frc consts  --      0.0267                 0.0519                 0.0661
 IR Inten    --      0.5761                 0.8442                 2.5555

                     13                     14                     15
                      A                      A                      A
 Frequencies --    221.6787               239.7210               258.5539
 Red. masses --      1.4038                 1.6995                 1.9004
 Frc consts  --      0.0406                 0.0575                 0.0749
 IR Inten    --      0.1400                 0.9485                 0.6545

                     16                     17                     18
                      A                      A                      A
 Frequencies --    260.9568               286.9348               301.2365
 Red. masses --      1.2714                 2.8420                 2.6425
 Frc consts  --      0.0510                 0.1379                 0.1413
 IR Inten    --      0.6748                 6.1826                 4.5566

                     19                     20                     21
                      A                      A                      A
 Frequencies --    313.5563               325.2203               352.8361
 Red. masses --      2.1255                 2.2839                 3.8804
 Frc consts  --      0.1231                 0.1423                 0.2846
 IR Inten    --      3.6380                 1.0879                 8.8498

                     22                     23                     24
                      A                      A                      A
 Frequencies --    371.7875               390.2399               405.2463
 Red. masses --      1.9976                 2.4250                 3.4870
 Frc consts  --      0.1627                 0.2176                 0.3374
 IR Inten    --      1.6586                 4.2683                 4.4870

                     25                     26                     27
                      A                      A                      A
 Frequencies --    457.4554               471.4550               544.2292
 Red. masses --      3.2471                 2.6962                 1.9905
 Frc consts  --      0.4004                 0.3531                 0.3474
 IR Inten    --      0.3351                 1.8863                 4.0878

                     28                     29                     30
                      A                      A                      A
 Frequencies --    558.3747               564.7417               596.3155
 Red. masses --      3.5764                 2.5064                 1.9452
 Frc consts  --      0.6570                 0.4710                 0.4075
 IR Inten    --      0.0391                16.3487                14.2225

                     31                     32                     33
                      A                      A                      A
 Frequencies --    636.7908               686.7579               733.6395
 Red. masses --      3.0423                 2.9736                 3.3946
 Frc consts  --      0.7268                 0.8263                 1.0765
 IR Inten    --      2.4656                 5.3343                 0.0707

                     34                     35                     36
                      A                      A                      A
 Frequencies --    773.7147               776.5664               810.5000
 Red. masses --      4.7540                 4.4720                 2.9508
 Frc consts  --      1.6768                 1.5889                 1.1421
 IR Inten    --     13.4303                11.4561                 3.7428

                     37                     38                     39
                      A                      A                      A
 Frequencies --    837.4319               870.1554               900.5819
 Red. masses --      1.7345                 2.5916                 2.7410
 Frc consts  --      0.7167                 1.1562                 1.3098
 IR Inten    --      1.1014                 9.3317                 7.5314

                     40                     41                     42
                      A                      A                      A
 Frequencies --    905.7440               947.6253               983.3004
 Red. masses --      2.3936                 1.7284                 2.0311
 Frc consts  --      1.1569                 0.9145                 1.1570
 IR Inten    --      5.5267                 0.9227                 5.0347

                     43                     44                     45
                      A                      A                      A
 Frequencies --    998.5894              1016.3584              1039.3864
 Red. masses --      2.1026                 2.1786                 1.8106
 Frc consts  --      1.2353                 1.3259                 1.1525
 IR Inten    --      5.4034                 4.5439                10.8348

                     46                     47                     48
                      A                      A                      A
 Frequencies --   1041.5234              1059.8098              1076.5102
 Red. masses --      1.5734                 1.5665                 1.8457
 Frc consts  --      1.0056                 1.0366                 1.2603
 IR Inten    --      0.2892                16.0945                 2.4994

                     49                     50                     51
                      A                      A                      A
 Frequencies --   1088.9318              1098.5382              1130.6848
 Red. masses --      1.8912                 2.2300                 2.4754
 Frc consts  --      1.3213                 1.5856                 1.8646
 IR Inten    --      2.2190                37.1492                26.7187

                     52                     53                     54
                      A                      A                      A
 Frequencies --   1146.8771              1163.8536              1178.2929
 Red. masses --      2.5207                 1.9918                 2.1442
 Frc consts  --      1.9535                 1.5896                 1.7540
 IR Inten    --     21.0015                 0.8458                11.4351

                     55                     56                     57
                      A                      A                      A
 Frequencies --   1193.7557              1205.9766              1225.6611
 Red. masses --      1.2729                 2.5921                 1.5192
 Frc consts  --      1.0687                 2.2212                 1.3446
 IR Inten    --      1.2046                22.7410                 1.7556

                     58                     59                     60
                      A                      A                      A
 Frequencies --   1237.4295              1246.6215              1263.0459
 Red. masses --      2.6211                 2.5265                 1.4443
 Frc consts  --      2.3647                 2.3133                 1.3576
 IR Inten    --     10.0783                39.1191                26.2684

                     61                     62                     63
                      A                      A                      A
 Frequencies --   1273.0036              1288.3135              1307.7946
 Red. masses --      1.5750                 2.3777                 1.5418
 Frc consts  --      1.5038                 2.3252                 1.5537
 IR Inten    --     70.9480                52.2251               109.1988

                     64                     65                     66
                      A                      A                      A
 Frequencies --   1335.7810              1345.0485              1356.9179
 Red. masses --      1.4395                 1.4758                 1.3447
 Frc consts  --      1.5133                 1.5731                 1.4588
 IR Inten    --     30.5028                40.1281                27.6410

                     67                     68                     69
                      A                      A                      A
 Frequencies --   1370.1404              1380.2386              1389.8412
 Red. masses --      2.1471                 1.7399                 1.4701
 Frc consts  --      2.3748                 1.9530                 1.6731
 IR Inten    --     28.2782                14.3440                24.1951

                     70                     71                     72
                      A                      A                      A
 Frequencies --   1402.8710              1423.0272              1437.2900
 Red. masses --      1.3567                 1.4397                 1.2668
 Frc consts  --      1.5732                 1.7177                 1.5418
 IR Inten    --     10.1654                 2.6375                 5.9331

                     73                     74                     75
                      A                      A                      A
 Frequencies --   1442.2452              1444.5669              1495.7578
 Red. masses --      1.3104                 1.2559                 1.2071
 Frc consts  --      1.6060                 1.5441                 1.5912
 IR Inten    --     18.0067                 4.1628                 7.4168

                     76                     77                     78
                      A                      A                      A
 Frequencies --   1511.9289              1517.1057              1524.3276
 Red. masses --      1.0883                 1.0489                 1.0459
 Frc consts  --      1.4657                 1.4223                 1.4319
 IR Inten    --      5.3817                 4.0522                 4.2925

                     79                     80                     81
                      A                      A                      A
 Frequencies --   1525.3210              1528.0320              1529.9070
 Red. masses --      1.0572                 1.0538                 1.0526
 Frc consts  --      1.4493                 1.4496                 1.4516
 IR Inten    --      3.3498                 6.3721                13.6648

                     82                     83                     84
                      A                      A                      A
 Frequencies --   1534.1643              1538.8472              1540.8133
 Red. masses --      1.0486                 1.0647                 1.0707
 Frc consts  --      1.4541                 1.4855                 1.4977
 IR Inten    --      5.4026                 0.2133                 6.7965

                     85                     86                     87
                      A                      A                      A
 Frequencies --   1551.6336              1559.7294              1642.5250
 Red. masses --      1.0535                 1.0992                 1.2495
 Frc consts  --      1.4944                 1.5756                 1.9861
 IR Inten    --      1.8359                 3.9933               109.3714

                     88                     89                     90
                      A                      A                      A
 Frequencies --   1787.4900              1818.2585              2890.7706
 Red. masses --      9.0382                10.5198                 1.0811
 Frc consts  --     17.0144                20.4912                 5.3229
 IR Inten    --    191.9096               216.0554                55.9801

                     91                     92                     93
                      A                      A                      A
 Frequencies --   2904.9581              2937.0419              3049.0477
 Red. masses --      1.0740                 1.0745                 1.0354
 Frc consts  --      5.3399                 5.4608                 5.6714
 IR Inten    --     99.9772               106.0277                29.1913

                     94                     95                     96
                      A                      A                      A
 Frequencies --   3056.7818              3072.8844              3073.7543
 Red. masses --      1.0369                 1.0287                 1.0371
 Frc consts  --      5.7082                 5.7231                 5.7732
 IR Inten    --     25.7970                40.6132                15.4795

                     97                     98                     99
                      A                      A                      A
 Frequencies --   3082.7861              3093.6262              3112.5955
 Red. masses --      1.0683                 1.0852                 1.1008
 Frc consts  --      5.9817                 6.1190                 6.2833
 IR Inten    --     37.5299                 6.8157                26.4890

                    100                    101                    102
                      A                      A                      A
 Frequencies --   3119.7385              3123.6581              3124.8671
 Red. masses --      1.1018                 1.0946                 1.0954
 Frc consts  --      6.3182                 6.2924                 6.3021
 IR Inten    --     24.7456                29.6490                23.4806

                    103                    104                    105
                      A                      A                      A
 Frequencies --   3137.3854              3138.7994              3146.8389
 Red. masses --      1.0984                 1.0895                 1.1004
 Frc consts  --      6.3702                 6.3243                 6.4200
 IR Inten    --     29.7793                 8.1736                20.2939

                    106                    107                    108
                      A                      A                      A
 Frequencies --   3155.4004              3158.9481              3160.6378
 Red. masses --      1.1082                 1.0976                 1.1029
 Frc consts  --      6.5010                 6.4530                 6.4916
 IR Inten    --      9.2760                 5.0221                15.1316

                    109                    110                    111
                      A                      A                      A
 Frequencies --   3173.8466              3605.1002              3732.8934
 Red. masses --      1.1082                 1.0450                 1.1048
 Frc consts  --      6.5772                 8.0021                 9.0700
 IR Inten    --     17.2315                28.1751                25.0434

 - Thermochemistry -
 -------------------
 Temperature   298.150 Kelvin.  Pressure   1.00000 Atm.
 Atom     1 has atomic number  6 and mass  12.00000

 Molecular mass:   242.16304 amu.
 Principal axes and moments of inertia in atomic units:
                           1         2         3
     Eigenvalues --  2531.139254824.194415531.31160
           X            0.99998   0.00199   0.00603
           Y           -0.00214   0.99968   0.02517
           Z           -0.00598  -0.02518   0.99967
 This molecule is an asymmetric top.
 Rotational symmetry number  1.
 Warning -- assumption of classical behavior for rotation
           may cause significant error
 Rotational temperatures (Kelvin)      0.03422     0.01795     0.01566
 Rotational constants (GHZ):           0.71302     0.37410     0.32628
    1 imaginary frequencies ignored.
 Zero-point vibrational energy     899268.8 (Joules/Mol)
                                  214.93040 (Kcal/Mol)
 Warning -- explicit consideration of  29 degrees of freedom as
           vibrations may cause significant error
 Vibrational temperatures:     43.97    70.33    91.73   106.96   114.34
          (Kelvin)            158.62   191.97   232.54   275.82   286.12
                              291.57   318.95   344.91   372.00   375.46
                              412.84   433.41   451.14   467.92   507.65
                              534.92   561.47   583.06   658.18   678.32
                              783.02   803.38   812.54   857.97   916.20
                              988.09  1055.54  1113.20  1117.31  1166.13
                             1204.88  1251.96  1295.74  1303.16  1363.42
                             1414.75  1436.75  1462.31  1495.45  1498.52
                             1524.83  1548.86  1566.73  1580.55  1626.80
                             1650.10  1674.53  1695.30  1717.55  1735.13
                             1763.45  1780.39  1793.61  1817.24  1831.57
                             1853.60  1881.62  1921.89  1935.22  1952.30
                             1971.33  1985.86  1999.67  2018.42  2047.42
                             2067.94  2075.07  2078.41  2152.06  2175.33
                             2182.78  2193.17  2194.60  2198.50  2201.19
                             2207.32  2214.06  2216.89  2232.45  2244.10
                             2363.23  2571.80  2616.07  4159.17  4179.59
                             4225.75  4386.90  4398.03  4421.20  4422.45
                             4435.44  4451.04  4478.33  4488.61  4494.25
                             4495.99  4514.00  4516.03  4527.60  4539.92
                             4545.02  4547.45  4566.46  5186.94  5370.80

 Zero-point correction=                           0.342513 (Hartree/Particle)
 Thermal correction to Energy=                    0.360812
 Thermal correction to Enthalpy=                  0.361756
 Thermal correction to Gibbs Free Energy=         0.296529
 Sum of electronic and zero-point Energies=           -805.448420
 Sum of electronic and thermal Energies=              -805.430122
 Sum of electronic and thermal Enthalpies=            -805.429178
 Sum of electronic and thermal Free Energies=         -805.494404

                     E (Thermal)             CV                S
                      KCal/Mol        Cal/Mol-Kelvin    Cal/Mol-Kelvin
 Total                  226.413             68.741            137.281
 Electronic               0.000              0.000              0.000
 Translational            0.889              2.981             42.354
 Rotational               0.889              2.981             32.579
 Vibrational            224.635             62.780             62.347
 Vibration     1          0.594              1.984              5.793
 Vibration     2          0.595              1.978              4.862
 Vibration     3          0.597              1.972              4.337
 Vibration     4          0.599              1.966              4.035
 Vibration     5          0.600              1.963              3.904
 Vibration     6          0.606              1.941              3.265
 Vibration     7          0.613              1.920              2.896
 Vibration     8          0.622              1.889              2.531
 Vibration     9          0.634              1.851              2.211
 Vibration    10          0.637              1.841              2.144
 Vibration    11          0.639              1.836              2.109
 Vibration    12          0.648              1.808              1.945
 Vibration    13          0.657              1.780              1.805
 Vibration    14          0.667              1.748              1.672
 Vibration    15          0.669              1.744              1.655
 Vibration    16          0.684              1.698              1.492
 Vibration    17          0.693              1.671              1.410
 Vibration    18          0.701              1.648              1.343
 Vibration    19          0.709              1.625              1.284
 Vibration    20          0.729              1.569              1.154
 Vibration    21          0.743              1.530              1.072
 Vibration    22          0.758              1.491              0.999
 Vibration    23          0.770              1.459              0.944
 Vibration    24          0.816              1.344              0.774
 Vibration    25          0.828              1.313              0.733
 Vibration    26          0.899              1.152              0.556
 Vibration    27          0.914              1.121              0.527
 Vibration    28          0.921              1.108              0.514
 Vibration    29          0.954              1.040              0.456

                           ! Non-Optimized Parameters !
 Normal termination of Gaussian 16 at Sun Dec 13 21:01:24 2020.

 ----------------------------------------------------------------------
 # B3LYP/6-311++G(d,p) empiricaldispersion=gd3bj scf=xqc pop=npa geom=c
 heck
 ----------------------------------------------------------------------

 ---------------------------------------
 CID_105552275_JID_7224_Energie_neutraal
 ---------------------------------------
 Structure from the checkpoint file:  "JID_7224.chk"
 Charge =  0 Multiplicity = 1

 SCF Done:  E(RB3LYP) =  -806.028783724     A.U. after   15 cycles
 Normal termination of Gaussian 16 at Sun Dec 13 21:10:40 2020.

 ----------------------------------------------------------------------
 # B3LYP/6-311++G(d,p) empiricaldispersion=gd3bj scf=xqc pop=npa geom=c
 heck
 ----------------------------------------------------------------------

 -------------------------------------
 CID_105552275_JID_7224_Energie_kation
 -------------------------------------
 Structure from the checkpoint file:  "JID_7224.chk"
 Charge =  1 Multiplicity = 2

 SCF Done:  E(UB3LYP) =  -805.738930491     A.U. after   23 cycles
 Normal termination of Gaussian 16 at Sun Dec 13 21:30:29 2020.
 Gaussian 16:  ES64L-G16RevA.03 25-Dec-2016

 ----------------------------------------------------------------------
 # B3LYP/6-311++G(d,p) empiricaldispersion=gd3bj scf=xqc pop=npa geom=c
 heck
 ----------------------------------------------------------------------

 ------------------------------------
 CID_105552275_JID_7224_Energie_anion
 ------------------------------------
 Structure from the checkpoint file:  "JID_7224.chk"
 Charge = -1 Multiplicity = 2

                         Standard orientation:
 ---------------------------------------------------------------------
 Center     Atomic      Atomic             Coordinates (Angstroms)
 Number     Number       Type             X           Y           Z
 ---------------------------------------------------------------------
      1          6           0        3.744223   -1.004723    0.136951
      2          6           0        2.335399   -0.794912   -0.435220
      3          6           0        1.204465   -1.520699    0.353944
      4          6           0        1.358129   -1.425206    1.874112
      5          7           0       -0.069426   -0.957252   -0.082214
      6          6           0       -0.425189   -1.160827   -1.494055
      7          6           0       -1.918786   -0.767152   -1.575871
      8          6           0       -2.332656   -0.465186   -0.117853
      9          6           0       -1.275179   -1.262766    0.669170
     10          6           0       -3.777895   -0.872283    0.195575
     11          6           0       -2.123293    1.041310    0.166400
     12          8           0       -1.864135    1.866727   -0.698674
     13          7           0       -2.268171    1.413901    1.474332
     14          6           0        2.009817    0.683791   -0.600540
     15          8           0        1.851388    1.230192   -1.671492
     16          8           0        1.930137    1.334843    0.579658
     17          6           0        1.440304    2.684755    0.484016
     18          1           0        3.867900   -0.500402    1.098602
     19          1           0        4.495195   -0.605935   -0.552804
     20          1           0        3.949252   -2.072404    0.275445
     21          1           0        2.326803   -1.185618   -1.456519
     22          1           0        1.273834   -2.594125    0.078910
     23          1           0        1.249221   -0.390932    2.209460
     24          1           0        0.614113   -2.046907    2.380978
     25          1           0        2.341356   -1.789156    2.181864
     26          1           0        0.200098   -0.540574   -2.137559
     27          1           0       -0.282942   -2.218097   -1.788306
     28          1           0       -2.518703   -1.593448   -1.969288
     29          1           0       -2.076798    0.110375   -2.203356
     30          1           0       -1.539548   -2.340851    0.663839
     31          1           0       -1.182226   -0.949276    1.710539
     32          1           0       -4.041805   -0.700795    1.245487
     33          1           0       -4.482839   -0.303370   -0.419922
     34          1           0       -3.924708   -1.936802   -0.016341
     35          1           0       -2.490996    0.765383    2.211824
     36          1           0       -2.155871    2.390148    1.704970
     37          1           0        2.118332    3.297637   -0.115095
     38          1           0        0.447618    2.686679    0.025909
     39          1           0        1.400751    3.051225    1.510817
 ---------------------------------------------------------------------

 SCF Done:  E(UB3LYP) =  -806.020719025     A.U. after   33 cycles
 SCF Done:  E(UB3LYP) =  -806.020719025     a.u. after    1 cycles

 The electronic state is 2-A.
 Alpha  occ. eigenvalues --  -19.06844 -19.01263 -18.98642 -14.22422 -14.20718
 Alpha  occ. eigenvalues --  -10.20123 -10.17043 -10.12054 -10.11386 -10.09563
 Alpha  occ. eigenvalues --  -10.09535 -10.09389 -10.09176 -10.08095 -10.06947
 Alpha  occ. eigenvalues --  -10.06631 -10.05860  -1.00895  -0.93676  -0.92124
 Alpha  occ. eigenvalues --   -0.84469  -0.79880  -0.73452  -0.69509  -0.65080
 Alpha  occ. eigenvalues --   -0.62765  -0.61965  -0.59417  -0.56043  -0.52895
 Alpha  occ. eigenvalues --   -0.51307  -0.48315  -0.46030  -0.45583  -0.43625
 Alpha  occ. eigenvalues --   -0.40759  -0.39901  -0.39382  -0.38599  -0.37044
 Alpha  occ. eigenvalues --   -0.36344  -0.34974  -0.34632  -0.33464  -0.33177
 Alpha  occ. eigenvalues --   -0.31813  -0.31750  -0.31196  -0.30332  -0.29690
 Alpha  occ. eigenvalues --   -0.29173  -0.28575  -0.28117  -0.27455  -0.27090
 Alpha  occ. eigenvalues --   -0.25043  -0.24724  -0.24120  -0.23796  -0.23621
 Alpha  occ. eigenvalues --   -0.22425  -0.20825  -0.17889  -0.16907  -0.15597
 Alpha  occ. eigenvalues --   -0.12241   0.04072
 Alpha virt. eigenvalues --    0.06078   0.06856   0.07867   0.08319   0.08515
 Alpha virt. eigenvalues --    0.09297   0.09655   0.09904   0.10198   0.10509
 Alpha virt. eigenvalues --    0.11103   0.11312   0.11836   0.12064   0.12375

  Beta  occ. eigenvalues --  -19.06841 -19.01258 -18.98633 -14.22345 -14.20711
  Beta  occ. eigenvalues --  -10.20121 -10.17039 -10.12042 -10.11377 -10.09562
  Beta  occ. eigenvalues --  -10.09507 -10.09386 -10.09174 -10.08075 -10.06909
  Beta  occ. eigenvalues --  -10.06625 -10.05834  -1.00889  -0.93658  -0.92117
  Beta  occ. eigenvalues --   -0.84449  -0.79777  -0.73433  -0.69488  -0.65052
  Beta  occ. eigenvalues --   -0.62743  -0.61934  -0.59366  -0.55999  -0.52826
  Beta  occ. eigenvalues --   -0.51269  -0.48288  -0.45951  -0.45532  -0.43573
  Beta  occ. eigenvalues --   -0.40725  -0.39878  -0.39356  -0.38565  -0.37025
  Beta  occ. eigenvalues --   -0.36327  -0.34948  -0.34600  -0.33438  -0.33154
  Beta  occ. eigenvalues --   -0.31774  -0.31718  -0.31177  -0.30307  -0.29662
  Beta  occ. eigenvalues --   -0.29146  -0.28552  -0.28096  -0.27430  -0.27072
  Beta  occ. eigenvalues --   -0.25025  -0.24703  -0.24096  -0.23777  -0.23593
  Beta  occ. eigenvalues --   -0.22402  -0.20812  -0.17881  -0.16844  -0.15554
  Beta  occ. eigenvalues --   -0.12203
  Beta virt. eigenvalues --    0.06210   0.07103   0.07362   0.08294   0.08563
  Beta virt. eigenvalues --    0.09070   0.09710   0.09948   0.09965   0.10472
  Beta virt. eigenvalues --    0.10638   0.11434   0.11678   0.12183   0.12287

 Mulliken charges and spin densities:
               1          2
     1  C    0.271966  -1.017186
     2  C    0.356553   0.147491
     3  C   -1.599079   1.275724
     4  C    1.244136  -1.891574
     5  N    0.522787  -0.028514
     6  C   -0.466856   0.366285
     7  C    0.241054  -0.880877
     8  C   -0.792028   1.667189
     9  C   -0.176425  -0.632380
    10  C    1.480257  -1.879230
    11  C   -0.016328  -0.706553
    12  O   -0.248935   0.002979
    13  N   -0.366796   0.135729
    14  C   -0.994688   0.358307
    15  O   -0.152463   0.000122
    16  O    0.059474   0.004664
    17  C    0.018211  -0.255050
    18  H    0.104835   0.065944
    19  H    0.040528   0.104291
    20  H   -0.127511   0.283365
    21  H    0.255486   0.012428
    22  H   -0.037298   0.184525
    23  H    0.093065   0.116768
    24  H   -0.416021   0.577557
    25  H   -0.133680   0.278949
    26  H    0.139281   0.027300
    27  H   -0.005489   0.107559
    28  H    0.137793   0.013857
    29  H    0.219376   0.001698
    30  H   -0.100755   0.264994
    31  H    0.146654   0.020076
    32  H   -0.388936   0.540816
    33  H    0.072369   0.088955
    34  H   -0.182347   0.321352
    35  H   -0.368589   0.644865
    36  H   -0.074313   0.382322
    37  H    0.127176   0.027852
    38  H    0.256247  -0.015256
    39  H   -0.138705   0.282655
 Sum of Mulliken charges =  -1.00000   1.00000

 Dipole moment (field-independent basis, Debye):
    X=              3.8206    Y=             -0.4428    Z=             -5.1250  Tot=              6.4077
 Quadrupole moment (field-independent basis, Debye-Ang):
   XX=           -162.7625   YY=           -145.6398   ZZ=           -157.3025
   XY=              4.8579   XZ=             12.2195   YZ=              8.0059

 Summary of Natural Population Analysis:

                                       Natural Population
                Natural  -----------------------------------------------
    Atom  No    Charge         Core      Valence    Rydberg      Total
 -----------------------------------------------------------------------
      C    1   -0.28450      0.99965     2.27935    0.00551     3.28450
      C    2   -0.15348      0.99953     2.14268    0.01127     3.15348
      C    3    0.01176      0.99959     1.97598    0.01267     2.98824
      C    4   -0.29485      0.99964     2.28885    0.00636     3.29485
      N    5   -0.29201      0.99969     2.78036    0.01195     3.79201
      C    6   -0.08444      0.99963     2.07651    0.00829     3.08444
      C    7   -0.19136      0.99960     2.18366    0.00809     3.19136
      C    8   -0.07910      0.99951     2.06570    0.01389     3.07910
      C    9   -0.07895      0.99958     2.06617    0.01320     3.07895
      C   10   -0.27989      0.99962     2.27324    0.00703     3.27989
      C   11    0.34950      0.99962     1.62408    0.02680     2.65050
      O   12   -0.32701      0.99987     3.32114    0.00600     4.32701
      N   13   -0.40200      0.99970     2.89268    0.00963     3.90200
      C   14    0.42197      0.99965     1.55158    0.02681     2.57803
      O   15   -0.30797      0.99987     3.30282    0.00528     4.30797
      O   16   -0.28126      0.99985     3.27247    0.00893     4.28126
      C   17   -0.11104      0.99959     2.10182    0.00964     3.11104
      H   18    0.10486      0.00000     0.39399    0.00115     0.39514
      H   19    0.10098      0.00000     0.39824    0.00078     0.39902
      H   20    0.10146      0.00000     0.39773    0.00081     0.39854
      H   21    0.10724      0.00000     0.39114    0.00163     0.39276
      H   22    0.08068      0.00000     0.41732    0.00200     0.41932
      H   23    0.11044      0.00000     0.38771    0.00185     0.38956
      H   24    0.10399      0.00000     0.39473    0.00129     0.39601
      H   25    0.10068      0.00000     0.39827    0.00105     0.39932
      H   26    0.10584      0.00000     0.39283    0.00133     0.39416
      H   27    0.07795      0.00000     0.42072    0.00133     0.42205
      H   28    0.09579      0.00000     0.40326    0.00095     0.40421
      H   29    0.11671      0.00000     0.38224    0.00105     0.38329
      H   30    0.08230      0.00000     0.41612    0.00158     0.41770
      H   31    0.10654      0.00000     0.39054    0.00292     0.39346
      H   32    0.10542      0.00000     0.39293    0.00165     0.39458
      H   33    0.10212      0.00000     0.39692    0.00096     0.39788
      H   34    0.10024      0.00000     0.39872    0.00104     0.39976
      H   35    0.20151      0.00000     0.28773    0.01076     0.29849
      H   36    0.19677      0.00000     0.30054    0.00270     0.30323
      H   37    0.08676      0.00000     0.41244    0.00080     0.41324
      H   38    0.10604      0.00000     0.39260    0.00135     0.39396
      H   39    0.09031      0.00000     0.40871    0.00098     0.40969
 =======================================================================
   * Total *    0.00000     16.99420    48.77451    0.23130    66.00000

 Normal termination of Gaussian 16 at Sun Dec 13 21:57:17 2020.
