 Gaussian 16, Revision A.03,

 -----------------------------------------------------------
 # opt freq B3LYP/6-31G(d) empiricaldispersion=gd3bj scf=xqc
 -----------------------------------------------------------

 ------------------------------
 CID_22924625_JID_1467_neutraal
 ------------------------------
 Symbolic Z-matrix:
 Charge =  0 Multiplicity = 1

 SCF Done:  E(RB3LYP) =  -819.804981763     A.U. after   14 cycles
 SCF Done:  E(RB3LYP) =  -819.806631033     A.U. after   15 cycles
 SCF Done:  E(RB3LYP) =  -819.806779482     A.U. after   14 cycles
 SCF Done:  E(RB3LYP) =  -819.807166594     A.U. after   14 cycles
 SCF Done:  E(RB3LYP) =  -819.809153173     A.U. after   14 cycles
 SCF Done:  E(RB3LYP) =  -819.809527399     A.U. after   13 cycles
 SCF Done:  E(RB3LYP) =  -819.809776791     A.U. after   14 cycles
 SCF Done:  E(RB3LYP) =  -819.809890769     A.U. after   12 cycles
 SCF Done:  E(RB3LYP) =  -819.810189984     A.U. after   12 cycles
 SCF Done:  E(RB3LYP) =  -819.810438564     A.U. after   12 cycles
 SCF Done:  E(RB3LYP) =  -819.810757273     A.U. after   11 cycles
 SCF Done:  E(RB3LYP) =  -819.810773993     A.U. after   10 cycles
 SCF Done:  E(RB3LYP) =  -819.810774842     A.U. after    8 cycles
 SCF Done:  E(RB3LYP) =  -819.810775064     A.U. after    8 cycles
 SCF Done:  E(RB3LYP) =  -819.810775113     A.U. after    8 cycles
 Optimization completed.
    -- Stationary point found.
 Normal termination of Gaussian 16 at Tue Dec  8 20:08:39 2020.

 --------------------------------------------------------------------
 #N Geom=AllCheck Guess=TCheck SCRF=Check GenChk RB3LYP/6-31G(d) Freq
 --------------------------------------------------------------------

 Structure from the checkpoint file:  "JID_1467.chk"
 ------------------------------
 CID_22924625_JID_1467_neutraal
 ------------------------------
 Charge =  0 Multiplicity = 1

 SCF Done:  E(RB3LYP) =  -819.810775113     A.U. after    1 cycles

  Exact polarizability: 144.844 -12.303 113.279  11.195   8.227  74.067
 Approx polarizability: 211.785 -26.356 186.033  24.512  21.632 118.962

                      1                      2                      3
                      A                      A                      A
 Frequencies --     36.0775                55.0595                91.3470
 Red. masses --      4.4074                 3.5453                 3.3902
 Frc consts  --      0.0034                 0.0063                 0.0167
 IR Inten    --      0.8541                 0.6452                 0.1444

                      4                      5                      6
                      A                      A                      A
 Frequencies --    147.7845               165.8991               182.1317
 Red. masses --      3.1685                 3.8384                 1.8613
 Frc consts  --      0.0408                 0.0622                 0.0364
 IR Inten    --      0.1352                 0.5337                 1.0426

                      7                      8                      9
                      A                      A                      A
 Frequencies --    239.2767               265.7678               328.5665
 Red. masses --      1.6318                 2.6417                 4.2246
 Frc consts  --      0.0550                 0.1099                 0.2687
 IR Inten    --      0.2887                 0.0829                 1.6971

                     10                     11                     12
                      A                      A                      A
 Frequencies --    378.2424               389.3308               424.0740
 Red. masses --      3.0533                 1.9499                 4.3198
 Frc consts  --      0.2574                 0.1741                 0.4577
 IR Inten    --      2.8972                 0.3473                 2.0641

                     13                     14                     15
                      A                      A                      A
 Frequencies --    456.9534               512.6422               660.6936
 Red. masses --      2.5438                 3.5865                 4.7102
 Frc consts  --      0.3130                 0.5553                 1.2114
 IR Inten    --      0.6298                 7.5441                 0.1124

                     16                     17                     18
                      A                      A                      A
 Frequencies --    679.3622               754.2722               770.3546
 Red. masses --      8.1069                 3.6250                 1.7868
 Frc consts  --      2.2045                 1.2151                 0.6247
 IR Inten    --     12.7586                33.1959                21.7383

                     19                     20                     21
                      A                      A                      A
 Frequencies --    776.9076               801.3145               831.2596
 Red. masses --      3.5137                 2.0743                 1.3234
 Frc consts  --      1.2495                 0.7847                 0.5388
 IR Inten    --     20.1614                 1.8370                12.5524

                     22                     23                     24
                      A                      A                      A
 Frequencies --    896.9070               927.2150               974.8308
 Red. masses --      1.4546                 1.9231                 1.3657
 Frc consts  --      0.6894                 0.9741                 0.7646
 IR Inten    --      2.1296                 2.6431                 0.3854

                     25                     26                     27
                      A                      A                      A
 Frequencies --    987.1104              1005.2404              1010.4775
 Red. masses --      1.7585                 9.1485                 1.4586
 Frc consts  --      1.0095                 5.4468                 0.8775
 IR Inten    --      0.3291                13.9121                 0.0696

                     28                     29                     30
                      A                      A                      A
 Frequencies --   1069.2152              1109.1854              1113.8701
 Red. masses --      1.9687                 1.4366                 1.6396
 Frc consts  --      1.3260                 1.0413                 1.1985
 IR Inten    --      1.3205                 2.3467                 3.1641

                     31                     32                     33
                      A                      A                      A
 Frequencies --   1129.3121              1174.9602              1206.1381
 Red. masses --      1.8784                 6.3341                 1.4610
 Frc consts  --      1.4115                 5.1521                 1.2523
 IR Inten    --      0.6450                49.6429                 1.3931

                     34                     35                     36
                      A                      A                      A
 Frequencies --   1217.3593              1252.0885              1269.8977
 Red. masses --      1.5971                 6.0626                 1.3409
 Frc consts  --      1.3945                 5.5999                 1.2741
 IR Inten    --     12.0493                11.2768                 0.8004

                     37                     38                     39
                      A                      A                      A
 Frequencies --   1323.3198              1339.4079              1346.3207
 Red. masses --      1.3306                 1.2263                 1.5961
 Frc consts  --      1.3729                 1.2962                 1.7046
 IR Inten    --     18.5992                18.8750                 4.7508

                     40                     41                     42
                      A                      A                      A
 Frequencies --   1396.4248              1410.2791              1428.1906
 Red. masses --      1.3302                 1.4991                 1.6967
 Frc consts  --      1.5283                 1.7567                 2.0390
 IR Inten    --      2.1635                 6.3954                64.8417

                     43                     44                     45
                      A                      A                      A
 Frequencies --   1445.1236              1490.0573              1501.1201
 Red. masses --      1.2525                 1.6824                 1.1574
 Frc consts  --      1.5411                 2.2008                 1.5367
 IR Inten    --      5.6791                72.3585                18.4477

                     46                     47                     48
                      A                      A                      A
 Frequencies --   1511.6897              1524.8247              1530.1798
 Red. masses --      1.0912                 1.0559                 1.0484
 Frc consts  --      1.4692                 1.4465                 1.4463
 IR Inten    --      2.9222                 2.8212                 7.0407

                     49                     50                     51
                      A                      A                      A
 Frequencies --   1538.6356              1589.6326              1620.1431
 Red. masses --      1.0757                 6.2179                 5.0655
 Frc consts  --      1.5005                 9.2574                 7.8339
 IR Inten    --      5.5090                68.9581               260.6433

                     52                     53                     54
                      A                      A                      A
 Frequencies --   3027.9180              3047.2204              3052.6834
 Red. masses --      1.0672                 1.0382                 1.0612
 Frc consts  --      5.7649                 5.6796                 5.8265
 IR Inten    --     33.4675                14.7011                22.1674

                     55                     56                     57
                      A                      A                      A
 Frequencies --   3081.8951              3082.9879              3088.7880
 Red. masses --      1.0844                 1.0914                 1.0809
 Frc consts  --      6.0686                 6.1116                 6.0762
 IR Inten    --      2.9522                 8.7870                31.7170

                     58                     59                     60
                      A                      A                      A
 Frequencies --   3109.5444              3120.0489              3131.4851
 Red. masses --      1.1020                 1.1018                 1.1032
 Frc consts  --      6.2783                 6.3191                 6.3741
 IR Inten    --     87.1938                31.0037                13.3232

                     61                     62                     63
                      A                      A                      A
 Frequencies --   3175.5770              3192.2789              3264.7895
 Red. masses --      1.0905                 1.0913                 1.0911
 Frc consts  --      6.4795                 6.5526                 6.8520
 IR Inten    --     24.9438                34.0869                 4.4899

 - Thermochemistry -
 -------------------
 Temperature   298.150 Kelvin.  Pressure   1.00000 Atm.
 Atom     1 has atomic number  6 and mass  12.00000

 Molecular mass:   168.07212 amu.
 Principal axes and moments of inertia in atomic units:
                           1         2         3
     Eigenvalues --  1176.359792799.137783632.48952
           X            0.99971   0.02407   0.00036
           Y           -0.02407   0.99971   0.00179
           Z           -0.00032  -0.00180   1.00000
 This molecule is an asymmetric top.
 Rotational symmetry number  1.
 Warning -- assumption of classical behavior for rotation
           may cause significant error
 Rotational temperatures (Kelvin)      0.07363     0.03094     0.02384
 Rotational constants (GHZ):           1.53417     0.64475     0.49683
 Zero-point vibrational energy     506389.4 (Joules/Mol)
                                  121.02996 (Kcal/Mol)
 Warning -- explicit consideration of  14 degrees of freedom as
           vibrations may cause significant error
 Vibrational temperatures:     51.91    79.22   131.43   212.63   238.69
          (Kelvin)            262.05   344.27   382.38   472.73   544.21
                              560.16   610.15   657.45   737.58   950.59
                              977.45  1085.23  1108.37  1117.80  1152.91
                             1196.00  1290.45  1334.06  1402.56  1420.23
                             1446.32  1453.85  1538.36  1595.87  1602.61
                             1624.83  1690.51  1735.36  1751.51  1801.48
                             1827.10  1903.96  1927.11  1937.06  2009.14
                             2029.08  2054.85  2079.21  2143.86  2159.78
                             2174.98  2193.88  2201.59  2213.75  2287.13
                             2331.02  4356.50  4384.27  4392.13  4434.16
                             4435.73  4444.08  4473.94  4489.05  4505.51
                             4568.95  4592.98  4697.30

 Zero-point correction=                           0.192874 (Hartree/Particle)
 Thermal correction to Energy=                    0.203945
 Thermal correction to Enthalpy=                  0.204889
 Thermal correction to Gibbs Free Energy=         0.154786
 Sum of electronic and zero-point Energies=           -819.617902
 Sum of electronic and thermal Energies=              -819.606830
 Sum of electronic and thermal Enthalpies=            -819.605886
 Sum of electronic and thermal Free Energies=         -819.655989

                     E (Thermal)             CV                S
                      KCal/Mol        Cal/Mol-Kelvin    Cal/Mol-Kelvin
 Total                  127.977             40.682            105.450
 Electronic               0.000              0.000              0.000
 Translational            0.889              2.981             41.266
 Rotational               0.889              2.981             30.859
 Vibrational            126.200             34.720             33.325
 Vibration     1          0.594              1.982              5.464
 Vibration     2          0.596              1.976              4.627
 Vibration     3          0.602              1.955              3.631
 Vibration     4          0.617              1.905              2.701
 Vibration     5          0.624              1.884              2.481
 Vibration     6          0.630              1.864              2.306
 Vibration     7          0.657              1.780              1.808
 Vibration     8          0.672              1.736              1.624
 Vibration     9          0.712              1.618              1.267
 Vibration    10          0.749              1.517              1.046
 Vibration    11          0.757              1.493              1.003
 Vibration    12          0.786              1.418              0.878
 Vibration    13          0.815              1.346              0.775
 Vibration    14          0.868              1.222              0.627

 Optimization completed.
    -- Stationary point found.
 Normal termination of Gaussian 16 at Tue Dec  8 20:13:21 2020.

 ----------------------------------------------------------------------
 # B3LYP/6-311++G(d,p) empiricaldispersion=gd3bj scf=xqc pop=npa geom=c
 heck
 ----------------------------------------------------------------------

 --------------------------------------
 CID_22924625_JID_1467_Energie_neutraal
 --------------------------------------
 Structure from the checkpoint file:  "JID_1467.chk"
 Charge =  0 Multiplicity = 1

 SCF Done:  E(RB3LYP) =  -819.950163249     A.U. after   15 cycles
 Normal termination of Gaussian 16 at Tue Dec  8 20:15:49 2020.

 ----------------------------------------------------------------------
 # B3LYP/6-311++G(d,p) empiricaldispersion=gd3bj scf=xqc pop=npa geom=c
 heck
 ----------------------------------------------------------------------

 ------------------------------------
 CID_22924625_JID_1467_Energie_kation
 ------------------------------------
 Structure from the checkpoint file:  "JID_1467.chk"
 Charge =  1 Multiplicity = 2

 SCF Done:  E(UB3LYP) =  -819.635386140     A.U. after   24 cycles
 Normal termination of Gaussian 16 at Tue Dec  8 20:21:07 2020.
 Gaussian 16:  ES64L-G16RevA.03 25-Dec-2016

 ----------------------------------------------------------------------
 # B3LYP/6-311++G(d,p) empiricaldispersion=gd3bj scf=xqc pop=npa geom=c
 heck
 ----------------------------------------------------------------------

 -----------------------------------
 CID_22924625_JID_1467_Energie_anion
 -----------------------------------
 Structure from the checkpoint file:  "JID_1467.chk"
 Charge = -1 Multiplicity = 2

                         Standard orientation:
 ---------------------------------------------------------------------
 Center     Atomic      Atomic             Coordinates (Angstroms)
 Number     Number       Type             X           Y           Z
 ---------------------------------------------------------------------
      1          6           0        2.479896    2.113525   -0.015775
      2          6           0        2.323049    0.883200   -0.914933
      3          6           0        2.783011   -0.422037   -0.251387
      4          6           0        1.819926   -1.003209    0.791824
      5         16           0        0.319611   -1.789211    0.070990
      6          6           0       -0.947831   -0.552795    0.080132
      7          7           0       -2.079998   -0.983197   -0.497104
      8          6           0       -3.101707   -0.127094   -0.526142
      9          7           0       -3.131821    1.120561   -0.046581
     10          6           0       -1.993295    1.528759    0.530528
     11          6           0       -0.858064    0.733163    0.629091
     12          1           0        1.958534    1.999033    0.941984
     13          1           0        2.082262    3.012397   -0.498868
     14          1           0        3.536476    2.295068    0.214264
     15          1           0        1.281376    0.779923   -1.242695
     16          1           0        2.911259    1.038904   -1.827469
     17          1           0        2.953771   -1.186809   -1.017700
     18          1           0        3.751377   -0.254491    0.242497
     19          1           0        2.303869   -1.826046    1.326915
     20          1           0        1.526432   -0.273206    1.550867
     21          1           0       -4.013447   -0.489144   -0.996847
     22          1           0       -1.989879    2.540473    0.932938
     23          1           0        0.037019    1.108658    1.104055
 ---------------------------------------------------------------------

 SCF Done:  E(UB3LYP) =  -819.944315977     A.U. after   33 cycles
 SCF Done:  E(UB3LYP) =  -819.944315977     a.u. after    1 cycles

 The electronic state is 2-A.
 Alpha  occ. eigenvalues --  -88.73428 -14.17555 -14.17316 -10.10911 -10.10896
 Alpha  occ. eigenvalues --  -10.09350 -10.07574 -10.06420 -10.05966 -10.05870
 Alpha  occ. eigenvalues --  -10.05275  -7.82053  -5.78432  -5.78027  -5.77485
 Alpha  occ. eigenvalues --   -0.85385  -0.76148  -0.70985  -0.67233  -0.64464
 Alpha  occ. eigenvalues --   -0.59208  -0.54188  -0.52475  -0.49273  -0.45923
 Alpha  occ. eigenvalues --   -0.39654  -0.38541  -0.36166  -0.35189  -0.34105
 Alpha  occ. eigenvalues --   -0.31001  -0.30200  -0.30150  -0.28805  -0.28234
 Alpha  occ. eigenvalues --   -0.26260  -0.23596  -0.23045  -0.22341  -0.20750
 Alpha  occ. eigenvalues --   -0.20247  -0.17275  -0.16762  -0.12618  -0.11268
 Alpha  occ. eigenvalues --    0.04801
 Alpha virt. eigenvalues --    0.06698   0.08107   0.08484   0.09388   0.09578
 Alpha virt. eigenvalues --    0.10171   0.10964   0.11331   0.11571   0.12951
 Alpha virt. eigenvalues --    0.13668   0.14128   0.14613   0.15390   0.15789

  Beta  occ. eigenvalues --  -88.73428 -14.17310 -14.17124 -10.10953 -10.10619
  Beta  occ. eigenvalues --  -10.09337 -10.07282 -10.06392 -10.05959 -10.05954
  Beta  occ. eigenvalues --  -10.05238  -7.82053  -5.78438  -5.78032  -5.77477
  Beta  occ. eigenvalues --   -0.85002  -0.75641  -0.70902  -0.67018  -0.64351
  Beta  occ. eigenvalues --   -0.59081  -0.54091  -0.52235  -0.48952  -0.45828
  Beta  occ. eigenvalues --   -0.39529  -0.38352  -0.36076  -0.35116  -0.34014
  Beta  occ. eigenvalues --   -0.30947  -0.30092  -0.29301  -0.28649  -0.28079
  Beta  occ. eigenvalues --   -0.26164  -0.23539  -0.22976  -0.22287  -0.20310
  Beta  occ. eigenvalues --   -0.19343  -0.16962  -0.15850  -0.12363  -0.10898
  Beta virt. eigenvalues --    0.07405   0.08591   0.08765   0.09657   0.09697
  Beta virt. eigenvalues --    0.09899   0.10477   0.11180   0.11607   0.11902
  Beta virt. eigenvalues --    0.13256   0.13775   0.14168   0.14786   0.15454

 Mulliken charges and spin densities:
               1          2
     1  C    0.910078  -1.499198
     2  C   -0.958679   0.817764
     3  C    0.575426  -0.949667
     4  C    0.205989  -0.342320
     5  S    0.260348  -0.243472
     6  C   -0.907679   0.264650
     7  N   -0.029821   0.132749
     8  C    0.008805   0.007474
     9  N   -0.179511   0.078191
    10  C   -0.484710  -0.008142
    11  C    0.530298   0.073606
    12  H   -0.240205   0.373111
    13  H   -0.087910   0.224695
    14  H   -0.415530   0.554043
    15  H    0.062017   0.080231
    16  H   -0.075276   0.234433
    17  H   -0.118527   0.260381
    18  H   -0.381284   0.505313
    19  H   -0.018710   0.276154
    20  H   -0.150644   0.292272
    21  H    0.157215   0.004459
    22  H    0.055826   0.066217
    23  H    0.282483  -0.202943
 Sum of Mulliken charges =  -1.00000   1.00000

 Dipole moment (field-independent basis, Debye):
    X=             -1.7510    Y=             -1.4547    Z=              0.0515  Tot=              2.2770
 Quadrupole moment (field-independent basis, Debye-Ang):
   XX=           -138.8081   YY=           -108.0857   ZZ=            -92.1879
   XY=             -3.4715   XZ=             -3.9531   YZ=             -0.5860

 Summary of Natural Population Analysis:

                                       Natural Population
                Natural  -----------------------------------------------
    Atom  No    Charge         Core      Valence    Rydberg      Total
 -----------------------------------------------------------------------
      C    1   -0.28498      0.99966     2.27977    0.00555     3.28498
      C    2   -0.19670      0.99963     2.18798    0.00909     3.19670
      C    3   -0.19525      0.99961     2.18502    0.01062     3.19525
      C    4   -0.25593      0.99958     2.24431    0.01203     3.25593
      S    5    0.12651      4.99952     2.85228    0.02168     7.87349
      C    6    0.08480      0.99948     1.89880    0.01693     2.91520
      N    7   -0.23414      0.99966     2.72391    0.01057     3.73414
      C    8    0.13156      0.99967     1.84962    0.01915     2.86844
      N    9   -0.23880      0.99972     2.72913    0.00995     3.73880
      C   10    0.08715      0.99960     1.89494    0.01831     2.91285
      C   11   -0.17888      0.99948     2.17144    0.00796     3.17888
      H   12    0.09239      0.00000     0.40624    0.00137     0.40761
      H   13    0.09950      0.00000     0.39953    0.00097     0.40050
      H   14    0.09758      0.00000     0.40071    0.00171     0.40242
      H   15    0.10179      0.00000     0.39640    0.00181     0.39821
      H   16    0.09448      0.00000     0.40453    0.00099     0.40552
      H   17    0.09917      0.00000     0.39952    0.00132     0.40083
      H   18    0.09863      0.00000     0.39871    0.00266     0.40137
      H   19    0.10629      0.00000     0.39260    0.00112     0.39371
      H   20    0.10435      0.00000     0.39427    0.00138     0.39565
      H   21    0.07518      0.00000     0.42357    0.00126     0.42482
      H   22    0.08239      0.00000     0.41622    0.00139     0.41761
      H   23    0.10292      0.00000     0.39492    0.00216     0.39708
 =======================================================================
   * Total *   -0.00000     14.99561    29.84441    0.15998    45.00000

 Normal termination of Gaussian 16 at Tue Dec  8 20:31:31 2020.
