 Gaussian 16, Revision A.03,

 -----------------------------------------------------------
 # opt freq B3LYP/6-31G(d) empiricaldispersion=gd3bj scf=xqc
 -----------------------------------------------------------

 -----------------------------
 CID_90110086_JID_506_neutraal
 -----------------------------
 Symbolic Z-matrix:
 Charge =  0 Multiplicity = 1

 SCF Done:  E(RB3LYP) =  -456.267256346     A.U. after   16 cycles
 SCF Done:  E(RB3LYP) =  -456.289025216     A.U. after   13 cycles
 SCF Done:  E(RB3LYP) =  -456.289851477     A.U. after   12 cycles
 SCF Done:  E(RB3LYP) =  -456.290051547     A.U. after   12 cycles
 SCF Done:  E(RB3LYP) =  -456.290273838     A.U. after   12 cycles
 SCF Done:  E(RB3LYP) =  -456.290481272     A.U. after   12 cycles
 SCF Done:  E(RB3LYP) =  -456.290638802     A.U. after   13 cycles
 SCF Done:  E(RB3LYP) =  -456.290786763     A.U. after   11 cycles
 SCF Done:  E(RB3LYP) =  -456.290803360     A.U. after   11 cycles
 SCF Done:  E(RB3LYP) =  -456.290806013     A.U. after   11 cycles
 SCF Done:  E(RB3LYP) =  -456.290807014     A.U. after    9 cycles
 SCF Done:  E(RB3LYP) =  -456.290807365     A.U. after    8 cycles
 SCF Done:  E(RB3LYP) =  -456.290807496     A.U. after    8 cycles
 SCF Done:  E(RB3LYP) =  -456.290807571     A.U. after    8 cycles
 SCF Done:  E(RB3LYP) =  -456.290807602     A.U. after    7 cycles
 Optimization completed.
    -- Stationary point found.
 Normal termination of Gaussian 16 at Tue Dec  8 12:16:43 2020.

 --------------------------------------------------------------------
 #N Geom=AllCheck Guess=TCheck SCRF=Check GenChk RB3LYP/6-31G(d) Freq
 --------------------------------------------------------------------

 Structure from the checkpoint file:  "JID_506.chk"
 -----------------------------
 CID_90110086_JID_506_neutraal
 -----------------------------
 Charge =  0 Multiplicity = 1

 SCF Done:  E(RB3LYP) =  -456.290807602     A.U. after    1 cycles

  Exact polarizability:  98.408   1.691  84.315   0.717   3.599  57.147
 Approx polarizability: 127.904   5.404 137.792  -0.069   9.686  90.692

                      1                      2                      3
                      A                      A                      A
 Frequencies --     38.1765                58.4820                87.4890
 Red. masses --      3.8483                 3.2049                 5.4076
 Frc consts  --      0.0033                 0.0065                 0.0244
 IR Inten    --      4.9163                 1.2290                 2.0041

                      4                      5                      6
                      A                      A                      A
 Frequencies --    148.2820               193.6155               250.4427
 Red. masses --      4.4654                 1.4634                 1.9845
 Frc consts  --      0.0578                 0.0323                 0.0733
 IR Inten    --      1.5876                 2.3729                 4.6724

                      7                      8                      9
                      A                      A                      A
 Frequencies --    294.7282               367.9328               375.4050
 Red. masses --      3.3380                 3.1569                 3.1592
 Frc consts  --      0.1708                 0.2518                 0.2623
 IR Inten    --      3.5532                 0.3442                 2.0564

                     10                     11                     12
                      A                      A                      A
 Frequencies --    417.0180               491.2748               622.7096
 Red. masses --      4.2456                 7.6764                 4.2239
 Frc consts  --      0.4350                 1.0916                 0.9650
 IR Inten    --      0.0635                 2.3623                 1.0107

                     13                     14                     15
                      A                      A                      A
 Frequencies --    676.0634               710.8476               782.5595
 Red. masses --      4.2614                 4.3272                 2.2832
 Frc consts  --      1.1476                 1.2883                 0.8238
 IR Inten    --      8.6199                 0.3858                 7.8248

                     16                     17                     18
                      A                      A                      A
 Frequencies --    806.0735               845.7841               932.4833
 Red. masses --      1.7726                 1.3480                 2.1927
 Frc consts  --      0.6786                 0.5681                 1.1233
 IR Inten    --      4.2195                15.0096                 6.4665

                     19                     20                     21
                      A                      A                      A
 Frequencies --    946.6632               967.7397               995.0516
 Red. masses --      4.6830                 2.6621                 4.7362
 Frc consts  --      2.4726                 1.4689                 2.7629
 IR Inten    --      8.4346                 4.5456                 3.1241

                     22                     23                     24
                      A                      A                      A
 Frequencies --   1016.1168              1087.1929              1106.9923
 Red. masses --      4.0982                 1.9671                 1.5782
 Frc consts  --      2.4930                 1.3699                 1.1395
 IR Inten    --     24.2455                15.0349                 0.3808

                     25                     26                     27
                      A                      A                      A
 Frequencies --   1149.6632              1228.0111              1234.1244
 Red. masses --      2.3809                 1.5638                 3.1518
 Frc consts  --      1.8541                 1.3894                 2.8283
 IR Inten    --     24.0811                 7.2506                10.4708

                     28                     29                     30
                      A                      A                      A
 Frequencies --   1270.5256              1301.0260              1348.5054
 Red. masses --      1.6131                 1.3967                 1.5259
 Frc consts  --      1.5342                 1.3930                 1.6348
 IR Inten    --      1.0849                 4.6887                 5.7461

                     31                     32                     33
                      A                      A                      A
 Frequencies --   1377.1938              1394.9187              1439.5051
 Red. masses --      1.5120                 2.8686                 1.2348
 Frc consts  --      1.6897                 3.2887                 1.5076
 IR Inten    --      6.5593                12.1596                 1.7125

                     34                     35                     36
                      A                      A                      A
 Frequencies --   1476.7326              1505.6378              1527.0401
 Red. masses --      1.0799                 1.0785                 1.0404
 Frc consts  --      1.3875                 1.4405                 1.4293
 IR Inten    --      9.0925                 2.8074                 7.6589

                     37                     38                     39
                      A                      A                      A
 Frequencies --   1536.3709              1621.1537              1658.3560
 Red. masses --      1.0615                 8.9831                 7.2374
 Frc consts  --      1.4763                13.9099                11.7271
 IR Inten    --      2.6269                31.6518                18.4269

                     40                     41                     42
                      A                      A                      A
 Frequencies --   2380.5648              3044.4322              3056.0502
 Red. masses --     12.6075                 1.0657                 1.0668
 Frc consts  --     42.0958                 5.8198                 5.8702
 IR Inten    --      4.6353                22.0386                 3.0382

                     43                     44                     45
                      A                      A                      A
 Frequencies --   3061.9969              3095.2035              3127.7878
 Red. masses --      1.0347                 1.0974                 1.0950
 Frc consts  --      5.7156                 6.1945                 6.3115
 IR Inten    --     24.3554                 8.1427                 0.3260

                     46                     47                     48
                      A                      A                      A
 Frequencies --   3133.3045              3140.7424              3281.3711
 Red. masses --      1.1036                 1.1033                 1.0982
 Frc consts  --      6.3835                 6.4124                 6.9670
 IR Inten    --     31.3993                24.0940                 5.1170

 - Thermochemistry -
 -------------------
 Temperature   298.150 Kelvin.  Pressure   1.00000 Atm.
 Atom     1 has atomic number  6 and mass  12.00000

 Molecular mass:   136.06366 amu.
 Principal axes and moments of inertia in atomic units:
                           1         2         3
     Eigenvalues --   813.389372028.558712638.27736
           X            0.99862  -0.05153   0.01002
           Y            0.05156   0.99867  -0.00237
           Z           -0.00989   0.00288   0.99995
 This molecule is an asymmetric top.
 Rotational symmetry number  1.
 Warning -- assumption of classical behavior for rotation
           may cause significant error
 Rotational temperatures (Kelvin)      0.10649     0.04270     0.03283
 Rotational constants (GHZ):           2.21879     0.88967     0.68406
 Zero-point vibrational energy     374487.0 (Joules/Mol)
                                   89.50455 (Kcal/Mol)
 Warning -- explicit consideration of  11 degrees of freedom as
           vibrations may cause significant error
 Vibrational temperatures:     54.93    84.14   125.88   213.34   278.57
          (Kelvin)            360.33   424.05   529.37   540.12   600.00
                              706.83   895.94   972.70  1022.75  1125.93
                             1159.76  1216.89  1341.64  1362.04  1392.36
                             1431.66  1461.97  1564.23  1592.72  1654.11
                             1766.83  1775.63  1828.00  1871.89  1940.20
                             1981.47  2006.98  2071.13  2124.69  2166.28
                             2197.07  2210.50  2332.48  2386.00  3425.10
                             4380.26  4396.97  4405.53  4453.31  4500.19
                             4508.13  4518.83  4721.16

 Zero-point correction=                           0.142635 (Hartree/Particle)
 Thermal correction to Energy=                    0.152225
 Thermal correction to Enthalpy=                  0.153169
 Thermal correction to Gibbs Free Energy=         0.106385
 Sum of electronic and zero-point Energies=           -456.148173
 Sum of electronic and thermal Energies=              -456.138583
 Sum of electronic and thermal Enthalpies=            -456.137639
 Sum of electronic and thermal Free Energies=         -456.184422

                     E (Thermal)             CV                S
                      KCal/Mol        Cal/Mol-Kelvin    Cal/Mol-Kelvin
 Total                   95.523             33.769             98.465
 Electronic               0.000              0.000              0.000
 Translational            0.889              2.981             40.636
 Rotational               0.889              2.981             29.855
 Vibrational             93.745             27.807             27.974
 Vibration     1          0.594              1.982              5.352
 Vibration     2          0.596              1.974              4.508
 Vibration     3          0.601              1.958              3.715
 Vibration     4          0.618              1.905              2.694
 Vibration     5          0.635              1.849              2.193
 Vibration     6          0.663              1.762              1.727
 Vibration     7          0.689              1.684              1.447
 Vibration     8          0.741              1.538              1.088
 Vibration     9          0.746              1.523              1.058
 Vibration    10          0.780              1.433              0.902
 Vibration    11          0.847              1.269              0.680

 Optimization completed.
    -- Stationary point found.
 Normal termination of Gaussian 16 at Tue Dec  8 12:21:57 2020.

 ----------------------------------------------------------------------
 # B3LYP/6-311++G(d,p) empiricaldispersion=gd3bj scf=xqc pop=npa geom=c
 heck
 ----------------------------------------------------------------------

 -------------------------------------
 CID_90110086_JID_506_Energie_neutraal
 -------------------------------------
 Structure from the checkpoint file:  "JID_506.chk"
 Charge =  0 Multiplicity = 1

 SCF Done:  E(RB3LYP) =  -456.416668619     A.U. after   14 cycles
 Normal termination of Gaussian 16 at Tue Dec  8 12:23:47 2020.

 ----------------------------------------------------------------------
 # B3LYP/6-311++G(d,p) empiricaldispersion=gd3bj scf=xqc pop=npa geom=c
 heck
 ----------------------------------------------------------------------

 -----------------------------------
 CID_90110086_JID_506_Energie_kation
 -----------------------------------
 Structure from the checkpoint file:  "JID_506.chk"
 Charge =  1 Multiplicity = 2

 SCF Done:  E(UB3LYP) =  -456.080395243     A.U. after   20 cycles
 Normal termination of Gaussian 16 at Tue Dec  8 12:26:56 2020.
 Gaussian 16:  ES64L-G16RevA.03 25-Dec-2016

 ----------------------------------------------------------------------
 # B3LYP/6-311++G(d,p) empiricaldispersion=gd3bj scf=xqc pop=npa geom=c
 heck
 ----------------------------------------------------------------------

 ----------------------------------
 CID_90110086_JID_506_Energie_anion
 ----------------------------------
 Structure from the checkpoint file:  "JID_506.chk"
 Charge = -1 Multiplicity = 2

                         Standard orientation:
 ---------------------------------------------------------------------
 Center     Atomic      Atomic             Coordinates (Angstroms)
 Number     Number       Type             X           Y           Z
 ---------------------------------------------------------------------
      1          6           0       -2.600935    1.722580   -0.302866
      2          6           0       -2.594795    0.349670    0.390932
      3          6           0       -1.358996   -0.432247    0.120448
      4          6           0       -1.065122   -1.600170   -0.509599
      5          7           0        0.310909   -1.819405   -0.484792
      6          6           0        0.784377   -0.794855    0.149602
      7          8           0       -0.159323    0.097652    0.555088
      8          6           0        2.213886   -0.505261    0.484851
      9          6           0        2.678721    0.775577   -0.063013
     10          7           0        3.040334    1.790867   -0.490998
     11          1           0       -1.750989    2.327672    0.026799
     12          1           0       -3.521596    2.266274   -0.067933
     13          1           0       -2.534210    1.609326   -1.389692
     14          1           0       -2.711926    0.485134    1.474465
     15          1           0       -3.447516   -0.250563    0.054891
     16          1           0       -1.740676   -2.299082   -0.981102
     17          1           0        2.361020   -0.491599    1.572789
     18          1           0        2.818967   -1.320375    0.077482
 ---------------------------------------------------------------------

 SCF Done:  E(UB3LYP) =  -456.407034446     A.U. after   29 cycles

 The electronic state is 2-A.
 Alpha  occ. eigenvalues --  -19.09005 -14.21584 -14.20821 -10.16031 -10.12930
 Alpha  occ. eigenvalues --  -10.12509 -10.11772 -10.08901 -10.07924 -10.05974
 Alpha  occ. eigenvalues --   -1.02761  -0.82005  -0.81287  -0.72241  -0.68398
 Alpha  occ. eigenvalues --   -0.61762  -0.53952  -0.51672  -0.47243  -0.43663
 Alpha  occ. eigenvalues --   -0.41006  -0.37191  -0.36274  -0.34795  -0.33288
 Alpha  occ. eigenvalues --   -0.32542  -0.30261  -0.27922  -0.27214  -0.26336
 Alpha  occ. eigenvalues --   -0.25039  -0.23913  -0.23558  -0.21996  -0.19200
 Alpha  occ. eigenvalues --   -0.13735   0.04472
 Alpha virt. eigenvalues --    0.06779   0.08092   0.08867   0.09253   0.09945
 Alpha virt. eigenvalues --    0.10631   0.11446   0.11855   0.12583   0.12624
 Alpha virt. eigenvalues --    0.13690   0.14115   0.15175   0.16143   0.16395

  Beta  occ. eigenvalues --  -19.08935 -14.21559 -14.20811 -10.15945 -10.12889
  Beta  occ. eigenvalues --  -10.12455 -10.11760 -10.08893 -10.07896 -10.05933
  Beta  occ. eigenvalues --   -1.02643  -0.81934  -0.81244  -0.72114  -0.68299
  Beta  occ. eigenvalues --   -0.61680  -0.53863  -0.51583  -0.47126  -0.43549
  Beta  occ. eigenvalues --   -0.40806  -0.37092  -0.36106  -0.34704  -0.33226
  Beta  occ. eigenvalues --   -0.32452  -0.30174  -0.27831  -0.27161  -0.26260
  Beta  occ. eigenvalues --   -0.24988  -0.23813  -0.23507  -0.21785  -0.19161
  Beta  occ. eigenvalues --   -0.13423
  Beta virt. eigenvalues --    0.07182   0.08150   0.08746   0.09357   0.09934
  Beta virt. eigenvalues --    0.10527   0.11382   0.11924   0.12003   0.12693
  Beta virt. eigenvalues --    0.12847   0.13863   0.14230   0.15248   0.16327

 Mulliken charges and spin densities:
               1          2
     1  C    0.774269  -1.272899
     2  C   -0.247081  -0.062928
     3  C    0.164063   0.149434
     4  C   -0.160475  -0.091635
     5  N   -0.149234   0.097090
     6  C   -1.101694   1.044557
     7  O   -0.036125   0.072417
     8  C    2.880191  -3.218266
     9  C   -0.136618   0.252611
    10  N   -0.332236   0.016611
    11  H    0.078655   0.081455
    12  H   -0.529182   0.677640
    13  H    0.029966   0.097963
    14  H   -0.347389   0.512083
    15  H   -0.532710   0.701477
    16  H   -0.545432   0.711321
    17  H   -0.771924   1.003685
    18  H   -0.037044   0.227385
 Sum of Mulliken charges =  -1.00000   1.00000

 Dipole moment (field-independent basis, Debye):
    X=              1.4622    Y=             -1.3782    Z=             -1.8740  Tot=              2.7476
 Quadrupole moment (field-independent basis, Debye-Ang):
   XX=           -124.1366   YY=            -95.1335   ZZ=            -87.6456
   XY=             -0.2877   XZ=             -1.1389   YZ=             -0.3614

 Summary of Natural Population Analysis:

                                       Natural Population
                Natural  -----------------------------------------------
    Atom  No    Charge         Core      Valence    Rydberg      Total
 -----------------------------------------------------------------------
      C    1   -0.28107      0.99966     2.27532    0.00609     3.28107
      C    2   -0.21382      0.99961     2.20526    0.00895     3.21382
      C    3    0.15110      0.99946     1.83377    0.01567     2.84890
      C    4   -0.04793      0.99947     2.03653    0.01192     3.04793
      N    5   -0.25218      0.99968     2.74266    0.00984     3.75218
      C    6    0.27636      0.99959     1.70331    0.02075     2.72364
      O    7   -0.23523      0.99985     3.22717    0.00821     4.23523
      C    8   -0.26921      0.99951     2.26024    0.00947     3.26921
      C    9    0.16733      0.99965     1.81653    0.01649     2.83267
      N   10   -0.18239      0.99979     2.67127    0.01134     3.68239
      H   11    0.10079      0.00000     0.39781    0.00139     0.39921
      H   12    0.10081      0.00000     0.39724    0.00195     0.39919
      H   13    0.09738      0.00000     0.40154    0.00109     0.40262
      H   14    0.10884      0.00000     0.38830    0.00286     0.39116
      H   15    0.10844      0.00000     0.38880    0.00276     0.39156
      H   16    0.10147      0.00000     0.39733    0.00120     0.39853
      H   17    0.13651      0.00000     0.35388    0.00961     0.36349
      H   18    0.13279      0.00000     0.36548    0.00173     0.36721
 =======================================================================
   * Total *   -0.00000      9.99626    25.86242    0.14132    36.00000

 Normal termination of Gaussian 16 at Tue Dec  8 12:32:37 2020.
