 Gaussian 16, Revision A.03,

 -----------------------------------------------------------
 # opt freq B3LYP/6-31G(d) empiricaldispersion=gd3bj scf=xqc
 -----------------------------------------------------------

 ------------------------------
 CID_18520716_JID_5582_neutraal
 ------------------------------
 Symbolic Z-matrix:
 Charge =  0 Multiplicity = 1

 SCF Done:  E(RB3LYP) =  -696.255830499     A.U. after   14 cycles
 SCF Done:  E(RB3LYP) =  -696.260269805     A.U. after   12 cycles
 SCF Done:  E(RB3LYP) =  -696.259751879     A.U. after   11 cycles
 SCF Done:  E(RB3LYP) =  -696.261110090     A.U. after   11 cycles
 SCF Done:  E(RB3LYP) =  -696.261169485     A.U. after   10 cycles
 SCF Done:  E(RB3LYP) =  -696.261201442     A.U. after   10 cycles
 SCF Done:  E(RB3LYP) =  -696.261240623     A.U. after   10 cycles
 SCF Done:  E(RB3LYP) =  -696.261272120     A.U. after   11 cycles
 SCF Done:  E(RB3LYP) =  -696.261295959     A.U. after   10 cycles
 SCF Done:  E(RB3LYP) =  -696.261364885     A.U. after   10 cycles
 SCF Done:  E(RB3LYP) =  -696.261387691     A.U. after   11 cycles
 SCF Done:  E(RB3LYP) =  -696.261404250     A.U. after   10 cycles
 SCF Done:  E(RB3LYP) =  -696.261404279     A.U. after    9 cycles
 SCF Done:  E(RB3LYP) =  -696.261404735     A.U. after    7 cycles
 SCF Done:  E(RB3LYP) =  -696.261405407     A.U. after    8 cycles
 Optimization completed.
    -- Stationary point found.
 Normal termination of Gaussian 16 at Thu Dec 10 16:31:31 2020.

 --------------------------------------------------------------------
 #N Geom=AllCheck Guess=TCheck SCRF=Check GenChk RB3LYP/6-31G(d) Freq
 --------------------------------------------------------------------

 Structure from the checkpoint file:  "JID_5582.chk"
 ------------------------------
 CID_18520716_JID_5582_neutraal
 ------------------------------
 Charge =  0 Multiplicity = 1

 SCF Done:  E(RB3LYP) =  -696.261405407     A.U. after    1 cycles

  Exact polarizability: 141.668  -5.425 143.516   2.909  -0.054 111.173
 Approx polarizability: 179.647  -6.888 184.035   8.297  -1.594 183.588

                      1                      2                      3
                      A                      A                      A
 Frequencies --     32.2609                68.0162                91.7436
 Red. masses --      3.2323                 4.2076                 4.5899
 Frc consts  --      0.0020                 0.0115                 0.0228
 IR Inten    --      0.6617                 1.6220                 0.0824

                      4                      5                      6
                      A                      A                      A
 Frequencies --     99.3728               111.8722               119.6336
 Red. masses --      3.3892                 3.0236                 2.1026
 Frc consts  --      0.0197                 0.0223                 0.0177
 IR Inten    --      0.5803                 0.8342                 0.6157

                      7                      8                      9
                      A                      A                      A
 Frequencies --    147.7660               161.7999               179.7015
 Red. masses --      2.2492                 2.3447                 2.6342
 Frc consts  --      0.0289                 0.0362                 0.0501
 IR Inten    --      0.4516                 3.7239                 1.4352

                     10                     11                     12
                      A                      A                      A
 Frequencies --    191.9828               237.7164               276.6373
 Red. masses --      3.2209                 3.1262                 2.3542
 Frc consts  --      0.0699                 0.1041                 0.1061
 IR Inten    --      1.1413                 3.2683                 0.2548

                     13                     14                     15
                      A                      A                      A
 Frequencies --    294.9076               308.8571               327.2527
 Red. masses --      2.3073                 3.5638                 2.4601
 Frc consts  --      0.1182                 0.2003                 0.1552
 IR Inten    --      0.2942                 2.8734                 2.2849

                     16                     17                     18
                      A                      A                      A
 Frequencies --    350.3343               369.3796               409.0550
 Red. masses --      2.9203                 3.4910                 3.2177
 Frc consts  --      0.2112                 0.2806                 0.3172
 IR Inten    --      5.5437                 6.1541                 1.2336

                     19                     20                     21
                      A                      A                      A
 Frequencies --    471.4746               473.8160               504.4757
 Red. masses --      3.7351                 2.6312                 1.9762
 Frc consts  --      0.4892                 0.3480                 0.2963
 IR Inten    --      2.3503                 1.4728                 0.1088

                     22                     23                     24
                      A                      A                      A
 Frequencies --    512.5898               595.5805               719.6436
 Red. masses --      2.7628                 3.1755                 4.5935
 Frc consts  --      0.4277                 0.6637                 1.4016
 IR Inten    --      3.0718                16.3180                18.5723

                     25                     26                     27
                      A                      A                      A
 Frequencies --    728.5834               743.0519               782.0545
 Red. masses --      1.2259                 1.2029                 1.2237
 Frc consts  --      0.3834                 0.3913                 0.4410
 IR Inten    --      3.1097                 0.5397                 1.7443

                     28                     29                     30
                      A                      A                      A
 Frequencies --    820.1783               823.8284               845.7578
 Red. masses --      1.7573                 1.6156                 1.9483
 Frc consts  --      0.6965                 0.6460                 0.8211
 IR Inten    --      1.3729                 2.6220                 2.0503

                     31                     32                     33
                      A                      A                      A
 Frequencies --    876.6274               913.3883               932.5133
 Red. masses --      2.6511                 2.7066                 2.3184
 Frc consts  --      1.2003                 1.3304                 1.1878
 IR Inten    --      1.3605                 2.4255                 5.9870

                     34                     35                     36
                      A                      A                      A
 Frequencies --    932.9310               973.2214               987.7305
 Red. masses --      3.0521                 3.0339                 2.5094
 Frc consts  --      1.5651                 1.6931                 1.4425
 IR Inten    --      5.5887                 3.2951                21.3988

                     37                     38                     39
                      A                      A                      A
 Frequencies --    992.7205              1019.7841              1042.5550
 Red. masses --      1.8071                 1.7537                 2.6226
 Frc consts  --      1.0493                 1.0745                 1.6795
 IR Inten    --      4.5923                 1.4486                15.5121

                     40                     41                     42
                      A                      A                      A
 Frequencies --   1053.3592              1071.3510              1091.5042
 Red. masses --      2.1572                 2.4929                 2.5115
 Frc consts  --      1.4103                 1.6858                 1.7629
 IR Inten    --      5.6933                24.6264                 0.5601

                     43                     44                     45
                      A                      A                      A
 Frequencies --   1093.1188              1101.7277              1105.4801
 Red. masses --      1.9583                 2.0628                 2.0791
 Frc consts  --      1.3787                 1.4752                 1.4970
 IR Inten    --      1.6679                 1.3566                 0.5590

                     46                     47                     48
                      A                      A                      A
 Frequencies --   1142.3718              1158.4539              1170.2859
 Red. masses --      2.3907                 2.0637                 2.9865
 Frc consts  --      1.8382                 1.6317                 2.4099
 IR Inten    --     26.3977                 2.6291               190.5444

                     49                     50                     51
                      A                      A                      A
 Frequencies --   1200.4515              1218.8115              1233.5954
 Red. masses --      1.5410                 1.9887                 1.7985
 Frc consts  --      1.3084                 1.7405                 1.6125
 IR Inten    --      2.9090               211.1125                52.5312

                     52                     53                     54
                      A                      A                      A
 Frequencies --   1251.1415              1261.4221              1288.6702
 Red. masses --      1.3298                 1.3397                 1.2486
 Frc consts  --      1.2264                 1.2560                 1.2217
 IR Inten    --      7.5387                19.5826                10.4591

                     55                     56                     57
                      A                      A                      A
 Frequencies --   1296.2141              1305.9260              1327.1087
 Red. masses --      1.2552                 1.2482                 1.2378
 Frc consts  --      1.2425                 1.2542                 1.2844
 IR Inten    --      6.7564                26.5222                 6.0507

                     58                     59                     60
                      A                      A                      A
 Frequencies --   1334.3401              1342.5331              1349.4683
 Red. masses --      1.2278                 1.1503                 1.1784
 Frc consts  --      1.2880                 1.2215                 1.2644
 IR Inten    --      2.5224                 2.9905                 8.2618

                     61                     62                     63
                      A                      A                      A
 Frequencies --   1354.7983              1364.8393              1373.5539
 Red. masses --      1.1203                 1.0859                 1.2852
 Frc consts  --      1.2115                 1.1918                 1.4287
 IR Inten    --      2.5488                 0.6038                 1.0179

                     64                     65                     66
                      A                      A                      A
 Frequencies --   1390.1009              1397.3352              1402.4350
 Red. masses --      1.3733                 1.3739                 1.3453
 Frc consts  --      1.5636                 1.5806                 1.5590
 IR Inten    --      5.1828                 5.9068                 3.3816

                     67                     68                     69
                      A                      A                      A
 Frequencies --   1408.0188              1415.7173              1429.5876
 Red. masses --      1.3879                 1.4927                 1.4543
 Frc consts  --      1.6211                 1.7627                 1.7512
 IR Inten    --     10.3259                 0.3480                 3.8804

                     70                     71                     72
                      A                      A                      A
 Frequencies --   1438.4813              1454.0851              1501.7939
 Red. masses --      1.5528                 1.3788                 1.0831
 Frc consts  --      1.8931                 1.7176                 1.4393
 IR Inten    --      3.5674                12.2407                 1.0487

                     73                     74                     75
                      A                      A                      A
 Frequencies --   1505.5752              1510.1504              1519.5889
 Red. masses --      1.0959                 1.0901                 1.0915
 Frc consts  --      1.4636                 1.4648                 1.4850
 IR Inten    --      8.5786                 2.2364                 5.6522

                     76                     77                     78
                      A                      A                      A
 Frequencies --   1520.6040              1523.1152              1526.2723
 Red. masses --      1.0878                 1.0844                 1.0912
 Frc consts  --      1.4820                 1.4822                 1.4976
 IR Inten    --      5.9029                 2.7873                 1.8859

                     79                     80                     81
                      A                      A                      A
 Frequencies --   1527.3968              1530.5179              1540.5147
 Red. masses --      1.0791                 1.0973                 1.0864
 Frc consts  --      1.4833                 1.5144                 1.5190
 IR Inten    --      0.4843                 2.6610                 5.3222

                     82                     83                     84
                      A                      A                      A
 Frequencies --   1548.2696              1829.5270              3012.1306
 Red. masses --      1.0881                11.1610                 1.0652
 Frc consts  --      1.5368                22.0106                 5.6941
 IR Inten    --      4.1550               176.0371                29.5662

                     85                     86                     87
                      A                      A                      A
 Frequencies --   3016.3941              3022.1794              3025.1084
 Red. masses --      1.0615                 1.0636                 1.0671
 Frc consts  --      5.6904                 5.7234                 5.7537
 IR Inten    --     18.5841                11.7166                41.3350

                     88                     89                     90
                      A                      A                      A
 Frequencies --   3026.7883              3029.3657              3035.7474
 Red. masses --      1.0671                 1.0665                 1.0602
 Frc consts  --      5.7600                 5.7666                 5.7568
 IR Inten    --      9.6916                50.5654                20.8075

                     91                     92                     93
                      A                      A                      A
 Frequencies --   3039.6271              3047.9030              3051.9148
 Red. masses --      1.0725                 1.0838                 1.0717
 Frc consts  --      5.8383                 5.9319                 5.8812
 IR Inten    --     25.7208                47.4935                 8.1791

                     94                     95                     96
                      A                      A                      A
 Frequencies --   3053.1983              3060.9207              3071.3357
 Red. masses --      1.0848                 1.0911                 1.0998
 Frc consts  --      5.9581                 6.0229                 6.1123
 IR Inten    --      4.5098                55.6153                31.5946

                     97                     98                     99
                      A                      A                      A
 Frequencies --   3072.5036              3074.0969              3078.6316
 Red. masses --      1.0935                 1.0931                 1.0909
 Frc consts  --      6.0823                 6.0863                 6.0919
 IR Inten    --     12.8916                52.8125                81.3851

                    100                    101                    102
                      A                      A                      A
 Frequencies --   3090.0974              3094.9367              3097.5197
 Red. masses --      1.1000                 1.0964                 1.0600
 Frc consts  --      6.1888                 6.1877                 5.9922
 IR Inten    --     60.6721                14.8215                48.8817

                    103                    104                    105
                      A                      A                      A
 Frequencies --   3107.3784              3131.8015              3152.7722
 Red. masses --      1.1032                 1.0922                 1.1099
 Frc consts  --      6.2761                 6.3114                 6.5001
 IR Inten    --     56.6294                36.9648                14.3278

 - Thermochemistry -
 -------------------
 Temperature   298.150 Kelvin.  Pressure   1.00000 Atm.
 Atom     1 has atomic number  6 and mass  12.00000

 Molecular mass:   214.15689 amu.
 Principal axes and moments of inertia in atomic units:
                           1         2         3
     Eigenvalues --  3044.302593286.494145662.57217
           X            0.99229  -0.12390   0.00364
           Y            0.12389   0.99230   0.00046
           Z           -0.00367  -0.00001   0.99999
 This molecule is an asymmetric top.
 Rotational symmetry number  1.
 Warning -- assumption of classical behavior for rotation
           may cause significant error
 Rotational temperatures (Kelvin)      0.02845     0.02635     0.01530
 Rotational constants (GHZ):           0.59283     0.54914     0.31871
 Zero-point vibrational energy     880886.7 (Joules/Mol)
                                  210.53698 (Kcal/Mol)
 Warning -- explicit consideration of  23 degrees of freedom as
           vibrations may cause significant error
 Vibrational temperatures:     46.42    97.86   132.00   142.98   160.96
          (Kelvin)            172.13   212.60   232.79   258.55   276.22
                              342.02   398.02   424.31   444.38   470.84
                              504.05   531.45   588.54   678.35   681.72
                              725.83   737.50   856.91  1035.41  1048.27
                             1069.09  1125.20  1180.05  1185.31  1216.86
                             1261.27  1314.16  1341.68  1342.28  1400.25
                             1421.12  1428.30  1467.24  1500.00  1515.55
                             1541.44  1570.43  1572.75  1585.14  1590.54
                             1643.62  1666.76  1683.78  1727.18  1753.60
                             1774.87  1800.11  1814.91  1854.11  1864.96
                             1878.94  1909.41  1919.82  1931.61  1941.58
                             1949.25  1963.70  1976.24  2000.05  2010.45
                             2017.79  2025.83  2036.90  2056.86  2069.65
                             2092.10  2160.75  2166.19  2172.77  2186.35
                             2187.81  2191.42  2195.97  2197.58  2202.07
                             2216.46  2227.61  2632.28  4333.78  4339.92
                             4348.24  4352.46  4354.87  4358.58  4367.76
                             4373.35  4385.25  4391.02  4392.87  4403.98
                             4418.97  4420.65  4422.94  4429.46  4445.96
                             4452.92  4456.64  4470.82  4505.96  4536.14

 Zero-point correction=                           0.335512 (Hartree/Particle)
 Thermal correction to Energy=                    0.351098
 Thermal correction to Enthalpy=                  0.352042
 Thermal correction to Gibbs Free Energy=         0.292590
 Sum of electronic and zero-point Energies=           -695.925893
 Sum of electronic and thermal Energies=              -695.910308
 Sum of electronic and thermal Enthalpies=            -695.909364
 Sum of electronic and thermal Free Energies=         -695.968815

                     E (Thermal)             CV                S
                      KCal/Mol        Cal/Mol-Kelvin    Cal/Mol-Kelvin
 Total                  220.317             59.255            125.127
 Electronic               0.000              0.000              0.000
 Translational            0.889              2.981             41.988
 Rotational               0.889              2.981             32.405
 Vibrational            218.540             53.294             50.734
 Vibration     1          0.594              1.983              5.685
 Vibration     2          0.598              1.969              4.210
 Vibration     3          0.602              1.955              3.623
 Vibration     4          0.604              1.950              3.467
 Vibration     5          0.607              1.940              3.236
 Vibration     6          0.609              1.933              3.106
 Vibration     7          0.617              1.905              2.701
 Vibration     8          0.622              1.889              2.529
 Vibration     9          0.629              1.867              2.332
 Vibration    10          0.634              1.851              2.209
 Vibration    11          0.656              1.783              1.820
 Vibration    12          0.678              1.717              1.554
 Vibration    13          0.689              1.683              1.446
 Vibration    14          0.698              1.657              1.368
 Vibration    15          0.711              1.621              1.274
 Vibration    16          0.727              1.575              1.165
 Vibration    17          0.742              1.535              1.082
 Vibration    18          0.773              1.451              0.930
 Vibration    19          0.828              1.313              0.733
 Vibration    20          0.831              1.308              0.727
 Vibration    21          0.860              1.240              0.647
 Vibration    22          0.868              1.222              0.627
 Vibration    23          0.953              1.041              0.457

 Optimization completed.
    -- Stationary point found.
 Normal termination of Gaussian 16 at Thu Dec 10 16:44:22 2020.

 ----------------------------------------------------------------------
 # B3LYP/6-311++G(d,p) empiricaldispersion=gd3bj scf=xqc pop=npa geom=c
 heck
 ----------------------------------------------------------------------

 --------------------------------------
 CID_18520716_JID_5582_Energie_neutraal
 --------------------------------------
 Structure from the checkpoint file:  "JID_5582.chk"
 Charge =  0 Multiplicity = 1

 SCF Done:  E(RB3LYP) =  -696.461155330     A.U. after   14 cycles
 Normal termination of Gaussian 16 at Thu Dec 10 16:50:29 2020.

 ----------------------------------------------------------------------
 # B3LYP/6-311++G(d,p) empiricaldispersion=gd3bj scf=xqc pop=npa geom=c
 heck
 ----------------------------------------------------------------------

 ------------------------------------
 CID_18520716_JID_5582_Energie_kation
 ------------------------------------
 Structure from the checkpoint file:  "JID_5582.chk"
 Charge =  1 Multiplicity = 2

 SCF Done:  E(UB3LYP) =  -696.123592576     A.U. after   26 cycles
 Normal termination of Gaussian 16 at Thu Dec 10 17:10:07 2020.
 Gaussian 16:  ES64L-G16RevA.03 25-Dec-2016

 ----------------------------------------------------------------------
 # B3LYP/6-311++G(d,p) empiricaldispersion=gd3bj scf=xqc pop=npa geom=c
 heck
 ----------------------------------------------------------------------

 -----------------------------------
 CID_18520716_JID_5582_Energie_anion
 -----------------------------------
 Structure from the checkpoint file:  "JID_5582.chk"
 Charge = -1 Multiplicity = 2

                         Standard orientation:
 ---------------------------------------------------------------------
 Center     Atomic      Atomic             Coordinates (Angstroms)
 Number     Number       Type             X           Y           Z
 ---------------------------------------------------------------------
      1          6           0        2.576209    0.901738   -0.524293
      2          6           0        2.258038    2.380189   -0.202130
      3          6           0        0.811175    2.815003   -0.493229
      4          6           0       -0.252553    1.966475    0.205388
      5          6           0       -1.689639    2.410005   -0.086723
      6          6           0       -2.744635    1.432390    0.424965
      7          8           0       -2.660791    0.189321   -0.317739
      8          6           0       -1.971465   -0.826729    0.243437
      9          8           0       -1.496096   -0.814953    1.356156
     10          6           0       -1.853070   -1.993471   -0.744457
     11          8           0       -0.718940   -2.774497   -0.493667
     12          6           0        0.512283   -2.081595   -0.719087
     13          6           0        1.486389   -2.400361    0.405589
     14          6           0        2.752552   -1.529078    0.382986
     15          6           0        2.491854   -0.034069    0.693376
     16          1           0        3.591551    0.827878   -0.935257
     17          1           0        1.910229    0.546886   -1.324035
     18          1           0        2.488462    2.572922    0.855278
     19          1           0        2.926086    3.032288   -0.778443
     20          1           0        0.638238    2.768952   -1.578695
     21          1           0        0.690944    3.870195   -0.210016
     22          1           0       -0.083853    1.959584    1.290198
     23          1           0       -0.133373    0.931267   -0.122007
     24          1           0       -1.829237    2.534326   -1.168944
     25          1           0       -1.884363    3.390399    0.369705
     26          1           0       -3.754892    1.805515    0.240909
     27          1           0       -2.619218    1.217382    1.488486
     28          1           0       -1.876178   -1.589751   -1.767391
     29          1           0       -2.727516   -2.643028   -0.621999
     30          1           0        0.333948   -1.000645   -0.757330
     31          1           0        0.919874   -2.376757   -1.697978
     32          1           0        1.753737   -3.463207    0.354099
     33          1           0        0.951867   -2.248787    1.349945
     34          1           0        3.257143   -1.625648   -0.589493
     35          1           0        3.452142   -1.938097    1.121108
     36          1           0        3.224498    0.319785    1.430223
     37          1           0        1.513697    0.066581    1.178702
 ---------------------------------------------------------------------

 SCF Done:  E(UB3LYP) =  -696.444956477     A.U. after   33 cycles
 SCF Done:  E(UB3LYP) =  -696.444956477     a.u. after    1 cycles

 The electronic state is 2-A.
 Alpha  occ. eigenvalues --  -19.07775 -19.04136 -19.02455 -10.21259 -10.14443
 Alpha  occ. eigenvalues --  -10.12982 -10.12571 -10.07592 -10.07312 -10.07292
 Alpha  occ. eigenvalues --  -10.06931 -10.06810 -10.06658 -10.06641 -10.06515
 Alpha  occ. eigenvalues --   -1.01809  -0.95724  -0.93195  -0.72454  -0.70764
 Alpha  occ. eigenvalues --   -0.69309  -0.64757  -0.64593  -0.58354  -0.57809
 Alpha  occ. eigenvalues --   -0.52234  -0.50878  -0.48211  -0.47175  -0.46548
 Alpha  occ. eigenvalues --   -0.43298  -0.41884  -0.40519  -0.39046  -0.37791
 Alpha  occ. eigenvalues --   -0.37060  -0.36517  -0.35551  -0.34004  -0.33487
 Alpha  occ. eigenvalues --   -0.32978  -0.31104  -0.30514  -0.29373  -0.28992
 Alpha  occ. eigenvalues --   -0.28224  -0.27056  -0.25622  -0.25055  -0.24572
 Alpha  occ. eigenvalues --   -0.24296  -0.23733  -0.23309  -0.22502  -0.22016
 Alpha  occ. eigenvalues --   -0.21320  -0.20570  -0.19905  -0.17491   0.04475
 Alpha virt. eigenvalues --    0.06196   0.06672   0.07188   0.07553   0.08406
 Alpha virt. eigenvalues --    0.08462   0.09028   0.09314   0.10185   0.10201
 Alpha virt. eigenvalues --    0.11253   0.11402   0.11616   0.12465   0.12649

  Beta  occ. eigenvalues --  -19.07770 -19.04132 -19.02444 -10.21254 -10.14428
  Beta  occ. eigenvalues --  -10.12959 -10.12561 -10.07582 -10.07290 -10.07284
  Beta  occ. eigenvalues --  -10.06926 -10.06793 -10.06643 -10.06635 -10.06495
  Beta  occ. eigenvalues --   -1.01796  -0.95715  -0.93178  -0.72430  -0.70738
  Beta  occ. eigenvalues --   -0.69279  -0.64727  -0.64567  -0.58323  -0.57775
  Beta  occ. eigenvalues --   -0.52193  -0.50836  -0.48177  -0.47115  -0.46502
  Beta  occ. eigenvalues --   -0.43276  -0.41862  -0.40495  -0.39015  -0.37770
  Beta  occ. eigenvalues --   -0.37027  -0.36496  -0.35527  -0.33978  -0.33448
  Beta  occ. eigenvalues --   -0.32955  -0.31072  -0.30485  -0.29334  -0.28960
  Beta  occ. eigenvalues --   -0.28199  -0.27028  -0.25590  -0.25028  -0.24543
  Beta  occ. eigenvalues --   -0.24269  -0.23713  -0.23281  -0.22472  -0.21990
  Beta  occ. eigenvalues --   -0.21292  -0.20542  -0.19889  -0.17476
  Beta virt. eigenvalues --    0.06530   0.07021   0.07290   0.07747   0.07846
  Beta virt. eigenvalues --    0.08865   0.09103   0.09446   0.09626   0.10425
  Beta virt. eigenvalues --    0.10705   0.11689   0.11770   0.11933   0.12554

 Mulliken charges and spin densities:
               1          2
     1  C   -0.123793  -0.094821
     2  C    0.325975  -0.768229
     3  C    0.220196  -0.514576
     4  C   -0.696177   0.798699
     5  C    0.152345  -0.458215
     6  C    0.744517  -1.075270
     7  O    0.058865   0.028907
     8  C   -0.620997   0.483290
     9  O   -0.174695  -0.010144
    10  C    0.430363  -0.868878
    11  O   -0.040120   0.015703
    12  C   -0.051789  -0.350821
    13  C   -0.429690   0.127682
    14  C    0.293199  -0.641161
    15  C   -0.051106  -0.110902
    16  H   -0.381042   0.550805
    17  H   -0.170192   0.310473
    18  H   -0.053997   0.173710
    19  H   -0.211542   0.389336
    20  H   -0.152892   0.305862
    21  H   -0.181379   0.340352
    22  H    0.096764   0.103226
    23  H    1.571324  -1.728472
    24  H   -0.074961   0.260387
    25  H   -0.523223   0.683360
    26  H   -0.810216   1.018173
    27  H    0.116511   0.061340
    28  H   -0.039699   0.249305
    29  H   -0.085822   0.274608
    30  H   -0.276790   0.448663
    31  H   -0.097749   0.288211
    32  H    0.105324   0.042251
    33  H    0.239883  -0.025124
    34  H   -0.025981   0.158992
    35  H   -0.039314   0.193032
    36  H    0.108746   0.053475
    37  H   -0.150848   0.286773
 Sum of Mulliken charges =  -1.00000   1.00000

 Dipole moment (field-independent basis, Debye):
    X=              1.4080    Y=             -5.1813    Z=              1.9280  Tot=              5.7049
 Quadrupole moment (field-independent basis, Debye-Ang):
   XX=           -163.8725   YY=           -159.5356   ZZ=           -129.7451
   XY=              7.1698   XZ=              4.7495   YZ=              1.8113

 Summary of Natural Population Analysis:

                                       Natural Population
                Natural  -----------------------------------------------
    Atom  No    Charge         Core      Valence    Rydberg      Total
 -----------------------------------------------------------------------
      C    1   -0.19115      0.99963     2.18308    0.00845     3.19115
      C    2   -0.18746      0.99963     2.17894    0.00890     3.18746
      C    3   -0.18294      0.99962     2.17536    0.00796     3.18294
      C    4   -0.19309      0.99961     2.18511    0.00837     3.19309
      C    5   -0.19738      0.99962     2.18907    0.00869     3.19738
      C    6   -0.01377      0.99955     2.00256    0.01166     3.01377
      O    7   -0.28317      0.99986     3.27325    0.01006     4.28317
      C    8    0.39201      0.99971     1.58214    0.02614     2.60799
      O    9   -0.30312      0.99987     3.29767    0.00558     4.30312
      C   10   -0.05147      0.99954     2.03906    0.01286     3.05147
      O   11   -0.29479      0.99988     3.28579    0.00912     4.29479
      C   12   -0.01121      0.99955     1.99990    0.01176     3.01121
      C   13   -0.19820      0.99962     2.18966    0.00892     3.19820
      C   14   -0.19143      0.99963     2.18342    0.00838     3.19143
      C   15   -0.19563      0.99962     2.18778    0.00822     3.19563
      H   16    0.09720      0.00000     0.40140    0.00140     0.40280
      H   17    0.09258      0.00000     0.40567    0.00175     0.40742
      H   18    0.09175      0.00000     0.40695    0.00130     0.40825
      H   19    0.09916      0.00000     0.39971    0.00113     0.40084
      H   20    0.09328      0.00000     0.40531    0.00141     0.40672
      H   21    0.09689      0.00000     0.40187    0.00125     0.40311
      H   22    0.09568      0.00000     0.40301    0.00131     0.40432
      H   23    0.09117      0.00000     0.40558    0.00325     0.40883
      H   24    0.09960      0.00000     0.39878    0.00162     0.40040
      H   25    0.10380      0.00000     0.39403    0.00217     0.39620
      H   26    0.09630      0.00000     0.40119    0.00251     0.40370
      H   27    0.09625      0.00000     0.40239    0.00136     0.40375
      H   28    0.09313      0.00000     0.40544    0.00142     0.40687
      H   29    0.10283      0.00000     0.39610    0.00107     0.39717
      H   30    0.08155      0.00000     0.41604    0.00241     0.41845
      H   31    0.08266      0.00000     0.41593    0.00141     0.41734
      H   32    0.09588      0.00000     0.40313    0.00099     0.40412
      H   33    0.10555      0.00000     0.39313    0.00133     0.39445
      H   34    0.09482      0.00000     0.40402    0.00116     0.40518
      H   35    0.09795      0.00000     0.40127    0.00078     0.40205
      H   36    0.09466      0.00000     0.40421    0.00112     0.40534
      H   37    0.10009      0.00000     0.39824    0.00166     0.39991
 =======================================================================
   * Total *    0.00000     14.99493    43.81617    0.18891    59.00000

 Normal termination of Gaussian 16 at Thu Dec 10 17:27:28 2020.
