 Gaussian 16, Revision A.03,

 -----------------------------------------------------------
 # opt freq B3LYP/6-31G(d) empiricaldispersion=gd3bj scf=xqc
 -----------------------------------------------------------

 ------------------------------
 CID_13782444_JID_6516_neutraal
 ------------------------------
 Symbolic Z-matrix:
 Charge =  0 Multiplicity = 1

 SCF Done:  E(RB3LYP) =  -796.336781541     A.U. after   15 cycles
 SCF Done:  E(RB3LYP) =  -796.343121506     A.U. after   13 cycles
 SCF Done:  E(RB3LYP) =  -796.344865066     A.U. after   12 cycles
 SCF Done:  E(RB3LYP) =  -796.346201982     A.U. after   13 cycles
 SCF Done:  E(RB3LYP) =  -796.346933738     A.U. after   12 cycles
 SCF Done:  E(RB3LYP) =  -796.347364292     A.U. after   13 cycles
 SCF Done:  E(RB3LYP) =  -796.347470370     A.U. after   11 cycles
 SCF Done:  E(RB3LYP) =  -796.347549044     A.U. after   11 cycles
 SCF Done:  E(RB3LYP) =  -796.347586042     A.U. after   10 cycles
 SCF Done:  E(RB3LYP) =  -796.347615241     A.U. after   10 cycles
 SCF Done:  E(RB3LYP) =  -796.347638045     A.U. after   10 cycles
 SCF Done:  E(RB3LYP) =  -796.347641194     A.U. after    8 cycles
 SCF Done:  E(RB3LYP) =  -796.347641902     A.U. after    8 cycles
 Optimization completed.
    -- Stationary point found.
 Normal termination of Gaussian 16 at Thu Dec 10 23:21:46 2020.

 --------------------------------------------------------------------
 #N Geom=AllCheck Guess=TCheck SCRF=Check GenChk RB3LYP/6-31G(d) Freq
 --------------------------------------------------------------------

 Structure from the checkpoint file:  "JID_6516.chk"
 ------------------------------
 CID_13782444_JID_6516_neutraal
 ------------------------------
 Charge =  0 Multiplicity = 1

 SCF Done:  E(RB3LYP) =  -796.347641902     A.U. after    1 cycles

  Exact polarizability: 244.804  -8.382 141.417  -5.548   4.104  52.876
 Approx polarizability: 378.942 -15.581 255.391 -12.424   6.079  84.451

                      1                      2                      3
                      A                      A                      A
 Frequencies --     37.1838                60.8276                73.0909
 Red. masses --      6.5728                 7.2359                 7.3391
 Frc consts  --      0.0054                 0.0158                 0.0231
 IR Inten    --      1.1473                 0.3083                 1.0389

                      4                      5                      6
                      A                      A                      A
 Frequencies --    136.1896               158.6918               184.0411
 Red. masses --      8.5968                10.6744                 6.9237
 Frc consts  --      0.0939                 0.1584                 0.1382
 IR Inten    --      0.5099                 0.2061                 4.3526

                      7                      8                      9
                      A                      A                      A
 Frequencies --    204.3306               236.5114               250.1536
 Red. masses --      6.4216                 1.1019                 7.5832
 Frc consts  --      0.1580                 0.0363                 0.2796
 IR Inten    --      9.7842               148.2250                 0.3467

                     10                     11                     12
                      A                      A                      A
 Frequencies --    278.0407               314.5978               372.8484
 Red. masses --      5.6825                 5.3805                 6.0448
 Frc consts  --      0.2588                 0.3138                 0.4951
 IR Inten    --      1.6034                 3.3321                 7.8527

                     13                     14                     15
                      A                      A                      A
 Frequencies --    404.8088               441.5353               461.6083
 Red. masses --      7.1362                 2.3000                 1.2305
 Frc consts  --      0.6890                 0.2642                 0.1545
 IR Inten    --     26.9591                29.6904                51.0008

                     16                     17                     18
                      A                      A                      A
 Frequencies --    475.1097               495.8945               526.6223
 Red. masses --      3.1474                 1.5686                 4.6680
 Frc consts  --      0.4186                 0.2273                 0.7627
 IR Inten    --     18.6127                21.5641                 6.8998

                     19                     20                     21
                      A                      A                      A
 Frequencies --    528.1693               569.3080               590.2482
 Red. masses --      5.1800                 1.1632                 6.7426
 Frc consts  --      0.8514                 0.2221                 1.3840
 IR Inten    --      6.2783               205.2964                 8.8764

                     22                     23                     24
                      A                      A                      A
 Frequencies --    630.2593               636.4481               649.6314
 Red. masses --      3.9798                 5.9887                 8.6733
 Frc consts  --      0.9314                 1.4292                 2.1566
 IR Inten    --      5.1382                25.1630                37.5204

                     25                     26                     27
                      A                      A                      A
 Frequencies --    690.8139               707.8689               744.6166
 Red. masses --      5.4762                 5.0889                 9.3215
 Frc consts  --      1.5398                 1.5024                 3.0451
 IR Inten    --     21.0159                 7.9735                 5.3417

                     28                     29                     30
                      A                      A                      A
 Frequencies --    754.4858               779.5583               817.9401
 Red. masses --      6.8254                 5.7934                 4.0809
 Frc consts  --      2.2892                 2.0743                 1.6086
 IR Inten    --     19.9763                 9.2347                 8.0809

                     31                     32                     33
                      A                      A                      A
 Frequencies --    832.5060               863.2594               884.9688
 Red. masses --      1.4826                 1.3809                 4.3057
 Frc consts  --      0.6054                 0.6063                 1.9868
 IR Inten    --     18.4311                11.0451                36.2181

                     34                     35                     36
                      A                      A                      A
 Frequencies --    908.1132               945.7674               987.6368
 Red. masses --      1.4352                 1.2998                 2.9955
 Frc consts  --      0.6974                 0.6850                 1.7215
 IR Inten    --     20.5302                 0.4500                18.8791

                     37                     38                     39
                      A                      A                      A
 Frequencies --   1006.0570              1101.9158              1142.0084
 Red. masses --      2.8672                 3.2461                 1.9113
 Frc consts  --      1.7098                 2.3223                 1.4686
 IR Inten    --     46.6533                38.7155                68.5490

                     40                     41                     42
                      A                      A                      A
 Frequencies --   1182.3247              1206.9701              1222.6051
 Red. masses --      1.5585                 1.4244                 1.6627
 Frc consts  --      1.2836                 1.2226                 1.4644
 IR Inten    --    117.7612                36.4109               162.7153

                     43                     44                     45
                      A                      A                      A
 Frequencies --   1254.4752              1309.2854              1330.3483
 Red. masses --      1.9714                 2.4848                 2.0978
 Frc consts  --      1.8279                 2.5097                 2.1875
 IR Inten    --     30.7701               210.3982               176.9536

                     46                     47                     48
                      A                      A                      A
 Frequencies --   1348.0757              1363.4190              1369.4546
 Red. masses --      2.3087                 3.0390                 2.4605
 Frc consts  --      2.4720                 3.3285                 2.7187
 IR Inten    --    259.9932               169.4465                 5.7715

                     49                     50                     51
                      A                      A                      A
 Frequencies --   1377.9230              1420.8619              1451.1182
 Red. masses --      3.5038                 1.7782                 2.5376
 Frc consts  --      3.9196                 2.1152                 3.1484
 IR Inten    --    347.8325                64.4852                 7.4850

                     52                     53                     54
                      A                      A                      A
 Frequencies --   1497.7956              1580.9520              1653.8925
 Red. masses --      3.8269                 3.2265                 5.6902
 Frc consts  --      5.0582                 4.7514                 9.1704
 IR Inten    --    107.1620               134.6821                46.4923

                     55                     56                     57
                      A                      A                      A
 Frequencies --   1670.3195              1735.1295              1841.6680
 Red. masses --      6.5522                 8.3988                10.2456
 Frc consts  --     10.7705                14.8981                20.4743
 IR Inten    --    102.5357               114.6210               499.8660

                     58                     59                     60
                      A                      A                      A
 Frequencies --   1882.1423              3188.3916              3194.1016
 Red. masses --     10.8068                 1.0897                 1.0881
 Frc consts  --     22.5554                 6.5265                 6.5404
 IR Inten    --    658.1680                 6.9182                 1.1028

                     61                     62                     63
                      A                      A                      A
 Frequencies --   3201.9855              3223.8967              3646.9964
 Red. masses --      1.0887                 1.0938                 1.0787
 Frc consts  --      6.5765                 6.6984                 8.4535
 IR Inten    --      6.2497                 7.8259                25.8345

                     64                     65                     66
                      A                      A                      A
 Frequencies --   3660.6521              3709.4112              3771.2468
 Red. masses --      1.0803                 1.0651                 1.0663
 Frc consts  --      8.5291                 8.6344                 8.9351
 IR Inten    --    107.9880               119.5536                52.5688

 - Thermochemistry -
 -------------------
 Temperature   298.150 Kelvin.  Pressure   1.00000 Atm.
 Atom     1 has atomic number  6 and mass  12.00000

 Molecular mass:   220.04841 amu.
 Principal axes and moments of inertia in atomic units:
                           1         2         3
     Eigenvalues --  1542.315267023.398438394.65678
           X            1.00000  -0.00014  -0.00044
           Y            0.00015   0.99992   0.01275
           Z            0.00044  -0.01275   0.99992
 This molecule is an asymmetric top.
 Rotational symmetry number  1.
 Warning -- assumption of classical behavior for rotation
           may cause significant error
 Rotational temperatures (Kelvin)      0.05616     0.01233     0.01032
 Rotational constants (GHZ):           1.17015     0.25696     0.21499
 Zero-point vibrational energy     461633.6 (Joules/Mol)
                                  110.33308 (Kcal/Mol)
 Warning -- explicit consideration of  21 degrees of freedom as
           vibrations may cause significant error
 Vibrational temperatures:     53.50    87.52   105.16   195.95   228.32
          (Kelvin)            264.79   293.99   340.29   359.92   400.04
                              452.64   536.45   582.43   635.27   664.15
                              683.58   713.48   757.69   759.92   819.11
                              849.24   906.80   915.71   934.67   993.93
                             1018.47  1071.34  1085.54  1121.61  1176.83
                             1197.79  1242.04  1273.27  1306.57  1360.75
                             1420.99  1447.49  1585.41  1643.10  1701.10
                             1736.56  1759.06  1804.91  1883.77  1914.07
                             1939.58  1961.66  1970.34  1982.52  2044.30
                             2087.84  2154.99  2274.64  2379.58  2403.22
                             2496.46  2649.75  2707.98  4587.38  4595.60
                             4606.94  4638.47  5247.21  5266.86  5337.02
                             5425.98

 Zero-point correction=                           0.175827 (Hartree/Particle)
 Thermal correction to Energy=                    0.189337
 Thermal correction to Enthalpy=                  0.190281
 Thermal correction to Gibbs Free Energy=         0.135001
 Sum of electronic and zero-point Energies=           -796.171815
 Sum of electronic and thermal Energies=              -796.158305
 Sum of electronic and thermal Enthalpies=            -796.157361
 Sum of electronic and thermal Free Energies=         -796.212641

                     E (Thermal)             CV                S
                      KCal/Mol        Cal/Mol-Kelvin    Cal/Mol-Kelvin
 Total                  118.811             52.284            116.347
 Electronic               0.000              0.000              0.000
 Translational            0.889              2.981             42.069
 Rotational               0.889              2.981             32.875
 Vibrational            117.033             46.323             41.403
 Vibration     1          0.594              1.982              5.404
 Vibration     2          0.597              1.973              4.430
 Vibration     3          0.599              1.967              4.068
 Vibration     4          0.614              1.917              2.857
 Vibration     5          0.621              1.893              2.565
 Vibration     6          0.631              1.862              2.287
 Vibration     7          0.640              1.834              2.094
 Vibration     8          0.655              1.785              1.829
 Vibration     9          0.663              1.763              1.729
 Vibration    10          0.679              1.714              1.546
 Vibration    11          0.702              1.646              1.338
 Vibration    12          0.744              1.528              1.068
 Vibration    13          0.770              1.460              0.945
 Vibration    14          0.801              1.380              0.822
 Vibration    15          0.819              1.335              0.761
 Vibration    16          0.832              1.305              0.723
 Vibration    17          0.851              1.259              0.668
 Vibration    18          0.882              1.191              0.595
 Vibration    19          0.883              1.188              0.591
 Vibration    20          0.925              1.098              0.506
 Vibration    21          0.948              1.053              0.467

                           ! Non-Optimized Parameters !
 Normal termination of Gaussian 16 at Thu Dec 10 23:28:12 2020.

 ----------------------------------------------------------------------
 # B3LYP/6-311++G(d,p) empiricaldispersion=gd3bj scf=xqc pop=npa geom=c
 heck
 ----------------------------------------------------------------------

 --------------------------------------
 CID_13782444_JID_6516_Energie_neutraal
 --------------------------------------
 Structure from the checkpoint file:  "JID_6516.chk"
 Charge =  0 Multiplicity = 1

 SCF Done:  E(RB3LYP) =  -796.593999735     A.U. after   15 cycles
 Normal termination of Gaussian 16 at Thu Dec 10 23:30:26 2020.

 ----------------------------------------------------------------------
 # B3LYP/6-311++G(d,p) empiricaldispersion=gd3bj scf=xqc pop=npa geom=c
 heck
 ----------------------------------------------------------------------

 ------------------------------------
 CID_13782444_JID_6516_Energie_kation
 ------------------------------------
 Structure from the checkpoint file:  "JID_6516.chk"
 Charge =  1 Multiplicity = 2

 SCF Done:  E(UB3LYP) =  -796.307693740     A.U. after   23 cycles
 Normal termination of Gaussian 16 at Thu Dec 10 23:35:01 2020.
 Gaussian 16:  ES64L-G16RevA.03 25-Dec-2016

 ----------------------------------------------------------------------
 # B3LYP/6-311++G(d,p) empiricaldispersion=gd3bj scf=xqc pop=npa geom=c
 heck
 ----------------------------------------------------------------------

 -----------------------------------
 CID_13782444_JID_6516_Energie_anion
 -----------------------------------
 Structure from the checkpoint file:  "JID_6516.chk"
 Charge = -1 Multiplicity = 2

                         Standard orientation:
 ---------------------------------------------------------------------
 Center     Atomic      Atomic             Coordinates (Angstroms)
 Number     Number       Type             X           Y           Z
 ---------------------------------------------------------------------
      1          6           0        1.767022   -1.784281   -0.327863
      2          6           0        3.111631   -1.443002   -0.437374
      3          6           0        3.528185   -0.145390   -0.151787
      4          6           0        2.575600    0.807179    0.256975
      5          6           0        1.235060    0.472765    0.354027
      6          6           0        0.800092   -0.837095    0.051112
      7          6           0       -0.593721   -1.242349    0.133817
      8          6           0       -1.697758   -0.472512    0.065527
      9          6           0       -3.084543   -1.003024    0.204688
     10          8           0       -3.448428   -2.139656    0.430633
     11          7           0       -3.897644    0.115510    0.021618
     12          6           0       -3.173868    1.278845   -0.260275
     13          8           0       -3.611638    2.373724   -0.539044
     14          7           0       -1.836136    0.906614   -0.145806
     15          8           0        3.095792    2.046777    0.546713
     16          8           0        4.839472    0.192266   -0.249978
     17          1           0        1.452494   -2.799259   -0.550979
     18          1           0        3.856491   -2.172208   -0.737885
     19          1           0        0.533255    1.210729    0.733305
     20          1           0       -0.797880   -2.304832    0.238327
     21          1           0       -4.907219    0.094111    0.037434
     22          1           0       -1.126597    1.485976   -0.570367
     23          1           0        2.394753    2.633142    0.868228
     24          1           0        4.923371    1.125758    0.011580
 ---------------------------------------------------------------------

 SCF Done:  E(UB3LYP) =  -796.622598705     A.U. after   29 cycles

 The electronic state is 2-A.
 Alpha  occ. eigenvalues --  -19.06716 -19.04208 -18.96754 -18.94329 -14.22050
 Alpha  occ. eigenvalues --  -14.22019 -10.17048 -10.11965 -10.11847 -10.10336
 Alpha  occ. eigenvalues --  -10.05795 -10.05338 -10.05190 -10.04952 -10.04532
 Alpha  occ. eigenvalues --  -10.01790  -0.97963  -0.94816  -0.93947  -0.89667
 Alpha  occ. eigenvalues --   -0.84147  -0.76942  -0.73383  -0.65387  -0.62971
 Alpha  occ. eigenvalues --   -0.60350  -0.53700  -0.53319  -0.51234  -0.48450
 Alpha  occ. eigenvalues --   -0.44910  -0.43962  -0.42824  -0.38052  -0.37530
 Alpha  occ. eigenvalues --   -0.36839  -0.33945  -0.33068  -0.32751  -0.31998
 Alpha  occ. eigenvalues --   -0.31836  -0.30635  -0.28899  -0.27936  -0.27277
 Alpha  occ. eigenvalues --   -0.27168  -0.25869  -0.23936  -0.23144  -0.22654
 Alpha  occ. eigenvalues --   -0.20375  -0.16386  -0.15661  -0.13911  -0.12590
 Alpha  occ. eigenvalues --   -0.12001  -0.07647   0.02981
 Alpha virt. eigenvalues --    0.06601   0.09062   0.09513   0.10183   0.10429
 Alpha virt. eigenvalues --    0.12077   0.12212   0.12851   0.13508   0.14441
 Alpha virt. eigenvalues --    0.15082   0.15637   0.16244   0.16542   0.17096

  Beta  occ. eigenvalues --  -19.06732 -19.04135 -18.96583 -18.93970 -14.22096
  Beta  occ. eigenvalues --  -14.22060 -10.16915 -10.12055 -10.11596 -10.10079
  Beta  occ. eigenvalues --  -10.05614 -10.05394 -10.05181 -10.04749 -10.04422
  Beta  occ. eigenvalues --  -10.01472  -0.97946  -0.94685  -0.93660  -0.89104
  Beta  occ. eigenvalues --   -0.83869  -0.76892  -0.73163  -0.64912  -0.62790
  Beta  occ. eigenvalues --   -0.59903  -0.53313  -0.53056  -0.50974  -0.48206
  Beta  occ. eigenvalues --   -0.44759  -0.43748  -0.42764  -0.37895  -0.37311
  Beta  occ. eigenvalues --   -0.36670  -0.33244  -0.32819  -0.32492  -0.31825
  Beta  occ. eigenvalues --   -0.31630  -0.30544  -0.28626  -0.27633  -0.26990
  Beta  occ. eigenvalues --   -0.26898  -0.24345  -0.23607  -0.23022  -0.22050
  Beta  occ. eigenvalues --   -0.19883  -0.16214  -0.14683  -0.13096  -0.11967
  Beta  occ. eigenvalues --   -0.11431  -0.06223
  Beta virt. eigenvalues --    0.06576   0.08677   0.09049   0.09510   0.10191
  Beta virt. eigenvalues --    0.10801   0.12087   0.12226   0.12968   0.14298
  Beta virt. eigenvalues --    0.14731   0.15104   0.15710   0.16281   0.16687

 Mulliken charges and spin densities:
               1          2
     1  C   -0.225468   0.107882
     2  C   -0.258624  -0.027074
     3  C   -0.343497   0.175314
     4  C   -0.106516  -0.053537
     5  C   -0.737371   0.184796
     6  C    0.857919  -0.075847
     7  C   -0.215729   0.249871
     8  C    0.026270   0.088511
     9  C    0.098527   0.154937
    10  O   -0.456252   0.131551
    11  N   -0.358195  -0.030479
    12  C    0.349041   0.076611
    13  O   -0.461591   0.057320
    14  N   -0.220730  -0.023875
    15  O   -0.330544  -0.001147
    16  O   -0.286840   0.015608
    17  H    0.117588   0.002400
    18  H    0.147022   0.001688
    19  H    0.093058  -0.015904
    20  H    0.168369  -0.019666
    21  H    0.324977  -0.000208
    22  H    0.279624  -0.001453
    23  H    0.271378   0.002143
    24  H    0.267583   0.000556
 Sum of Mulliken charges =  -1.00000   1.00000

 Dipole moment (field-independent basis, Debye):
    X=              4.7074    Y=              3.1228    Z=              0.4046  Tot=              5.6635
 Quadrupole moment (field-independent basis, Debye-Ang):
   XX=           -152.3310   YY=           -114.5182   ZZ=            -99.6794
   XY=              4.2044   XZ=              1.9089   YZ=              7.1423

 Summary of Natural Population Analysis:

                                       Natural Population
                Natural  -----------------------------------------------
    Atom  No    Charge         Core      Valence    Rydberg      Total
 -----------------------------------------------------------------------
      C    1   -0.07173      0.99955     2.06402    0.00817     3.07173
      C    2   -0.14191      0.99955     2.13343    0.00894     3.14191
      C    3    0.17158      0.99937     1.81612    0.01294     2.82842
      C    4    0.10455      0.99936     1.88474    0.01135     2.89545
      C    5   -0.09695      0.99950     2.08946    0.00799     3.09695
      C    6   -0.03667      0.99953     2.02861    0.00853     3.03667
      C    7   -0.04594      0.99949     2.03764    0.00881     3.04594
      C    8    0.05881      0.99946     1.93106    0.01066     2.94119
      C    9    0.35882      0.99965     1.61944    0.02209     2.64118
      O   10   -0.28415      0.99987     3.27802    0.00626     4.28415
      N   11   -0.34072      0.99965     2.83305    0.00802     3.84072
      C   12    0.41936      0.99974     1.55786    0.02303     2.58064
      O   13   -0.31947      0.99987     3.31352    0.00608     4.31947
      N   14   -0.32748      0.99965     2.81920    0.00863     3.82748
      O   15   -0.36571      0.99987     3.35899    0.00685     4.36571
      O   16   -0.34207      0.99988     3.33542    0.00677     4.34207
      H   17    0.09471      0.00000     0.40383    0.00146     0.40529
      H   18    0.09880      0.00000     0.40011    0.00109     0.40120
      H   19    0.09270      0.00000     0.40520    0.00210     0.40730
      H   20    0.10429      0.00000     0.39418    0.00154     0.39571
      H   21    0.19717      0.00000     0.30030    0.00253     0.30283
      H   22    0.19765      0.00000     0.30008    0.00227     0.30235
      H   23    0.23683      0.00000     0.26090    0.00226     0.26317
      H   24    0.23754      0.00000     0.25987    0.00259     0.26246
 =======================================================================
   * Total *   -0.00000     15.99398    40.82504    0.18097    57.00000

 Normal termination of Gaussian 16 at Thu Dec 10 23:40:41 2020.
