 Gaussian 16, Revision A.03,

 -----------------------------------------------------------
 # opt freq B3LYP/6-31G(d) empiricaldispersion=gd3bj scf=xqc
 -----------------------------------------------------------

 --------------------------------
 CID_107710578_JID_10443_neutraal
 --------------------------------
 Symbolic Z-matrix:
 Charge =  0 Multiplicity = 1

 SCF Done:  E(RB3LYP) =  -881.748727121     A.U. after   14 cycles
 SCF Done:  E(RB3LYP) =  -881.754051561     A.U. after   12 cycles
 SCF Done:  E(RB3LYP) =  -881.752272423     A.U. after   12 cycles
 SCF Done:  E(RB3LYP) =  -881.753723525     A.U. after   12 cycles
 SCF Done:  E(RB3LYP) =  -881.754886873     A.U. after    9 cycles
 SCF Done:  E(RB3LYP) =  -881.755631477     A.U. after   12 cycles
 SCF Done:  E(RB3LYP) =  -881.756234985     A.U. after   11 cycles
 SCF Done:  E(RB3LYP) =  -881.756567656     A.U. after   12 cycles
 SCF Done:  E(RB3LYP) =  -881.756677134     A.U. after   11 cycles
 SCF Done:  E(RB3LYP) =  -881.756772005     A.U. after   10 cycles
 SCF Done:  E(RB3LYP) =  -881.757230097     A.U. after   11 cycles
 SCF Done:  E(RB3LYP) =  -881.757245590     A.U. after   11 cycles
 SCF Done:  E(RB3LYP) =  -881.757246655     A.U. after    8 cycles
 SCF Done:  E(RB3LYP) =  -881.757246866     A.U. after    8 cycles
 SCF Done:  E(RB3LYP) =  -881.757246897     A.U. after    7 cycles
 Optimization completed.
    -- Stationary point found.
 Normal termination of Gaussian 16 at Sun Dec 13 16:54:32 2020.

 --------------------------------------------------------------------
 #N Geom=AllCheck Guess=TCheck SCRF=Check GenChk RB3LYP/6-31G(d) Freq
 --------------------------------------------------------------------

 Structure from the checkpoint file:  "JID_10443.chk"
 --------------------------------
 CID_107710578_JID_10443_neutraal
 --------------------------------
 Charge =  0 Multiplicity = 1

 SCF Done:  E(RB3LYP) =  -881.757246897     A.U. after    1 cycles

  Exact polarizability: 299.685  -2.533 167.134   8.292  10.936 118.043
 Approx polarizability: 384.338   2.814 286.174  12.357  26.383 193.688

                      1                      2                      3
                      A                      A                      A
 Frequencies --     18.9467                31.3600                37.8552
 Red. masses --      3.8895                 4.1714                 4.4245
 Frc consts  --      0.0008                 0.0024                 0.0037
 IR Inten    --      0.0880                 0.2294                 1.0046

                      4                      5                      6
                      A                      A                      A
 Frequencies --     66.6938                79.1553                89.5285
 Red. masses --      3.0126                 3.4513                 5.0307
 Frc consts  --      0.0079                 0.0127                 0.0238
 IR Inten    --      0.3708                 5.2447                 3.2296

                      7                      8                      9
                      A                      A                      A
 Frequencies --    122.3941               153.4490               175.1699
 Red. masses --      3.7962                 1.8284                 3.7314
 Frc consts  --      0.0335                 0.0254                 0.0675
 IR Inten    --      4.9521                 7.3684                 0.6597

                     10                     11                     12
                      A                      A                      A
 Frequencies --    199.0734               224.2628               237.4210
 Red. masses --      1.7839                 2.0924                 3.7560
 Frc consts  --      0.0417                 0.0620                 0.1247
 IR Inten    --      0.6785                 5.2539                 1.1568

                     13                     14                     15
                      A                      A                      A
 Frequencies --    247.9765               280.8004               307.0826
 Red. masses --      3.1379                 2.0910                 3.2351
 Frc consts  --      0.1137                 0.0971                 0.1797
 IR Inten    --      2.0416                 5.1602                 7.1490

                     16                     17                     18
                      A                      A                      A
 Frequencies --    317.4371               343.9673               359.0543
 Red. masses --      1.2270                 2.2187                 1.2814
 Frc consts  --      0.0728                 0.1547                 0.0973
 IR Inten    --      1.3900                16.1592                79.0948

                     19                     20                     21
                      A                      A                      A
 Frequencies --    380.6318               392.7216               405.9295
 Red. masses --      4.2843                 4.2209                 3.1757
 Frc consts  --      0.3657                 0.3836                 0.3083
 IR Inten    --      7.4616                 5.0999                 0.4918

                     22                     23                     24
                      A                      A                      A
 Frequencies --    423.7641               425.7639               463.1858
 Red. masses --      3.8976                 3.3410                 2.8944
 Frc consts  --      0.4124                 0.3568                 0.3659
 IR Inten    --      2.4041                 0.3441                14.6368

                     25                     26                     27
                      A                      A                      A
 Frequencies --    495.3610               515.6747               519.7395
 Red. masses --      3.1734                 3.2261                 3.7792
 Frc consts  --      0.4588                 0.5054                 0.6015
 IR Inten    --      5.1360                 9.8289                 7.1608

                     28                     29                     30
                      A                      A                      A
 Frequencies --    540.7420               557.5782               574.9779
 Red. masses --      5.9944                 2.9425                 3.9604
 Frc consts  --      1.0327                 0.5390                 0.7714
 IR Inten    --      2.0023                 2.8312                 6.4595

                     31                     32                     33
                      A                      A                      A
 Frequencies --    582.6671               626.8367               660.6031
 Red. masses --      3.9586                 4.1319                 6.6800
 Frc consts  --      0.7918                 0.9565                 1.7175
 IR Inten    --      1.6689                 1.3865                 0.0976

                     34                     35                     36
                      A                      A                      A
 Frequencies --    691.8935               715.3815               732.0617
 Red. masses --      3.4798                 3.8617                 2.3116
 Frc consts  --      0.9815                 1.1644                 0.7299
 IR Inten    --      3.7665                 9.3900                11.3252

                     37                     38                     39
                      A                      A                      A
 Frequencies --    749.4987               765.4090               786.6336
 Red. masses --      2.0941                 3.3260                 2.6379
 Frc consts  --      0.6931                 1.1481                 0.9617
 IR Inten    --     40.5066                11.8729                 8.3522

                     40                     41                     42
                      A                      A                      A
 Frequencies --    809.5834               817.6658               834.1370
 Red. masses --      1.2712                 3.6417                 1.8490
 Frc consts  --      0.4909                 1.4345                 0.7580
 IR Inten    --      1.9395                 1.7780                48.4230

                     43                     44                     45
                      A                      A                      A
 Frequencies --    844.2398               880.9675               918.3200
 Red. masses --      1.4860                 2.4073                 1.9423
 Frc consts  --      0.6240                 1.1008                 0.9651
 IR Inten    --      9.3700                17.5877                11.6832

                     46                     47                     48
                      A                      A                      A
 Frequencies --    923.3146               942.9342               949.0352
 Red. masses --      1.4354                 1.3616                 1.2354
 Frc consts  --      0.7210                 0.7133                 0.6556
 IR Inten    --      5.3287                10.2348                 1.0096

                     49                     50                     51
                      A                      A                      A
 Frequencies --    959.3492               975.5979              1022.3287
 Red. masses --      1.1561                 3.0469                 3.5347
 Frc consts  --      0.6269                 1.7086                 2.1766
 IR Inten    --    139.7253                21.5830                93.4231

                     52                     53                     54
                      A                      A                      A
 Frequencies --   1031.2841              1052.2935              1092.0851
 Red. masses --      2.7030                 2.4397                 1.5146
 Frc consts  --      1.6938                 1.5917                 1.0643
 IR Inten    --      2.8145                 0.4359                23.2308

                     55                     56                     57
                      A                      A                      A
 Frequencies --   1106.9693              1121.5548              1134.0667
 Red. masses --      2.0580                 2.2270                 1.8170
 Frc consts  --      1.4858                 1.6505                 1.3769
 IR Inten    --     29.3571                31.9490                72.8444

                     58                     59                     60
                      A                      A                      A
 Frequencies --   1151.3154              1160.3729              1166.6108
 Red. masses --      1.2346                 1.3663                 1.4140
 Frc consts  --      0.9642                 1.0839                 1.1339
 IR Inten    --      1.3740                44.1465                 7.7251

                     61                     62                     63
                      A                      A                      A
 Frequencies --   1193.9485              1207.1483              1209.2883
 Red. masses --      1.1651                 1.7917                 1.7334
 Frc consts  --      0.9786                 1.5383                 1.4935
 IR Inten    --      1.4502                51.5662                15.9758

                     64                     65                     66
                      A                      A                      A
 Frequencies --   1228.8335              1254.0513              1276.4003
 Red. masses --      1.1660                 2.1678                 2.3626
 Frc consts  --      1.0374                 2.0086                 2.2679
 IR Inten    --      0.3552                23.5745               110.5766

                     67                     68                     69
                      A                      A                      A
 Frequencies --   1283.2525              1309.8205              1317.1595
 Red. masses --      3.1732                 1.6945                 1.6309
 Frc consts  --      3.0788                 1.7128                 1.6671
 IR Inten    --     78.7971               142.6759                44.3415

                     70                     71                     72
                      A                      A                      A
 Frequencies --   1335.4260              1351.3946              1370.7153
 Red. masses --      2.5934                 4.9044                 1.4901
 Frc consts  --      2.7250                 5.2771                 1.6495
 IR Inten    --      6.3380                26.2680                20.2787

                     73                     74                     75
                      A                      A                      A
 Frequencies --   1373.2738              1388.0885              1390.7788
 Red. masses --      3.4043                 3.4595                 1.6725
 Frc consts  --      3.7826                 3.9274                 1.9061
 IR Inten    --      9.1523               109.9507                91.7847

                     76                     77                     78
                      A                      A                      A
 Frequencies --   1443.1535              1454.2040              1473.3286
 Red. masses --      1.2437                 1.6253                 1.4833
 Frc consts  --      1.5261                 2.0251                 1.8971
 IR Inten    --      7.7026                14.2148                17.7505

                     79                     80                     81
                      A                      A                      A
 Frequencies --   1476.3362              1505.5526              1511.9825
 Red. masses --      1.2610                 1.9249                 1.3976
 Frc consts  --      1.6193                 2.5707                 1.8825
 IR Inten    --      9.9762                51.2314               120.5424

                     82                     83                     84
                      A                      A                      A
 Frequencies --   1512.9853              1515.2093              1519.8522
 Red. masses --      1.1326                 1.5455                 1.0660
 Frc consts  --      1.5275                 2.0905                 1.4508
 IR Inten    --     17.6121                74.2266                19.0551

                     85                     86                     87
                      A                      A                      A
 Frequencies --   1521.1056              1528.2180              1544.0214
 Red. masses --      1.1950                 1.0624                 1.0870
 Frc consts  --      1.6291                 1.4619                 1.5268
 IR Inten    --     19.3629                 6.3723                 4.6372

                     88                     89                     90
                      A                      A                      A
 Frequencies --   1559.6690              1560.1025              1577.8102
 Red. masses --      1.2830                 1.6588                 2.4144
 Frc consts  --      1.8389                 2.3788                 3.5414
 IR Inten    --     67.6275                 4.5082               316.4350

                     91                     92                     93
                      A                      A                      A
 Frequencies --   1633.9485              1653.7768              1680.6027
 Red. masses --      5.2269                 4.8801                 5.6733
 Frc consts  --      8.2218                 7.8639                 9.4409
 IR Inten    --      2.8797               103.4109                64.6311

                     94                     95                     96
                      A                      A                      A
 Frequencies --   1687.1504              2985.2974              2993.7876
 Red. masses --      5.5870                 1.0539                 1.0580
 Frc consts  --      9.3699                 5.5338                 5.5870
 IR Inten    --     75.2213                71.9268               106.6965

                     97                     98                     99
                      A                      A                      A
 Frequencies --   3037.4174              3070.7287              3077.3323
 Red. masses --      1.0830                 1.0364                 1.0836
 Frc consts  --      5.8870                 5.7579                 6.0458
 IR Inten    --     12.0118                14.7695                28.8628

                    100                    101                    102
                      A                      A                      A
 Frequencies --   3079.5795              3138.8923              3139.2163
 Red. masses --      1.0846                 1.0990                 1.1028
 Frc consts  --      6.0606                 6.3799                 6.4033
 IR Inten    --     48.2534                 2.4664                22.4771

                    103                    104                    105
                      A                      A                      A
 Frequencies --   3150.0407              3161.0878              3163.9047
 Red. masses --      1.0962                 1.1014                 1.0884
 Frc consts  --      6.4090                 6.4845                 6.4191
 IR Inten    --     56.9461                 9.8767                18.0838

                    106                    107                    108
                      A                      A                      A
 Frequencies --   3174.3621              3191.7922              3196.3576
 Red. masses --      1.0895                 1.0894                 1.0899
 Frc consts  --      6.4684                 6.5391                 6.5609
 IR Inten    --     24.0550                26.2248               139.2150

                    109                    110                    111
                      A                      A                      A
 Frequencies --   3205.7999              3224.8987              3232.9681
 Red. masses --      1.0678                 1.0940                 1.0902
 Frc consts  --      6.4659                 6.7032                 6.7135
 IR Inten    --   1097.1231                13.3018                12.0272

                    112                    113                    114
                      A                      A                      A
 Frequencies --   3234.5554              3503.9645              3752.8946
 Red. masses --      1.0906                 1.0743                 1.0658
 Frc consts  --      6.7226                 7.7714                 8.8443
 IR Inten    --      8.4947                 2.8293                38.0457

 - Thermochemistry -
 -------------------
 Temperature   298.150 Kelvin.  Pressure   1.00000 Atm.
 Atom     1 has atomic number  6 and mass  12.00000

 Molecular mass:   272.15248 amu.
 Principal axes and moments of inertia in atomic units:
                           1         2         3
     Eigenvalues --  1815.56339********************
           X            1.00000   0.00008   0.00267
           Y           -0.00014   0.99976   0.02189
           Z           -0.00267  -0.02189   0.99976
 This molecule is an asymmetric top.
 Rotational symmetry number  1.
 Warning -- assumption of classical behavior for rotation
           may cause significant error
 Rotational temperatures (Kelvin)      0.04771     0.00649     0.00605
 Rotational constants (GHZ):           0.99404     0.13528     0.12615
 Zero-point vibrational energy     889759.5 (Joules/Mol)
                                  212.65763 (Kcal/Mol)
 Warning -- explicit consideration of  31 degrees of freedom as
           vibrations may cause significant error
 Vibrational temperatures:     27.26    45.12    54.47    95.96   113.89
          (Kelvin)            128.81   176.10   220.78   252.03   286.42
                              322.66   341.60   356.78   404.01   441.82
                              456.72   494.89   516.60   547.64   565.04
                              584.04   609.70   612.58   666.42   712.71
                              741.94   747.79   778.01   802.23   827.26
                              838.33   901.88   950.46   995.48  1029.27
                             1053.27  1078.36  1101.25  1131.79  1164.81
                             1176.44  1200.14  1214.67  1267.52  1321.26
                             1328.44  1356.67  1365.45  1380.29  1403.67
                             1470.90  1483.79  1514.02  1571.27  1592.68
                             1613.67  1631.67  1656.49  1669.52  1678.49
                             1717.83  1736.82  1739.90  1768.02  1804.30
                             1836.46  1846.31  1884.54  1895.10  1921.38
                             1944.36  1972.15  1975.83  1997.15  2001.02
                             2076.38  2092.28  2119.79  2124.12  2166.15
                             2175.41  2176.85  2180.05  2186.73  2188.53
                             2198.76  2221.50  2244.02  2244.64  2270.12
                             2350.89  2379.42  2418.01  2427.43  4295.18
                             4307.39  4370.17  4418.09  4427.59  4430.83
                             4516.17  4516.63  4532.21  4548.10  4552.15
                             4567.20  4592.28  4598.85  4612.43  4639.91
                             4651.52  4653.80  5041.42  5399.58

 Zero-point correction=                           0.338892 (Hartree/Particle)
 Thermal correction to Energy=                    0.357810
 Thermal correction to Enthalpy=                  0.358755
 Thermal correction to Gibbs Free Energy=         0.290583
 Sum of electronic and zero-point Energies=           -881.418355
 Sum of electronic and thermal Energies=              -881.399436
 Sum of electronic and thermal Enthalpies=            -881.398492
 Sum of electronic and thermal Free Energies=         -881.466664

                     E (Thermal)             CV                S
                      KCal/Mol        Cal/Mol-Kelvin    Cal/Mol-Kelvin
 Total                  224.529             73.941            143.479
 Electronic               0.000              0.000              0.000
 Translational            0.889              2.981             42.702
 Rotational               0.889              2.981             34.204
 Vibrational            222.752             67.980             66.573
 Vibration     1          0.593              1.986              6.742
 Vibration     2          0.594              1.983              5.741
 Vibration     3          0.594              1.982              5.368
 Vibration     4          0.598              1.970              4.249
 Vibration     5          0.600              1.963              3.912
 Vibration     6          0.602              1.957              3.670
 Vibration     7          0.610              1.930              3.062
 Vibration     8          0.619              1.899              2.629
 Vibration     9          0.627              1.873              2.379
 Vibration    10          0.637              1.841              2.142
 Vibration    11          0.649              1.804              1.924
 Vibration    12          0.656              1.783              1.822
 Vibration    13          0.662              1.766              1.745
 Vibration    14          0.680              1.709              1.529
 Vibration    15          0.697              1.660              1.378
 Vibration    16          0.704              1.640              1.323
 Vibration    17          0.723              1.588              1.194
 Vibration    18          0.734              1.557              1.126
 Vibration    19          0.750              1.511              1.037
 Vibration    20          0.760              1.486              0.990
 Vibration    21          0.771              1.457              0.941
 Vibration    22          0.786              1.419              0.879
 Vibration    23          0.788              1.414              0.873
 Vibration    24          0.821              1.332              0.757
 Vibration    25          0.851              1.260              0.670
 Vibration    26          0.871              1.215              0.620
 Vibration    27          0.875              1.206              0.611
 Vibration    28          0.896              1.160              0.564
 Vibration    29          0.913              1.123              0.529
 Vibration    30          0.931              1.085              0.495
 Vibration    31          0.939              1.069              0.480

                           ! Non-Optimized Parameters !
 Normal termination of Gaussian 16 at Sun Dec 13 17:12:00 2020.

 ----------------------------------------------------------------------
 # B3LYP/6-311++G(d,p) empiricaldispersion=gd3bj scf=xqc pop=npa geom=c
 heck
 ----------------------------------------------------------------------

 ----------------------------------------
 CID_107710578_JID_10443_Energie_neutraal
 ----------------------------------------
 Structure from the checkpoint file:  "JID_10443.chk"
 Charge =  0 Multiplicity = 1

 SCF Done:  E(RB3LYP) =  -882.010818520     A.U. after   15 cycles
 Normal termination of Gaussian 16 at Sun Dec 13 17:19:06 2020.

 ----------------------------------------------------------------------
 # B3LYP/6-311++G(d,p) empiricaldispersion=gd3bj scf=xqc pop=npa geom=c
 heck
 ----------------------------------------------------------------------

 --------------------------------------
 CID_107710578_JID_10443_Energie_kation
 --------------------------------------
 Structure from the checkpoint file:  "JID_10443.chk"
 Charge =  1 Multiplicity = 2

 SCF Done:  E(UB3LYP) =  -881.762367087     A.U. after   24 cycles
 Normal termination of Gaussian 16 at Sun Dec 13 17:34:37 2020.
 Gaussian 16:  ES64L-G16RevA.03 25-Dec-2016

 ----------------------------------------------------------------------
 # B3LYP/6-311++G(d,p) empiricaldispersion=gd3bj scf=xqc pop=npa geom=c
 heck
 ----------------------------------------------------------------------

 -------------------------------------
 CID_107710578_JID_10443_Energie_anion
 -------------------------------------
 Structure from the checkpoint file:  "JID_10443.chk"
 Charge = -1 Multiplicity = 2

                         Standard orientation:
 ---------------------------------------------------------------------
 Center     Atomic      Atomic             Coordinates (Angstroms)
 Number     Number       Type             X           Y           Z
 ---------------------------------------------------------------------
      1          6           0        0.959785    1.882654   -0.814191
      2          6           0        1.301392    0.436243   -0.457900
      3          6           0        2.754322    0.077852   -0.160198
      4          6           0        3.025040   -1.281244    0.142380
      5          6           0        4.330256   -1.754906    0.310110
      6          6           0        5.395306   -0.870809    0.199065
      7          6           0        5.165568    0.477432   -0.060116
      8          6           0        3.858001    0.944895   -0.236407
      9          8           0        3.647541    2.277080   -0.499126
     10          8           0        2.010672   -2.173572    0.266301
     11          7           0        0.464929   -0.057573    0.686477
     12          6           0       -0.949282   -0.056516    0.492588
     13          6           0       -1.799146    0.758066    1.242905
     14          6           0       -3.179898    0.717870    1.070210
     15          6           0       -3.770540   -0.137319    0.117381
     16          6           0       -2.900392   -0.940366   -0.652325
     17          6           0       -1.525512   -0.910343   -0.453834
     18          7           0       -5.154046   -0.199749   -0.047688
     19          6           0       -5.968772    0.841501    0.550721
     20          6           0       -5.681544   -0.863220   -1.226138
     21          1           0        1.200718    2.566116    0.004465
     22          1           0       -0.113271    1.945549   -1.020444
     23          1           0        1.509598    2.215148   -1.696495
     24          1           0        0.998063   -0.193824   -1.304627
     25          1           0        4.474080   -2.805477    0.536586
     26          1           0        6.413431   -1.226318    0.330454
     27          1           0        5.996114    1.177166   -0.130476
     28          1           0        4.513529    2.710696   -0.539487
     29          1           0        1.219150   -1.635102    0.546987
     30          1           0        0.715665    0.465561    1.523302
     31          1           0       -1.376864    1.443428    1.974583
     32          1           0       -3.793541    1.370353    1.678550
     33          1           0       -3.295890   -1.612258   -1.403608
     34          1           0       -0.888397   -1.568264   -1.038458
     35          1           0       -5.717582    1.850762    0.183717
     36          1           0       -7.019063    0.644688    0.326780
     37          1           0       -5.860058    0.841236    1.641070
     38          1           0       -5.333261   -0.409519   -2.169002
     39          1           0       -5.399770   -1.921930   -1.235486
     40          1           0       -6.772038   -0.815558   -1.202844
 ---------------------------------------------------------------------

 SCF Done:  E(UB3LYP) =  -882.003032792     A.U. after   33 cycles
 SCF Done:  E(UB3LYP) =  -882.003032792     a.u. after    1 cycles

 The electronic state is 2-A.
 Alpha  occ. eigenvalues --  -19.06435 -19.04574 -14.24620 -14.24520 -10.15556
 Alpha  occ. eigenvalues --  -10.14865 -10.13713 -10.12904 -10.11984 -10.11323
 Alpha  occ. eigenvalues --  -10.11148 -10.09559 -10.09550 -10.09248 -10.09133
 Alpha  occ. eigenvalues --  -10.08834 -10.08734 -10.08205 -10.07899 -10.07215
 Alpha  occ. eigenvalues --   -0.97649  -0.96461  -0.86536  -0.85312  -0.76718
 Alpha  occ. eigenvalues --   -0.75698  -0.69805  -0.67118  -0.65399  -0.64859
 Alpha  occ. eigenvalues --   -0.63800  -0.63650  -0.57849  -0.55779  -0.53662
 Alpha  occ. eigenvalues --   -0.53181  -0.50450  -0.49433  -0.47028  -0.45507
 Alpha  occ. eigenvalues --   -0.42933  -0.41892  -0.40683  -0.40096  -0.39583
 Alpha  occ. eigenvalues --   -0.38056  -0.37690  -0.37073  -0.35427  -0.34923
 Alpha  occ. eigenvalues --   -0.34413  -0.33416  -0.33310  -0.32092  -0.31804
 Alpha  occ. eigenvalues --   -0.31349  -0.31031  -0.30520  -0.29938  -0.29766
 Alpha  occ. eigenvalues --   -0.29625  -0.28497  -0.27600  -0.27094  -0.25947
 Alpha  occ. eigenvalues --   -0.24828  -0.23052  -0.22198  -0.17526  -0.17411
 Alpha  occ. eigenvalues --   -0.15209  -0.13453  -0.10678   0.03388
 Alpha virt. eigenvalues --    0.04334   0.06209   0.06314   0.06702   0.06889
 Alpha virt. eigenvalues --    0.07271   0.07800   0.08234   0.08315   0.08570
 Alpha virt. eigenvalues --    0.08799   0.09356   0.09803   0.10139   0.10364

  Beta  occ. eigenvalues --  -19.06388 -19.04572 -14.24617 -14.24517 -10.15556
  Beta  occ. eigenvalues --  -10.14864 -10.13712 -10.12900 -10.11982 -10.11284
  Beta  occ. eigenvalues --  -10.11105 -10.09554 -10.09547 -10.09243 -10.09129
  Beta  occ. eigenvalues --  -10.08829 -10.08725 -10.08179 -10.07898 -10.07205
  Beta  occ. eigenvalues --   -0.97558  -0.96456  -0.86521  -0.85304  -0.76700
  Beta  occ. eigenvalues --   -0.75684  -0.69791  -0.67100  -0.65374  -0.64833
  Beta  occ. eigenvalues --   -0.63769  -0.63608  -0.57810  -0.55748  -0.53613
  Beta  occ. eigenvalues --   -0.53153  -0.50422  -0.49405  -0.47000  -0.45485
  Beta  occ. eigenvalues --   -0.42904  -0.41850  -0.40657  -0.40063  -0.39554
  Beta  occ. eigenvalues --   -0.38024  -0.37668  -0.37048  -0.35404  -0.34903
  Beta  occ. eigenvalues --   -0.34395  -0.33396  -0.33297  -0.32053  -0.31771
  Beta  occ. eigenvalues --   -0.31323  -0.31012  -0.30490  -0.29915  -0.29734
  Beta  occ. eigenvalues --   -0.29594  -0.28475  -0.27586  -0.27078  -0.25931
  Beta  occ. eigenvalues --   -0.24806  -0.23035  -0.22184  -0.17513  -0.17399
  Beta  occ. eigenvalues --   -0.15198  -0.13438  -0.10659
  Beta virt. eigenvalues --    0.05403   0.05915   0.06339   0.06610   0.06941
  Beta virt. eigenvalues --    0.07346   0.07450   0.07927   0.08421   0.08578
  Beta virt. eigenvalues --    0.08774   0.08891   0.09652   0.09882   0.10320

 Mulliken charges and spin densities:
               1          2
     1  C   -0.476445  -0.405039
     2  C    1.242010  -1.228113
     3  C    1.216910   0.063172
     4  C   -0.451268   0.072815
     5  C   -0.818054   0.408143
     6  C    0.568311  -0.678637
     7  C   -0.897435   0.376938
     8  C   -0.345137  -0.101770
     9  O   -0.220199   0.038863
    10  O   -0.271592  -0.000464
    11  N   -0.061374  -0.009720
    12  C    0.795390  -0.843495
    13  C   -0.093322  -0.100745
    14  C   -0.391001   0.190167
    15  C   -0.916855   0.324373
    16  C    0.135609  -0.151829
    17  C    0.103611  -0.004037
    18  N   -0.137856   0.235695
    19  C    0.564818  -0.945493
    20  C    0.467415  -0.876096
    21  H    0.090357   0.100186
    22  H    0.183988  -0.026878
    23  H    0.073686   0.103153
    24  H    0.191327   0.002481
    25  H    0.103816   0.052574
    26  H    0.160219  -0.007211
    27  H   -0.894385   1.036401
    28  H   -0.281221   0.567049
    29  H    0.411387  -0.004536
    30  H    0.279638  -0.046318
    31  H   -0.191096   0.329070
    32  H    0.114747   0.057846
    33  H    0.190853  -0.013833
    34  H    0.017519   0.124429
    35  H   -0.100691   0.257525
    36  H   -0.469002   0.613685
    37  H   -0.263545   0.409679
    38  H   -0.066315   0.224651
    39  H   -0.159318   0.304371
    40  H   -0.405502   0.550947
 Sum of Mulliken charges =  -1.00000   1.00000

 Dipole moment (field-independent basis, Debye):
    X=              2.8224    Y=             -2.9076    Z=              0.7099  Tot=              4.1139
 Quadrupole moment (field-independent basis, Debye-Ang):
   XX=           -290.4000   YY=           -165.8856   ZZ=           -147.3413
   XY=            -18.4922   XZ=              3.1178   YZ=              2.9201

 Summary of Natural Population Analysis:

                                       Natural Population
                Natural  -----------------------------------------------
    Atom  No    Charge         Core      Valence    Rydberg      Total
 -----------------------------------------------------------------------
      C    1   -0.29277      0.99965     2.28773    0.00540     3.29277
      C    2   -0.00983      0.99957     1.99895    0.01130     3.00983
      C    3   -0.08646      0.99942     2.07630    0.01074     3.08646
      C    4    0.17728      0.99939     1.81027    0.01306     2.82272
      C    5   -0.14363      0.99952     2.13515    0.00896     3.14363
      C    6   -0.08746      0.99958     2.07760    0.01028     3.08746
      C    7   -0.15318      0.99953     2.14311    0.01054     3.15318
      C    8    0.17082      0.99935     1.81676    0.01307     2.82918
      O    9   -0.34166      0.99988     3.33431    0.00747     4.34166
      O   10   -0.35860      0.99987     3.35220    0.00652     4.35860
      N   11   -0.34705      0.99971     2.83544    0.01190     3.84705
      C   12    0.05723      0.99946     1.93200    0.01131     2.94277
      C   13   -0.10674      0.99952     2.09805    0.00917     3.10674
      C   14   -0.12137      0.99954     2.11309    0.00874     3.12137
      C   15    0.08997      0.99949     1.89948    0.01106     2.91003
      C   16   -0.11964      0.99954     2.11251    0.00759     3.11964
      C   17   -0.10547      0.99952     2.09805    0.00790     3.10547
      N   18   -0.25214      0.99966     2.74101    0.01147     3.75214
      C   19   -0.17512      0.99964     2.16691    0.00857     3.17512
      C   20   -0.17519      0.99964     2.16687    0.00868     3.17519
      H   21    0.10345      0.00000     0.39533    0.00121     0.39655
      H   22    0.10297      0.00000     0.39619    0.00084     0.39703
      H   23    0.10981      0.00000     0.38927    0.00092     0.39019
      H   24    0.09895      0.00000     0.39915    0.00190     0.40105
      H   25    0.10379      0.00000     0.39489    0.00132     0.39621
      H   26    0.09929      0.00000     0.39999    0.00073     0.40071
      H   27    0.10326      0.00000     0.39478    0.00197     0.39674
      H   28    0.24065      0.00000     0.24667    0.01267     0.25935
      H   29    0.24887      0.00000     0.24757    0.00356     0.25113
      H   30    0.18382      0.00000     0.31406    0.00213     0.31618
      H   31    0.09985      0.00000     0.39917    0.00097     0.40015
      H   32    0.10558      0.00000     0.39335    0.00107     0.39442
      H   33    0.10441      0.00000     0.39456    0.00103     0.39559
      H   34    0.10267      0.00000     0.39575    0.00158     0.39733
      H   35    0.08928      0.00000     0.40921    0.00151     0.41072
      H   36    0.10194      0.00000     0.39659    0.00148     0.39806
      H   37    0.09621      0.00000     0.40218    0.00161     0.40379
      H   38    0.08890      0.00000     0.40967    0.00143     0.41110
      H   39    0.09517      0.00000     0.40334    0.00149     0.40483
      H   40    0.10212      0.00000     0.39658    0.00129     0.39788
 =======================================================================
   * Total *    0.00000     19.99149    52.77408    0.23443    73.00000

 Normal termination of Gaussian 16 at Sun Dec 13 17:56:30 2020.
