 Gaussian 16, Revision A.03,

 -----------------------------------------------------------
 # opt freq B3LYP/6-31G(d) empiricaldispersion=gd3bj scf=xqc
 -----------------------------------------------------------

 -------------------------------
 CID_114529330_JID_7176_neutraal
 -------------------------------
 Symbolic Z-matrix:
 Charge =  0 Multiplicity = 1

 SCF Done:  E(RB3LYP) =  -748.757907717     A.U. after   14 cycles
 SCF Done:  E(RB3LYP) =  -748.750299762     A.U. after   13 cycles
 SCF Done:  E(RB3LYP) =  -748.763287487     A.U. after   12 cycles
 SCF Done:  E(RB3LYP) =  -748.764860278     A.U. after   11 cycles
 SCF Done:  E(RB3LYP) =  -748.765264838     A.U. after   12 cycles
 SCF Done:  E(RB3LYP) =  -748.765825427     A.U. after   12 cycles
 SCF Done:  E(RB3LYP) =  -748.766174359     A.U. after   11 cycles
 SCF Done:  E(RB3LYP) =  -748.766733497     A.U. after   12 cycles
 SCF Done:  E(RB3LYP) =  -748.766538912     A.U. after   12 cycles
 SCF Done:  E(RB3LYP) =  -748.767243274     A.U. after   12 cycles
 SCF Done:  E(RB3LYP) =  -748.768406018     A.U. after    9 cycles
 SCF Done:  E(RB3LYP) =  -748.768408446     A.U. after    9 cycles
 SCF Done:  E(RB3LYP) =  -748.768410433     A.U. after    9 cycles
 SCF Done:  E(RB3LYP) =  -748.768412687     A.U. after    8 cycles
 SCF Done:  E(RB3LYP) =  -748.768412950     A.U. after    7 cycles
 SCF Done:  E(RB3LYP) =  -748.768413036     A.U. after    7 cycles
 Optimization completed.
    -- Stationary point found.
 Normal termination of Gaussian 16 at Fri Dec 11 12:30:24 2020.

 --------------------------------------------------------------------
 #N Geom=AllCheck Guess=TCheck SCRF=Check GenChk RB3LYP/6-31G(d) Freq
 --------------------------------------------------------------------

 Structure from the checkpoint file:  "JID_7176.chk"
 -------------------------------
 CID_114529330_JID_7176_neutraal
 -------------------------------
 Charge =  0 Multiplicity = 1

 SCF Done:  E(RB3LYP) =  -748.768413036     A.U. after    1 cycles

  Exact polarizability: 169.526  15.579 141.448   0.278   4.676 138.905
 Approx polarizability: 216.670  25.852 205.860  -5.758   5.494 230.937

                      1                      2                      3
                      A                      A                      A
 Frequencies --     27.3160                32.1599                66.3302
 Red. masses --      3.6791                 3.7496                 4.2536
 Frc consts  --      0.0016                 0.0023                 0.0110
 IR Inten    --      0.6936                 3.7032                 0.1406

                      4                      5                      6
                      A                      A                      A
 Frequencies --     84.9181                91.9669               116.5824
 Red. masses --      1.1865                 2.1871                 3.6338
 Frc consts  --      0.0050                 0.0109                 0.0291
 IR Inten    --      0.1264                 0.7032                 0.6603

                      7                      8                      9
                      A                      A                      A
 Frequencies --    170.7316               183.3803               191.4294
 Red. masses --      3.3397                 3.6344                 3.1676
 Frc consts  --      0.0574                 0.0720                 0.0684
 IR Inten    --      2.1142                 1.5043                 0.7516

                     10                     11                     12
                      A                      A                      A
 Frequencies --    206.1632               228.1131               249.0213
 Red. masses --      1.9374                 1.7558                 2.9143
 Frc consts  --      0.0485                 0.0538                 0.1065
 IR Inten    --      0.8487                 0.5477                 0.3645

                     13                     14                     15
                      A                      A                      A
 Frequencies --    269.6914               284.7120               297.8725
 Red. masses --      1.9619                 1.8729                 1.4462
 Frc consts  --      0.0841                 0.0894                 0.0756
 IR Inten    --     10.8598                27.7168                65.7828

                     16                     17                     18
                      A                      A                      A
 Frequencies --    314.8733               319.0455               351.0359
 Red. masses --      2.4061                 2.3254                 2.2365
 Frc consts  --      0.1405                 0.1395                 0.1624
 IR Inten    --     11.9515                 5.3289                 1.7100

                     19                     20                     21
                      A                      A                      A
 Frequencies --    391.8313               406.5772               452.8731
 Red. masses --      3.6643                 2.0862                 3.6795
 Frc consts  --      0.3315                 0.2032                 0.4446
 IR Inten    --      1.5719                 5.7702                12.3902

                     22                     23                     24
                      A                      A                      A
 Frequencies --    475.5392               493.2688               555.2484
 Red. masses --      2.1064                 2.9276                 3.3673
 Frc consts  --      0.2806                 0.4197                 0.6117
 IR Inten    --      7.9348                12.9829                 8.9268

                     25                     26                     27
                      A                      A                      A
 Frequencies --    576.7413               608.1827               630.4066
 Red. masses --      3.0001                 2.3211                 3.7740
 Frc consts  --      0.5880                 0.5058                 0.8837
 IR Inten    --      5.8109                13.8724                 0.4471

                     28                     29                     30
                      A                      A                      A
 Frequencies --    643.3371               686.6921               714.9381
 Red. masses --      3.9650                 3.3410                 1.3663
 Frc consts  --      0.9669                 0.9282                 0.4115
 IR Inten    --      9.6762                24.4256                15.7829

                     31                     32                     33
                      A                      A                      A
 Frequencies --    743.8304               755.2788               781.2769
 Red. masses --      2.9348                 3.6371                 1.3065
 Frc consts  --      0.9567                 1.2224                 0.4699
 IR Inten    --      5.4835                 0.2293                24.8498

                     34                     35                     36
                      A                      A                      A
 Frequencies --    811.1672               836.1735               865.2140
 Red. masses --      1.8024                 1.2903                 2.0413
 Frc consts  --      0.6987                 0.5315                 0.9003
 IR Inten    --     46.5540                 6.5718                 4.3878

                     37                     38                     39
                      A                      A                      A
 Frequencies --    885.2465               907.4115               920.8277
 Red. masses --      2.3637                 1.9169                 2.2390
 Frc consts  --      1.0914                 0.9300                 1.1186
 IR Inten    --      2.9003                10.7887                 3.6317

                     40                     41                     42
                      A                      A                      A
 Frequencies --    940.1544               960.8545               967.6217
 Red. masses --      4.2300                 2.1973                 1.8231
 Frc consts  --      2.2029                 1.1952                 1.0057
 IR Inten    --      1.0041                17.9299                 7.8160

                     43                     44                     45
                      A                      A                      A
 Frequencies --    997.8765              1020.6846              1049.0241
 Red. masses --      2.3820                 1.9745                 2.2325
 Frc consts  --      1.3975                 1.2119                 1.4475
 IR Inten    --     12.8191                 1.5824                 1.7726

                     46                     47                     48
                      A                      A                      A
 Frequencies --   1060.6705              1065.6545              1073.6064
 Red. masses --      2.3889                 1.9594                 1.7934
 Frc consts  --      1.5835                 1.3110                 1.2179
 IR Inten    --      7.1122                 3.6465                 9.9507

                     49                     50                     51
                      A                      A                      A
 Frequencies --   1090.8944              1101.4072              1111.5645
 Red. masses --      1.8673                 1.9994                 1.2525
 Frc consts  --      1.3093                 1.4290                 0.9118
 IR Inten    --     12.8814                25.2737                 9.1366

                     52                     53                     54
                      A                      A                      A
 Frequencies --   1147.5031              1152.1961              1158.9694
 Red. masses --      1.7549                 2.0817                 1.3431
 Frc consts  --      1.3615                 1.6283                 1.0629
 IR Inten    --      2.6246                17.5632                 4.3538

                     55                     56                     57
                      A                      A                      A
 Frequencies --   1171.2921              1179.9065              1189.5723
 Red. masses --      3.0396                 2.3691                 2.2173
 Frc consts  --      2.4569                 1.9433                 1.8487
 IR Inten    --     10.4498                10.0095                33.6742

                     58                     59                     60
                      A                      A                      A
 Frequencies --   1209.8082              1225.2803              1235.1318
 Red. masses --      2.5628                 1.2660                 1.1608
 Frc consts  --      2.2100                 1.1198                 1.0434
 IR Inten    --      3.2964                21.7804                 3.5002

                     61                     62                     63
                      A                      A                      A
 Frequencies --   1266.8258              1274.2422              1289.4812
 Red. masses --      1.3048                 1.1611                 1.2747
 Frc consts  --      1.2337                 1.1107                 1.2488
 IR Inten    --      1.1543                10.6091                17.3855

                     64                     65                     66
                      A                      A                      A
 Frequencies --   1322.8449              1326.9158              1333.0411
 Red. masses --      2.5038                 1.2507                 1.2994
 Frc consts  --      2.5815                 1.2974                 1.3604
 IR Inten    --     21.4583                 5.2785                 1.6406

                     67                     68                     69
                      A                      A                      A
 Frequencies --   1350.0702              1367.2889              1372.8685
 Red. masses --      1.3186                 1.3673                 1.7942
 Frc consts  --      1.4160                 1.5060                 1.9924
 IR Inten    --     11.0160                13.9233                13.2678

                     70                     71                     72
                      A                      A                      A
 Frequencies --   1389.9335              1395.9744              1406.0814
 Red. masses --      1.6809                 1.8121                 2.1023
 Frc consts  --      1.9133                 2.0806                 2.4489
 IR Inten    --      6.9615                 6.9059                 3.7409

                     73                     74                     75
                      A                      A                      A
 Frequencies --   1414.9507              1427.8022              1438.1138
 Red. masses --      1.5517                 1.5676                 1.2669
 Frc consts  --      1.8304                 1.8829                 1.5437
 IR Inten    --     20.9079                25.1754                 5.5468

                     76                     77                     78
                      A                      A                      A
 Frequencies --   1447.1536              1465.2097              1497.2380
 Red. masses --      1.3926                 1.7442                 1.6211
 Frc consts  --      1.7183                 2.2062                 2.1411
 IR Inten    --      1.5973                21.3781                 7.3741

                     79                     80                     81
                      A                      A                      A
 Frequencies --   1499.1409              1507.9324              1512.1920
 Red. masses --      1.4814                 1.1056                 1.1369
 Frc consts  --      1.9615                 1.4812                 1.5317
 IR Inten    --      7.6192                 2.0764                10.8953

                     82                     83                     84
                      A                      A                      A
 Frequencies --   1512.9378              1521.5992              1523.2701
 Red. masses --      1.1108                 1.1548                 1.0859
 Frc consts  --      1.4981                 1.5753                 1.4846
 IR Inten    --     12.2387                10.6600                 0.8533

                     85                     86                     87
                      A                      A                      A
 Frequencies --   1529.3305              1532.4156              1537.2264
 Red. masses --      1.0518                 1.1053                 1.1530
 Frc consts  --      1.4494                 1.5293                 1.6053
 IR Inten    --      4.1609                11.0039                 5.8478

                     88                     89                     90
                      A                      A                      A
 Frequencies --   1541.7640              1544.8982              1545.6877
 Red. masses --      1.0944                 1.7710                 1.2980
 Frc consts  --      1.5327                 2.4904                 1.8271
 IR Inten    --      8.5599                 9.3953                 2.5956

                     91                     92                     93
                      A                      A                      A
 Frequencies --   1576.2334              2970.5060              3007.8928
 Red. masses --      4.0437                 1.0714                 1.0726
 Frc consts  --      5.9192                 5.5701                 5.7175
 IR Inten    --     13.5296                74.8455                18.8608

                     94                     95                     96
                      A                      A                      A
 Frequencies --   3020.2671              3024.2544              3030.3642
 Red. masses --      1.0651                 1.0701                 1.0678
 Frc consts  --      5.7243                 5.7665                 5.7772
 IR Inten    --     56.0234                11.6039                93.2362

                     97                     98                     99
                      A                      A                      A
 Frequencies --   3044.4870              3057.5835              3063.6156
 Red. masses --      1.0370                 1.0374                 1.0843
 Frc consts  --      5.6634                 5.7141                 5.9962
 IR Inten    --     27.2715                25.6655                17.4978

                    100                    101                    102
                      A                      A                      A
 Frequencies --   3069.2797              3073.8844              3076.4524
 Red. masses --      1.0904                 1.0895                 1.0970
 Frc consts  --      6.0522                 6.0650                 6.1172
 IR Inten    --     70.3636                 9.9508                40.1085

                    103                    104                    105
                      A                      A                      A
 Frequencies --   3081.6069              3089.4204              3101.6708
 Red. masses --      1.0770                 1.0934                 1.1011
 Frc consts  --      6.0260                 6.1487                 6.2411
 IR Inten    --      3.7670                50.5759                34.5276

                    106                    107                    108
                      A                      A                      A
 Frequencies --   3120.5644              3125.4521              3127.8697
 Red. masses --      1.1034                 1.0905                 1.0986
 Frc consts  --      6.3309                 6.2761                 6.3325
 IR Inten    --     17.2628                 3.1548                24.6492

                    109                    110                    111
                      A                      A                      A
 Frequencies --   3161.7242              3171.3539              3258.3703
 Red. masses --      1.1024                 1.0875                 1.0913
 Frc consts  --      6.4927                 6.4444                 6.8264
 IR Inten    --     10.7756                42.3907                 7.4411

                    112                    113                    114
                      A                      A                      A
 Frequencies --   3286.1369              3504.4460              3726.3447
 Red. masses --      1.1042                 1.0746                 1.0658
 Frc consts  --      7.0254                 7.7756                 8.7199
 IR Inten    --      5.9458                 2.0205                 4.6764

 - Thermochemistry -
 -------------------
 Temperature   298.150 Kelvin.  Pressure   1.00000 Atm.
 Atom     1 has atomic number  6 and mass  12.00000

 Molecular mass:   237.18411 amu.
 Principal axes and moments of inertia in atomic units:
                           1         2         3
     Eigenvalues --  2148.063805877.758156271.96531
           X            0.99996   0.00567  -0.00723
           Y           -0.00521   0.99807   0.06189
           Z            0.00756  -0.06185   0.99806
 This molecule is an asymmetric top.
 Rotational symmetry number  1.
 Warning -- assumption of classical behavior for rotation
           may cause significant error
 Rotational temperatures (Kelvin)      0.04032     0.01474     0.01381
 Rotational constants (GHZ):           0.84017     0.30705     0.28775
 Zero-point vibrational energy     942665.1 (Joules/Mol)
                                  225.30236 (Kcal/Mol)
 Warning -- explicit consideration of  26 degrees of freedom as
           vibrations may cause significant error
 Vibrational temperatures:     39.30    46.27    95.43   122.18   132.32
          (Kelvin)            167.74   245.64   263.84   275.42   296.62
                              328.20   358.29   388.03   409.64   428.57
                              453.03   459.04   505.06   563.76   584.97
                              651.58   684.19   709.70   798.88   829.80
                              875.04   907.01   925.62   988.00  1028.64
                             1070.21  1086.68  1124.08  1167.09  1203.07
                             1244.85  1273.67  1305.56  1324.87  1352.67
                             1382.46  1392.19  1435.72  1468.54  1509.31
                             1526.07  1533.24  1544.68  1569.55  1584.68
                             1599.29  1651.00  1657.75  1667.50  1685.23
                             1697.62  1711.53  1740.64  1762.91  1777.08
                             1822.68  1833.35  1855.28  1903.28  1909.14
                             1917.95  1942.45  1967.22  1975.25  1999.80
                             2008.50  2023.04  2035.80  2054.29  2069.13
                             2082.13  2108.11  2154.19  2156.93  2169.58
                             2175.71  2176.78  2189.24  2191.65  2200.37
                             2204.80  2211.73  2218.25  2222.76  2223.90
                             2267.85  4273.90  4327.69  4345.49  4351.23
                             4360.02  4380.34  4399.18  4407.86  4416.01
                             4422.63  4426.33  4433.74  4444.99  4462.61
                             4489.80  4496.83  4500.31  4549.02  4562.87
                             4688.07  4728.02  5042.12  5361.38

 Zero-point correction=                           0.359042 (Hartree/Particle)
 Thermal correction to Energy=                    0.376231
 Thermal correction to Enthalpy=                  0.377176
 Thermal correction to Gibbs Free Energy=         0.313947
 Sum of electronic and zero-point Energies=           -748.409371
 Sum of electronic and thermal Energies=              -748.392182
 Sum of electronic and thermal Enthalpies=            -748.391237
 Sum of electronic and thermal Free Energies=         -748.454466

                     E (Thermal)             CV                S
                      KCal/Mol        Cal/Mol-Kelvin    Cal/Mol-Kelvin
 Total                  236.089             66.808            133.077
 Electronic               0.000              0.000              0.000
 Translational            0.889              2.981             42.292
 Rotational               0.889              2.981             32.737
 Vibrational            234.311             60.847             58.047
 Vibration     1          0.593              1.984              6.015
 Vibration     2          0.594              1.983              5.692
 Vibration     3          0.598              1.970              4.259
 Vibration     4          0.601              1.960              3.774
 Vibration     5          0.602              1.955              3.618
 Vibration     6          0.608              1.936              3.156
 Vibration     7          0.626              1.879              2.427
 Vibration     8          0.631              1.862              2.294
 Vibration     9          0.634              1.852              2.214
 Vibration    10          0.641              1.831              2.077
 Vibration    11          0.651              1.798              1.894
 Vibration    12          0.662              1.764              1.737
 Vibration    13          0.674              1.729              1.598
 Vibration    14          0.683              1.702              1.505
 Vibration    15          0.691              1.678              1.429
 Vibration    16          0.702              1.645              1.337
 Vibration    17          0.705              1.637              1.315
 Vibration    18          0.728              1.573              1.162
 Vibration    19          0.759              1.488              0.993
 Vibration    20          0.771              1.456              0.939
 Vibration    21          0.811              1.355              0.787
 Vibration    22          0.832              1.304              0.722
 Vibration    23          0.849              1.265              0.675
 Vibration    24          0.911              1.128              0.533
 Vibration    25          0.933              1.082              0.491
 Vibration    26          0.967              1.014              0.436

 Optimization completed.
    -- Stationary point found.
 Normal termination of Gaussian 16 at Fri Dec 11 12:49:33 2020.

 ----------------------------------------------------------------------
 # B3LYP/6-311++G(d,p) empiricaldispersion=gd3bj scf=xqc pop=npa geom=c
 heck
 ----------------------------------------------------------------------

 ---------------------------------------
 CID_114529330_JID_7176_Energie_neutraal
 ---------------------------------------
 Structure from the checkpoint file:  "JID_7176.chk"
 Charge =  0 Multiplicity = 1

 SCF Done:  E(RB3LYP) =  -748.984372326     A.U. after   15 cycles
 Normal termination of Gaussian 16 at Fri Dec 11 12:59:10 2020.

 ----------------------------------------------------------------------
 # B3LYP/6-311++G(d,p) empiricaldispersion=gd3bj scf=xqc pop=npa geom=c
 heck
 ----------------------------------------------------------------------

 -------------------------------------
 CID_114529330_JID_7176_Energie_kation
 -------------------------------------
 Structure from the checkpoint file:  "JID_7176.chk"
 Charge =  1 Multiplicity = 2

 SCF Done:  E(UB3LYP) =  -748.706277078     A.U. after   28 cycles
 Normal termination of Gaussian 16 at Fri Dec 11 13:24:52 2020.
 Gaussian 16:  ES64L-G16RevA.03 25-Dec-2016

 ----------------------------------------------------------------------
 # B3LYP/6-311++G(d,p) empiricaldispersion=gd3bj scf=xqc pop=npa geom=c
 heck
 ----------------------------------------------------------------------

 ------------------------------------
 CID_114529330_JID_7176_Energie_anion
 ------------------------------------
 Structure from the checkpoint file:  "JID_7176.chk"
 Charge = -1 Multiplicity = 2

                         Standard orientation:
 ---------------------------------------------------------------------
 Center     Atomic      Atomic             Coordinates (Angstroms)
 Number     Number       Type             X           Y           Z
 ---------------------------------------------------------------------
      1          6           0        0.384703    2.582098    0.175442
      2          6           0       -0.332275    1.370444   -0.425878
      3          6           0       -1.275585    0.690787    0.591687
      4          6           0       -2.657524    1.373021    0.511599
      5          7           0       -3.257376    1.099184   -0.801241
      6          6           0       -3.501684   -0.326157   -1.023090
      7          6           0       -2.178357   -1.095065   -0.937750
      8          6           0       -1.484450   -0.834215    0.411312
      9          6           0       -0.252502   -1.737586    0.646812
     10          6           0        0.961740   -1.681844   -0.298888
     11          6           0        2.027948   -0.737641    0.175803
     12          7           0        2.224765   -0.360476    1.426378
     13          6           0        3.319975    0.476202    1.400586
     14          6           0        3.789840    0.608412    0.120119
     15          7           0        2.961394   -0.178087   -0.663069
     16          6           0        3.022296   -0.313876   -2.106766
     17          8           0       -2.398918   -1.181157    1.478126
     18          1           0        0.991807    3.097714   -0.577792
     19          1           0        1.049296    2.271249    0.987894
     20          1           0       -0.328934    3.310894    0.578782
     21          1           0       -0.928833    1.672197   -1.293069
     22          1           0        0.423218    0.678841   -0.795793
     23          1           0       -0.873945    0.829723    1.602564
     24          1           0       -2.532666    2.458435    0.601874
     25          1           0       -3.283440    1.032581    1.349149
     26          1           0       -4.130672    1.612783   -0.890551
     27          1           0       -3.941493   -0.451091   -2.019652
     28          1           0       -4.204103   -0.759574   -0.290023
     29          1           0       -1.523976   -0.786866   -1.761449
     30          1           0       -2.366340   -2.172059   -1.056205
     31          1           0        0.097892   -1.557945    1.666527
     32          1           0       -0.639296   -2.766712    0.618870
     33          1           0        1.396156   -2.690144   -0.364583
     34          1           0        0.656035   -1.429998   -1.320954
     35          1           0        3.702149    0.931241    2.304041
     36          1           0        4.607652    1.167485   -0.309437
     37          1           0        2.156757    0.160881   -2.582568
     38          1           0        3.929959    0.171676   -2.469338
     39          1           0        3.051818   -1.368485   -2.396321
     40          1           0       -2.563924   -2.135398    1.412623
 ---------------------------------------------------------------------

 SCF Done:  E(UB3LYP) =  -748.974803358     A.U. after   31 cycles

 The electronic state is 2-A.
 Alpha  occ. eigenvalues --  -19.02314 -14.27314 -14.20273 -14.19267 -10.13140
 Alpha  occ. eigenvalues --  -10.12900 -10.11432 -10.09987 -10.09496 -10.09157
 Alpha  occ. eigenvalues --  -10.08655 -10.08600 -10.07229 -10.07023 -10.06865
 Alpha  occ. eigenvalues --  -10.05894 -10.05833  -0.92851  -0.92155  -0.81463
 Alpha  occ. eigenvalues --   -0.78871  -0.71596  -0.69161  -0.66948  -0.63958
 Alpha  occ. eigenvalues --   -0.62795  -0.61337  -0.56293  -0.53842  -0.51448
 Alpha  occ. eigenvalues --   -0.51015  -0.49682  -0.45506  -0.43746  -0.42678
 Alpha  occ. eigenvalues --   -0.41552  -0.39362  -0.38478  -0.36828  -0.36603
 Alpha  occ. eigenvalues --   -0.35904  -0.34425  -0.33999  -0.33383  -0.32387
 Alpha  occ. eigenvalues --   -0.31908  -0.31562  -0.30766  -0.30558  -0.28859
 Alpha  occ. eigenvalues --   -0.28690  -0.27342  -0.26878  -0.26140  -0.25827
 Alpha  occ. eigenvalues --   -0.24575  -0.24122  -0.23092  -0.22041  -0.20234
 Alpha  occ. eigenvalues --   -0.18134  -0.17592  -0.17504  -0.13239  -0.12869
 Alpha  occ. eigenvalues --    0.03953
 Alpha virt. eigenvalues --    0.05705   0.06605   0.07383   0.08050   0.08446
 Alpha virt. eigenvalues --    0.08641   0.09359   0.09840   0.10436   0.10683
 Alpha virt. eigenvalues --    0.10892   0.11074   0.12063   0.12110   0.12792

  Beta  occ. eigenvalues --  -19.02299 -14.27311 -14.20265 -14.19266 -10.13141
  Beta  occ. eigenvalues --  -10.12899 -10.11365 -10.09972 -10.09483 -10.09154
  Beta  occ. eigenvalues --  -10.08654 -10.08580 -10.07225 -10.07009 -10.06844
  Beta  occ. eigenvalues --  -10.05887 -10.05827  -0.92821  -0.92147  -0.81449
  Beta  occ. eigenvalues --   -0.78859  -0.71573  -0.69142  -0.66922  -0.63922
  Beta  occ. eigenvalues --   -0.62761  -0.61288  -0.56261  -0.53818  -0.51424
  Beta  occ. eigenvalues --   -0.50989  -0.49653  -0.45455  -0.43716  -0.42628
  Beta  occ. eigenvalues --   -0.41521  -0.39335  -0.38449  -0.36810  -0.36572
  Beta  occ. eigenvalues --   -0.35870  -0.34407  -0.33966  -0.33353  -0.32362
  Beta  occ. eigenvalues --   -0.31887  -0.31530  -0.30741  -0.30521  -0.28837
  Beta  occ. eigenvalues --   -0.28661  -0.27313  -0.26859  -0.26119  -0.25805
  Beta  occ. eigenvalues --   -0.24554  -0.24105  -0.23078  -0.22028  -0.20211
  Beta  occ. eigenvalues --   -0.18114  -0.17576  -0.17495  -0.13220  -0.12855
  Beta virt. eigenvalues --    0.06095   0.06906   0.07169   0.07828   0.08423
  Beta virt. eigenvalues --    0.08840   0.09036   0.09657   0.10176   0.10613
  Beta virt. eigenvalues --    0.10901   0.11160   0.11637   0.12141   0.12440

 Mulliken charges and spin densities:
               1          2
     1  C   -0.371055  -0.351264
     2  C   -0.779732   0.578990
     3  C    0.799230  -0.302344
     4  C   -0.507163  -0.141138
     5  N   -0.288049   0.091570
     6  C    0.642565  -1.173137
     7  C   -0.544138   0.397100
     8  C   -0.537983  -0.070244
     9  C    0.951409  -1.034709
    10  C    0.619557  -0.944185
    11  C   -1.571935   0.943853
    12  N   -0.046401   0.007491
    13  C    0.344224  -0.427830
    14  C   -0.217323   0.242843
    15  N    0.019638   0.183541
    16  C    1.492710  -1.771457
    17  O   -0.167613   0.013802
    18  H   -0.012892   0.149902
    19  H    0.195886  -0.013028
    20  H    0.078562   0.015940
    21  H    0.089950   0.143520
    22  H    0.730866  -0.753743
    23  H    0.253999  -0.006958
    24  H    0.104704   0.042823
    25  H    0.118522   0.052635
    26  H    0.158680   0.083179
    27  H   -0.239582   0.408568
    28  H    0.096665   0.046174
    29  H   -0.031953   0.187476
    30  H   -0.498583   0.677608
    31  H    0.278002  -0.055122
    32  H   -0.289437   0.417150
    33  H   -0.219627   0.427363
    34  H    0.330045  -0.162336
    35  H    0.123346   0.022118
    36  H   -0.397147   0.563628
    37  H   -0.444024   0.657421
    38  H   -0.815297   0.971019
    39  H   -0.571345   0.751052
    40  H    0.122718   0.130727
 Sum of Mulliken charges =  -1.00000   1.00000

 Dipole moment (field-independent basis, Debye):
    X=             -4.0226    Y=              3.3284    Z=              5.1903  Tot=              7.3619
 Quadrupole moment (field-independent basis, Debye-Ang):
   XX=           -177.5265   YY=           -147.8714   ZZ=           -158.1896
   XY=             -4.5819   XZ=             14.6829   YZ=             -0.8302

 Summary of Natural Population Analysis:

                                       Natural Population
                Natural  -----------------------------------------------
    Atom  No    Charge         Core      Valence    Rydberg      Total
 -----------------------------------------------------------------------
      C    1   -0.28365      0.99966     2.27873    0.00526     3.28365
      C    2   -0.19856      0.99960     2.19089    0.00806     3.19856
      C    3   -0.11858      0.99954     2.10738    0.01166     3.11858
      C    4   -0.08601      0.99960     2.07652    0.00989     3.08601
      N    5   -0.34401      0.99974     2.83423    0.01004     3.84401
      C    6   -0.08542      0.99962     2.07430    0.01149     3.08542
      C    7   -0.20904      0.99957     2.19883    0.01064     3.20904
      C    8    0.14158      0.99950     1.84299    0.01593     2.85842
      C    9   -0.19738      0.99957     2.18604    0.01177     3.19738
      C   10   -0.21587      0.99958     2.20714    0.00915     3.21587
      C   11    0.19892      0.99959     1.78366    0.01782     2.80108
      N   12   -0.26743      0.99969     2.75920    0.00854     3.76743
      C   13   -0.03846      0.99957     2.02546    0.01342     3.03846
      C   14   -0.03448      0.99954     2.02341    0.01153     3.03448
      N   15   -0.20977      0.99961     2.69818    0.01198     3.70977
      C   16   -0.17415      0.99963     2.16616    0.00836     3.17415
      O   17   -0.38181      0.99989     3.37583    0.00609     4.38181
      H   18    0.09822      0.00000     0.40103    0.00076     0.40178
      H   19    0.10217      0.00000     0.39682    0.00101     0.39783
      H   20    0.09007      0.00000     0.40910    0.00083     0.40993
      H   21    0.10460      0.00000     0.39369    0.00171     0.39540
      H   22    0.09725      0.00000     0.40007    0.00267     0.40275
      H   23    0.10690      0.00000     0.39184    0.00126     0.39310
      H   24    0.09136      0.00000     0.40763    0.00102     0.40864
      H   25    0.09074      0.00000     0.40797    0.00128     0.40926
      H   26    0.17197      0.00000     0.32579    0.00224     0.32803
      H   27    0.09382      0.00000     0.40511    0.00107     0.40618
      H   28    0.08144      0.00000     0.41707    0.00149     0.41856
      H   29    0.10465      0.00000     0.39365    0.00170     0.39535
      H   30    0.10070      0.00000     0.39741    0.00189     0.39930
      H   31    0.11707      0.00000     0.38101    0.00192     0.38293
      H   32    0.09532      0.00000     0.40343    0.00124     0.40468
      H   33    0.11164      0.00000     0.38705    0.00131     0.38836
      H   34    0.10780      0.00000     0.39003    0.00216     0.39220
      H   35    0.09458      0.00000     0.40464    0.00078     0.40542
      H   36    0.10409      0.00000     0.39493    0.00098     0.39591
      H   37    0.10164      0.00000     0.39628    0.00208     0.39836
      H   38    0.10696      0.00000     0.38988    0.00315     0.39304
      H   39    0.10419      0.00000     0.39346    0.00235     0.39581
      H   40    0.22689      0.00000     0.27017    0.00294     0.27311
 =======================================================================
   * Total *   -0.00000     16.99350    47.78701    0.21949    65.00000

 Normal termination of Gaussian 16 at Fri Dec 11 13:52:56 2020.
