 Gaussian 16, Revision A.03,

 -----------------------------------------------------------
 # opt freq B3LYP/6-31G(d) empiricaldispersion=gd3bj scf=xqc
 -----------------------------------------------------------

 ------------------------------
 CID_68217198_JID_2853_neutraal
 ------------------------------
 Symbolic Z-matrix:
 Charge =  0 Multiplicity = 1

 SCF Done:  E(RB3LYP) =  -549.781818173     A.U. after   15 cycles
 SCF Done:  E(RB3LYP) =  -549.785522357     A.U. after   13 cycles
 SCF Done:  E(RB3LYP) =  -549.786202672     A.U. after   13 cycles
 SCF Done:  E(RB3LYP) =  -549.786184365     A.U. after   13 cycles
 SCF Done:  E(RB3LYP) =  -549.786753142     A.U. after   13 cycles
 SCF Done:  E(RB3LYP) =  -549.786878087     A.U. after   12 cycles
 SCF Done:  E(RB3LYP) =  -549.786891491     A.U. after   11 cycles
 SCF Done:  E(RB3LYP) =  -549.786899055     A.U. after   10 cycles
 SCF Done:  E(RB3LYP) =  -549.786902672     A.U. after   10 cycles
 SCF Done:  E(RB3LYP) =  -549.786904402     A.U. after    9 cycles
 SCF Done:  E(RB3LYP) =  -549.786906367     A.U. after    9 cycles
 SCF Done:  E(RB3LYP) =  -549.786907843     A.U. after    9 cycles
 SCF Done:  E(RB3LYP) =  -549.786907989     A.U. after    8 cycles
 Optimization completed.
    -- Stationary point found.
 Normal termination of Gaussian 16 at Wed Dec  9 18:17:41 2020.

 --------------------------------------------------------------------
 #N Geom=AllCheck Guess=TCheck SCRF=Check GenChk RB3LYP/6-31G(d) Freq
 --------------------------------------------------------------------

 Structure from the checkpoint file:  "JID_2853.chk"
 ------------------------------
 CID_68217198_JID_2853_neutraal
 ------------------------------
 Charge =  0 Multiplicity = 1

 SCF Done:  E(RB3LYP) =  -549.786907989     A.U. after    1 cycles

  Exact polarizability: 130.814  -2.319 110.668   8.745   6.477  63.670
 Approx polarizability: 196.118  -2.752 181.641  23.435  12.833 107.815

                      1                      2                      3
                      A                      A                      A
 Frequencies --     46.6306                57.2682                96.2190
 Red. masses --      3.9676                 4.4777                 2.1353
 Frc consts  --      0.0051                 0.0087                 0.0116
 IR Inten    --      1.9535                 1.8029                 2.8517

                      4                      5                      6
                      A                      A                      A
 Frequencies --    104.7380               147.6539               174.3120
 Red. masses --      1.5409                 4.9678                 4.8435
 Frc consts  --      0.0100                 0.0638                 0.0867
 IR Inten    --      0.9396                 6.5314                 1.8394

                      7                      8                      9
                      A                      A                      A
 Frequencies --    222.3755               336.4194               351.4641
 Red. masses --      4.9017                 2.9653                 5.6609
 Frc consts  --      0.1428                 0.1977                 0.4120
 IR Inten    --      4.5569                 1.9974                 5.8671

                     10                     11                     12
                      A                      A                      A
 Frequencies --    398.2179               413.1774               430.2550
 Red. masses --      3.1967                 2.1850                 1.5447
 Frc consts  --      0.2987                 0.2198                 0.1685
 IR Inten    --      0.4931                79.5132               156.2892

                     13                     14                     15
                      A                      A                      A
 Frequencies --    533.8283               566.5162               586.9099
 Red. masses --      3.1993                 3.0058                 1.5552
 Frc consts  --      0.5372                 0.5684                 0.3156
 IR Inten    --      6.6164                12.9064                39.9711

                     16                     17                     18
                      A                      A                      A
 Frequencies --    611.1056               640.0082               665.8141
 Red. masses --      2.8924                 7.1792                 4.1704
 Frc consts  --      0.6364                 1.7326                 1.0893
 IR Inten    --      5.7448                 6.0855                14.7911

                     19                     20                     21
                      A                      A                      A
 Frequencies --    719.0072               730.9278               776.0203
 Red. masses --      5.4041                 1.9932                 5.9767
 Frc consts  --      1.6461                 0.6274                 2.1206
 IR Inten    --     20.9905                22.1636                 2.9490

                     22                     23                     24
                      A                      A                      A
 Frequencies --    830.6567               903.1267               956.4722
 Red. masses --      1.7244                 3.5245                 1.3370
 Frc consts  --      0.7010                 1.6937                 0.7207
 IR Inten    --     19.3812                34.3566                 0.6820

                     25                     26                     27
                      A                      A                      A
 Frequencies --    982.2753              1000.1743              1001.1910
 Red. masses --      1.4143                 1.4541                 1.7386
 Frc consts  --      0.8040                 0.8570                 1.0268
 IR Inten    --      0.8707                12.4335                48.8683

                     28                     29                     30
                      A                      A                      A
 Frequencies --   1044.1792              1068.3703              1073.1963
 Red. masses --      4.1367                 1.8755                 2.9826
 Frc consts  --      2.6574                 1.2613                 2.0240
 IR Inten    --     16.3340                 8.1089                 0.4801

                     31                     32                     33
                      A                      A                      A
 Frequencies --   1139.5638              1153.5192              1177.7419
 Red. masses --      1.8933                 1.5143                 2.2645
 Frc consts  --      1.4486                 1.1872                 1.8506
 IR Inten    --     34.8809                 1.9570                 8.5139

                     34                     35                     36
                      A                      A                      A
 Frequencies --   1240.4072              1304.8137              1315.3424
 Red. masses --      1.4185                 5.2221                 4.4698
 Frc consts  --      1.2859                 5.2384                 4.5564
 IR Inten    --      7.5548               107.5895               139.5248

                     37                     38                     39
                      A                      A                      A
 Frequencies --   1377.8670              1410.9254              1419.5617
 Red. masses --      1.2924                 1.8973                 2.1111
 Frc consts  --      1.4456                 2.2253                 2.5065
 IR Inten    --      1.9484                96.3791                64.8664

                     40                     41                     42
                      A                      A                      A
 Frequencies --   1462.2113              1497.3950              1503.8300
 Red. masses --      2.2667                 1.0554                 1.0535
 Frc consts  --      2.8554                 1.3942                 1.4038
 IR Inten    --     27.8008                16.4212                 5.5077

                     43                     44                     45
                      A                      A                      A
 Frequencies --   1529.8560              1624.2283              1641.4768
 Red. masses --      2.2876                 5.1470                 1.7132
 Frc consts  --      3.1545                 8.0002                 2.7198
 IR Inten    --      6.5844                10.4794               141.7196

                     46                     47                     48
                      A                      A                      A
 Frequencies --   1652.2911              1690.8918              1768.5912
 Red. masses --      5.6501                 3.0928                10.5207
 Frc consts  --      9.0882                 5.2100                19.3887
 IR Inten    --     22.1637               628.9128               175.6438

                     49                     50                     51
                      A                      A                      A
 Frequencies --   3058.0675              3117.1762              3170.1311
 Red. masses --      1.0374                 1.0996                 1.1028
 Frc consts  --      5.7161                 6.2949                 6.5296
 IR Inten    --      5.0921                12.1195                14.2991

                     52                     53                     54
                      A                      A                      A
 Frequencies --   3179.1901              3183.5094              3208.2310
 Red. masses --      1.0882                 1.0916                 1.0894
 Frc consts  --      6.4805                 6.5182                 6.6062
 IR Inten    --     24.8675                 7.8722                10.0723

                     55                     56                     57
                      A                      A                      A
 Frequencies --   3223.1493              3579.0903              3700.5666
 Red. masses --      1.0969                 1.0458                 1.1033
 Frc consts  --      6.7140                 7.8933                 8.9016
 IR Inten    --     10.8333                51.2292                27.3528

 - Thermochemistry -
 -------------------
 Temperature   298.150 Kelvin.  Pressure   1.00000 Atm.
 Atom     1 has atomic number  6 and mass  12.00000

 Molecular mass:   163.07456 amu.
 Principal axes and moments of inertia in atomic units:
                           1         2         3
     Eigenvalues --  1113.199182608.665603276.08442
           X            0.99994   0.00731   0.00835
           Y           -0.00750   0.99970   0.02325
           Z           -0.00818  -0.02331   0.99969
 This molecule is an asymmetric top.
 Rotational symmetry number  1.
 Warning -- assumption of classical behavior for rotation
           may cause significant error
 Rotational temperatures (Kelvin)      0.07781     0.03320     0.02644
 Rotational constants (GHZ):           1.62122     0.69183     0.55088
 Zero-point vibrational energy     435429.5 (Joules/Mol)
                                  104.07016 (Kcal/Mol)
 Warning -- explicit consideration of  16 degrees of freedom as
           vibrations may cause significant error
 Vibrational temperatures:     67.09    82.40   138.44   150.69   212.44
          (Kelvin)            250.80   319.95   484.03   505.68   572.95
                              594.47   619.04   768.06   815.09   844.43
                              879.24   920.83   957.96  1034.49  1051.64
                             1116.52  1195.13  1299.40  1376.15  1413.28
                             1439.03  1440.49  1502.34  1537.15  1544.09
                             1639.58  1659.66  1694.51  1784.67  1877.34
                             1892.48  1982.44  2030.01  2042.43  2103.80
                             2154.42  2163.68  2201.12  2336.90  2361.72
                             2377.28  2432.82  2544.61  4399.88  4484.92
                             4561.11  4574.15  4580.36  4615.93  4637.39
                             5149.51  5324.29

 Zero-point correction=                           0.165846 (Hartree/Particle)
 Thermal correction to Energy=                    0.176985
 Thermal correction to Enthalpy=                  0.177929
 Thermal correction to Gibbs Free Energy=         0.127953
 Sum of electronic and zero-point Energies=           -549.621062
 Sum of electronic and thermal Energies=              -549.609923
 Sum of electronic and thermal Enthalpies=            -549.608979
 Sum of electronic and thermal Free Energies=         -549.658955

                     E (Thermal)             CV                S
                      KCal/Mol        Cal/Mol-Kelvin    Cal/Mol-Kelvin
 Total                  111.060             40.951            105.184
 Electronic               0.000              0.000              0.000
 Translational            0.889              2.981             41.176
 Rotational               0.889              2.981             30.632
 Vibrational            109.282             34.989             33.376
 Vibration     1          0.595              1.979              4.955
 Vibration     2          0.596              1.975              4.549
 Vibration     3          0.603              1.952              3.529
 Vibration     4          0.605              1.945              3.364
 Vibration     5          0.617              1.905              2.702
 Vibration     6          0.627              1.874              2.388
 Vibration     7          0.648              1.807              1.940
 Vibration     8          0.717              1.603              1.229
 Vibration     9          0.728              1.572              1.160
 Vibration    10          0.764              1.474              0.969
 Vibration    11          0.777              1.442              0.915
 Vibration    12          0.791              1.404              0.858
 Vibration    13          0.889              1.175              0.579
 Vibration    14          0.922              1.104              0.511
 Vibration    15          0.944              1.060              0.473
 Vibration    16          0.970              1.008              0.431

                           ! Non-Optimized Parameters !
 Normal termination of Gaussian 16 at Wed Dec  9 18:22:38 2020.

 ----------------------------------------------------------------------
 # B3LYP/6-311++G(d,p) empiricaldispersion=gd3bj scf=xqc pop=npa geom=c
 heck
 ----------------------------------------------------------------------

 --------------------------------------
 CID_68217198_JID_2853_Energie_neutraal
 --------------------------------------
 Structure from the checkpoint file:  "JID_2853.chk"
 Charge =  0 Multiplicity = 1

 SCF Done:  E(RB3LYP) =  -549.945667987     A.U. after   16 cycles
 Normal termination of Gaussian 16 at Wed Dec  9 18:25:21 2020.

 ----------------------------------------------------------------------
 # B3LYP/6-311++G(d,p) empiricaldispersion=gd3bj scf=xqc pop=npa geom=c
 heck
 ----------------------------------------------------------------------

 ------------------------------------
 CID_68217198_JID_2853_Energie_kation
 ------------------------------------
 Structure from the checkpoint file:  "JID_2853.chk"
 Charge =  1 Multiplicity = 2

 SCF Done:  E(UB3LYP) =  -549.624719546     A.U. after   32 cycles
 Normal termination of Gaussian 16 at Wed Dec  9 18:30:03 2020.
 Gaussian 16:  ES64L-G16RevA.03 25-Dec-2016

 ----------------------------------------------------------------------
 # B3LYP/6-311++G(d,p) empiricaldispersion=gd3bj scf=xqc pop=npa geom=c
 heck
 ----------------------------------------------------------------------

 -----------------------------------
 CID_68217198_JID_2853_Energie_anion
 -----------------------------------
 Structure from the checkpoint file:  "JID_2853.chk"
 Charge = -1 Multiplicity = 2

                         Standard orientation:
 ---------------------------------------------------------------------
 Center     Atomic      Atomic             Coordinates (Angstroms)
 Number     Number       Type             X           Y           Z
 ---------------------------------------------------------------------
      1          6           0       -3.328068   -1.144120   -0.322047
      2          6           0       -2.136810   -0.504542    0.365789
      3          8           0       -1.579117   -1.018166    1.323773
      4          7           0       -1.827869    0.754748   -0.151147
      5          6           0       -0.615311    1.202826   -0.199262
      6          6           0        0.635978    0.395811   -0.134452
      7          6           0        1.764309    0.873966    0.544587
      8          7           0        2.926549    0.217588    0.616807
      9          6           0        3.000242   -0.966345   -0.000752
     10          6           0        1.936045   -1.540204   -0.700940
     11          6           0        0.734947   -0.846761   -0.768410
     12          7           0       -0.417326    2.544776   -0.351981
     13          1           0       -3.487549   -2.149526    0.071104
     14          1           0       -3.173868   -1.181084   -1.406671
     15          1           0       -4.223151   -0.535784   -0.149923
     16          1           0        1.714782    1.822764    1.074797
     17          1           0        3.956644   -1.481368    0.065577
     18          1           0        2.052568   -2.505875   -1.182200
     19          1           0       -0.114436   -1.251969   -1.308786
     20          1           0       -1.247645    3.107295   -0.484104
     21          1           0        0.438115    2.877308   -0.772799
 ---------------------------------------------------------------------

 SCF Done:  E(UB3LYP) =  -549.954077621     A.U. after   32 cycles

 The electronic state is 2-A.
 Alpha  occ. eigenvalues --  -18.93471 -14.18725 -14.15809 -14.12600 -10.10885
 Alpha  occ. eigenvalues --  -10.08446 -10.05397 -10.04257 -10.03585 -10.03409
 Alpha  occ. eigenvalues --  -10.03156 -10.02464  -0.88070  -0.80924  -0.78906
 Alpha  occ. eigenvalues --   -0.71709  -0.65464  -0.61732  -0.59975  -0.51080
 Alpha  occ. eigenvalues --   -0.48195  -0.47062  -0.41441  -0.38144  -0.36809
 Alpha  occ. eigenvalues --   -0.33993  -0.32542  -0.32019  -0.30151  -0.29346
 Alpha  occ. eigenvalues --   -0.27913  -0.26155  -0.25518  -0.25449  -0.22752
 Alpha  occ. eigenvalues --   -0.22326  -0.21047  -0.14514  -0.13714  -0.12230
 Alpha  occ. eigenvalues --   -0.11178  -0.10126  -0.08866   0.05140
 Alpha virt. eigenvalues --    0.08622   0.09361   0.09770   0.11188   0.11527
 Alpha virt. eigenvalues --    0.11951   0.12780   0.13142   0.13393   0.13867
 Alpha virt. eigenvalues --    0.14702   0.16895   0.17194   0.17794   0.18260

  Beta  occ. eigenvalues --  -18.93344 -14.18624 -14.15817 -14.12494 -10.10775
  Beta  occ. eigenvalues --  -10.08028 -10.05323 -10.03900 -10.03586 -10.03490
  Beta  occ. eigenvalues --  -10.02946 -10.02293  -0.87799  -0.80475  -0.78653
  Beta  occ. eigenvalues --   -0.71377  -0.65090  -0.61300  -0.59843  -0.50327
  Beta  occ. eigenvalues --   -0.48009  -0.46671  -0.41200  -0.37895  -0.36619
  Beta  occ. eigenvalues --   -0.33710  -0.32248  -0.31858  -0.29915  -0.28986
  Beta  occ. eigenvalues --   -0.27699  -0.26000  -0.25286  -0.24659  -0.22227
  Beta  occ. eigenvalues --   -0.21611  -0.20321  -0.13766  -0.13176  -0.11630
  Beta  occ. eigenvalues --   -0.10456  -0.09354  -0.08479
  Beta virt. eigenvalues --    0.08546   0.09330   0.09713   0.11061   0.11371
  Beta virt. eigenvalues --    0.11736   0.11932   0.12734   0.13098   0.13598
  Beta virt. eigenvalues --    0.14416   0.15377   0.16884   0.17196   0.17817

 Mulliken charges and spin densities:
               1          2
     1  C   -0.376041  -0.048945
     2  C   -0.192071   0.016078
     3  O   -0.299441   0.047430
     4  N   -0.130670   0.057743
     5  C   -0.758397   0.215402
     6  C    1.180602  -0.065766
     7  C   -0.549550  -0.041687
     8  N   -0.072417  -0.013523
     9  C   -0.458237   0.278684
    10  C   -0.090010  -0.081307
    11  C   -0.186890   0.423173
    12  N   -0.338678   0.082160
    13  H    0.120423   0.004859
    14  H    0.117719   0.019641
    15  H    0.110292   0.037509
    16  H    0.176709  -0.013382
    17  H    0.109385  -0.020285
    18  H    0.127455   0.002611
    19  H    0.120674   0.015861
    20  H    0.229259   0.011941
    21  H    0.159882   0.071803
 Sum of Mulliken charges =  -1.00000   1.00000

 Dipole moment (field-independent basis, Debye):
    X=             -1.0120    Y=              0.7785    Z=             -3.1401  Tot=              3.3897
 Quadrupole moment (field-independent basis, Debye-Ang):
   XX=           -105.2602   YY=            -77.7676   ZZ=            -84.5389
   XY=             -1.2490   XZ=             -0.9685   YZ=              3.4546

 Summary of Natural Population Analysis:

                                       Natural Population
                Natural  -----------------------------------------------
    Atom  No    Charge         Core      Valence    Rydberg      Total
 -----------------------------------------------------------------------
      C    1   -0.32703      0.99962     2.32195    0.00546     3.32703
      C    2    0.34452      0.99972     1.63173    0.02404     2.65548
      O    3   -0.30547      0.99987     3.29907    0.00653     4.30547
      N    4   -0.31836      0.99959     2.80770    0.01107     3.81836
      C    5    0.30872      0.99957     1.67340    0.01832     2.69128
      C    6   -0.04695      0.99947     2.03479    0.01269     3.04695
      C    7    0.04456      0.99955     1.94270    0.01319     2.95544
      N    8   -0.25020      0.99972     2.73847    0.01202     3.75020
      C    9    0.08315      0.99961     1.90246    0.01478     2.91685
      C   10   -0.14770      0.99957     2.13966    0.00848     3.14770
      C   11   -0.02535      0.99953     2.01797    0.00785     3.02535
      N   12   -0.38171      0.99970     2.87379    0.00821     3.88171
      H   13    0.09776      0.00000     0.40128    0.00096     0.40224
      H   14    0.10134      0.00000     0.39741    0.00125     0.39866
      H   15    0.10371      0.00000     0.39497    0.00133     0.39629
      H   16    0.08405      0.00000     0.41420    0.00175     0.41595
      H   17    0.07390      0.00000     0.42480    0.00130     0.42610
      H   18    0.09307      0.00000     0.40582    0.00111     0.40693
      H   19    0.09497      0.00000     0.40349    0.00155     0.40503
      H   20    0.18596      0.00000     0.31160    0.00244     0.31404
      H   21    0.18708      0.00000     0.31124    0.00168     0.31292
 =======================================================================
   * Total *    0.00000     11.99552    30.84849    0.15599    43.00000

 Normal termination of Gaussian 16 at Wed Dec  9 18:34:14 2020.
