 Gaussian 16, Revision A.03,

 -----------------------------------------------------------
 # opt freq B3LYP/6-31G(d) empiricaldispersion=gd3bj scf=xqc
 -----------------------------------------------------------

 -------------------------------
 CID_136998917_JID_7250_neutraal
 -------------------------------
 Symbolic Z-matrix:
 Charge =  0 Multiplicity = 1

 SCF Done:  E(RB3LYP) =  -1055.71659821     A.U. after   14 cycles
 SCF Done:  E(RB3LYP) =  -1055.72322719     A.U. after   12 cycles
 SCF Done:  E(RB3LYP) =  -1055.72405260     A.U. after   11 cycles
 SCF Done:  E(RB3LYP) =  -1055.72428042     A.U. after   11 cycles
 SCF Done:  E(RB3LYP) =  -1055.72435282     A.U. after   10 cycles
 SCF Done:  E(RB3LYP) =  -1055.72448993     A.U. after   12 cycles
 SCF Done:  E(RB3LYP) =  -1055.72457852     A.U. after   12 cycles
 SCF Done:  E(RB3LYP) =  -1055.72460438     A.U. after   11 cycles
 SCF Done:  E(RB3LYP) =  -1055.72464397     A.U. after   12 cycles
 SCF Done:  E(RB3LYP) =  -1055.72484114     A.U. after   11 cycles
 SCF Done:  E(RB3LYP) =  -1055.72607591     A.U. after    9 cycles
 SCF Done:  E(RB3LYP) =  -1055.72608906     A.U. after   10 cycles
 SCF Done:  E(RB3LYP) =  -1055.72609221     A.U. after    9 cycles
 SCF Done:  E(RB3LYP) =  -1055.72609316     A.U. after    9 cycles
 SCF Done:  E(RB3LYP) =  -1055.72609325     A.U. after    7 cycles
 SCF Done:  E(RB3LYP) =  -1055.72609336     A.U. after    6 cycles
 Optimization completed.
    -- Stationary point found.
 Normal termination of Gaussian 16 at Fri Dec 11 12:30:07 2020.

 --------------------------------------------------------------------
 #N Geom=AllCheck Guess=TCheck SCRF=Check GenChk RB3LYP/6-31G(d) Freq
 --------------------------------------------------------------------

 Structure from the checkpoint file:  "JID_7250.chk"
 -------------------------------
 CID_136998917_JID_7250_neutraal
 -------------------------------
 Charge =  0 Multiplicity = 1

 SCF Done:  E(RB3LYP) =  -1055.72609336     A.U. after    1 cycles

  Exact polarizability: 224.648  11.851 146.794  -7.721   0.710 149.171
 Approx polarizability: 265.618  18.664 220.890 -22.968   8.018 253.038

                      1                      2                      3
                      A                      A                      A
 Frequencies --     21.5879                30.8548                33.2995
 Red. masses --      2.7435                 4.4267                 3.4398
 Frc consts  --      0.0008                 0.0025                 0.0022
 IR Inten    --      0.0341                 0.4302                 0.0981

                      4                      5                      6
                      A                      A                      A
 Frequencies --     40.4360                59.4561                84.0271
 Red. masses --      3.0256                 3.0656                 3.6382
 Frc consts  --      0.0029                 0.0064                 0.0151
 IR Inten    --      0.1632                 0.3640                 0.4490

                      7                      8                      9
                      A                      A                      A
 Frequencies --    136.4327               180.6273               200.5349
 Red. masses --      4.6918                 2.8729                 3.2932
 Frc consts  --      0.0515                 0.0552                 0.0780
 IR Inten    --      0.7682                 0.6597                 2.0525

                     10                     11                     12
                      A                      A                      A
 Frequencies --    222.7473               253.9888               263.1027
 Red. masses --      2.2238                 1.8290                 1.1381
 Frc consts  --      0.0650                 0.0695                 0.0464
 IR Inten    --      0.3340                 0.8502                 0.1073

                     13                     14                     15
                      A                      A                      A
 Frequencies --    284.4415               308.4279               332.9221
 Red. masses --      2.5968                 2.4463                 2.5450
 Frc consts  --      0.1238                 0.1371                 0.1662
 IR Inten    --      1.9307                 1.4040                 1.1726

                     16                     17                     18
                      A                      A                      A
 Frequencies --    357.2462               372.8606               413.5680
 Red. masses --      3.4264                 2.1302                 2.8926
 Frc consts  --      0.2576                 0.1745                 0.2915
 IR Inten    --      0.5783                 1.5476                 3.5932

                     19                     20                     21
                      A                      A                      A
 Frequencies --    435.7790               475.6582               493.6769
 Red. masses --      2.6672                 2.5072                 3.8671
 Frc consts  --      0.2984                 0.3342                 0.5553
 IR Inten    --      5.0511                 1.9066                 3.6525

                     22                     23                     24
                      A                      A                      A
 Frequencies --    522.0970               556.1145               572.9899
 Red. masses --      2.9863                 2.2126                 2.0885
 Frc consts  --      0.4796                 0.4032                 0.4040
 IR Inten    --     24.4653                 3.9797                 8.6065

                     25                     26                     27
                      A                      A                      A
 Frequencies --    578.6906               625.6620               639.6392
 Red. masses --      3.0447                 3.3522                 6.1059
 Frc consts  --      0.6007                 0.7731                 1.4719
 IR Inten    --      1.8286                12.0886                31.9433

                     28                     29                     30
                      A                      A                      A
 Frequencies --    663.0874               696.8949               749.3178
 Red. masses --      2.9868                 2.1727                 3.7677
 Frc consts  --      0.7737                 0.6217                 1.2464
 IR Inten    --     22.4703                54.2922                 4.1659

                     31                     32                     33
                      A                      A                      A
 Frequencies --    769.5718               788.5932               843.7378
 Red. masses --      2.2723                 2.7941                 1.8445
 Frc consts  --      0.7929                 1.0238                 0.7736
 IR Inten    --      0.4649                 6.6387                 1.4432

                     34                     35                     36
                      A                      A                      A
 Frequencies --    847.3553               879.3797               887.5497
 Red. masses --      1.8353                 2.1538                 1.5256
 Frc consts  --      0.7764                 0.9813                 0.7081
 IR Inten    --      0.7319                 1.9481                 1.1202

                     37                     38                     39
                      A                      A                      A
 Frequencies --    902.7217               904.8419               920.3864
 Red. masses --      1.6047                 2.2319                 2.3041
 Frc consts  --      0.7705                 1.0767                 1.1500
 IR Inten    --      3.0211                 0.7938                 0.2295

                     40                     41                     42
                      A                      A                      A
 Frequencies --    934.0581               941.5435               963.7884
 Red. masses --      2.0409                 2.0389                 1.4606
 Frc consts  --      1.0491                 1.0649                 0.7994
 IR Inten    --      5.8267                 0.7051                 1.4895

                     43                     44                     45
                      A                      A                      A
 Frequencies --    979.7327              1007.3740              1018.2727
 Red. masses --      1.7791                 2.4864                 1.9270
 Frc consts  --      1.0062                 1.4866                 1.1772
 IR Inten    --      7.8892                 2.6748                 4.8159

                     46                     47                     48
                      A                      A                      A
 Frequencies --   1021.6322              1034.5101              1041.7781
 Red. masses --      1.4793                 1.5169                 1.7697
 Frc consts  --      0.9097                 0.9565                 1.1316
 IR Inten    --      2.6886                 5.0069                 6.8302

                     49                     50                     51
                      A                      A                      A
 Frequencies --   1056.9985              1072.1795              1081.7876
 Red. masses --      1.5464                 1.7722                 1.9111
 Frc consts  --      1.0179                 1.2003                 1.3177
 IR Inten    --      8.3164                18.1887                 3.6923

                     52                     53                     54
                      A                      A                      A
 Frequencies --   1089.7584              1099.3424              1122.0982
 Red. masses --      1.8044                 2.0003                 2.6842
 Frc consts  --      1.2625                 1.4243                 1.9913
 IR Inten    --     20.7353                 1.2974                 4.0620

                     55                     56                     57
                      A                      A                      A
 Frequencies --   1131.9486              1177.0315              1192.8934
 Red. masses --      2.7222                 1.9937                 1.5457
 Frc consts  --      2.0551                 1.6274                 1.2960
 IR Inten    --      5.7337                 6.5312                 6.6603

                     58                     59                     60
                      A                      A                      A
 Frequencies --   1208.1379              1217.2660              1227.6136
 Red. masses --      1.5643                 1.6077                 1.6818
 Frc consts  --      1.3452                 1.4035                 1.4933
 IR Inten    --      2.8304                 2.2180                 4.4665

                     61                     62                     63
                      A                      A                      A
 Frequencies --   1242.0223              1259.3184              1266.0977
 Red. masses --      2.4519                 1.5315                 1.4016
 Frc consts  --      2.2285                 1.4310                 1.3237
 IR Inten    --     48.6828                13.6922                17.6206

                     64                     65                     66
                      A                      A                      A
 Frequencies --   1274.0496              1278.0150              1302.2312
 Red. masses --      1.2932                 1.2749                 1.8066
 Frc consts  --      1.2367                 1.2269                 1.8051
 IR Inten    --      3.4372                 2.0210                14.6457

                     67                     68                     69
                      A                      A                      A
 Frequencies --   1306.4546              1312.8940              1331.9629
 Red. masses --      1.4411                 1.3454                 1.1981
 Frc consts  --      1.4492                 1.3664                 1.2524
 IR Inten    --     27.3644                 6.2383                 4.1085

                     70                     71                     72
                      A                      A                      A
 Frequencies --   1341.0560              1344.9749              1355.9316
 Red. masses --      1.4865                 1.3853                 1.2980
 Frc consts  --      1.5751                 1.4764                 1.4061
 IR Inten    --      6.1904                 5.2274                 3.2124

                     73                     74                     75
                      A                      A                      A
 Frequencies --   1361.1722              1365.2140              1366.4156
 Red. masses --      1.2534                 1.2552                 1.4187
 Frc consts  --      1.3683                 1.3784                 1.5606
 IR Inten    --      0.9553                 2.1593                 5.4016

                     76                     77                     78
                      A                      A                      A
 Frequencies --   1371.2442              1379.2601              1403.5763
 Red. masses --      1.5001                 1.3927                 1.4581
 Frc consts  --      1.6619                 1.5610                 1.6924
 IR Inten    --      0.0560                 2.3301                40.5336

                     79                     80                     81
                      A                      A                      A
 Frequencies --   1410.4372              1434.6742              1439.9262
 Red. masses --      1.4974                 1.2410                 1.6910
 Frc consts  --      1.7550                 1.5049                 2.0658
 IR Inten    --      1.2426                 9.7140                31.2043

                     82                     83                     84
                      A                      A                      A
 Frequencies --   1507.4701              1516.1780              1518.1807
 Red. masses --      1.0957                 1.0844                 1.0884
 Frc consts  --      1.4671                 1.4688                 1.4781
 IR Inten    --      7.0214                 0.6590                 1.4112

                     85                     86                     87
                      A                      A                      A
 Frequencies --   1519.7298              1521.9395              1522.9078
 Red. masses --      1.0800                 1.0874                 1.0874
 Frc consts  --      1.4696                 1.4840                 1.4858
 IR Inten    --      2.3063                 4.7330                 5.8104

                     88                     89                     90
                      A                      A                      A
 Frequencies --   1525.7404              1528.1533              1534.6109
 Red. masses --      1.0760                 1.0769                 1.0499
 Frc consts  --      1.4759                 1.4817                 1.4568
 IR Inten    --     14.7015                 7.5907                 5.5133

                     91                     92                     93
                      A                      A                      A
 Frequencies --   1540.0587              1542.7649              1762.5758
 Red. masses --      1.1065                 1.1071                 9.6911
 Frc consts  --      1.5462                 1.5525                17.7385
 IR Inten    --      0.6949                 1.3384               619.8501

                     94                     95                     96
                      A                      A                      A
 Frequencies --   2964.7957              3022.1175              3030.9399
 Red. masses --      1.0681                 1.0743                 1.0751
 Frc consts  --      5.5316                 5.7810                 5.8188
 IR Inten    --     27.6486                 7.1135                29.9406

                     97                     98                     99
                      A                      A                      A
 Frequencies --   3034.0832              3039.3243              3041.4141
 Red. masses --      1.0433                 1.0715                 1.0692
 Frc consts  --      5.6588                 5.8317                 5.8274
 IR Inten    --     20.0600                17.6747                60.9370

                    100                    101                    102
                      A                      A                      A
 Frequencies --   3042.5113              3047.2128              3047.3505
 Red. masses --      1.0700                 1.0856                 1.0681
 Frc consts  --      5.8356                 5.9390                 5.8442
 IR Inten    --     28.2840                20.7186                23.1185

                    103                    104                    105
                      A                      A                      A
 Frequencies --   3053.7242              3056.5452              3058.4462
 Red. masses --      1.0651                 1.0767                 1.0658
 Frc consts  --      5.8520                 5.9268                 5.8741
 IR Inten    --     28.7288                34.9511                20.2700

                    106                    107                    108
                      A                      A                      A
 Frequencies --   3087.8985              3088.1143              3090.7762
 Red. masses --      1.0763                 1.0799                 1.0949
 Frc consts  --      6.0466                 6.0679                 6.1625
 IR Inten    --     28.2516                34.7637                51.3660

                    109                    110                    111
                      A                      A                      A
 Frequencies --   3096.0536              3100.8533              3105.3618
 Red. masses --      1.1011                 1.1042                 1.0933
 Frc consts  --      6.2188                 6.2552                 6.2117
 IR Inten    --     42.8454                82.4071                41.7432

                    112                    113                    114
                      A                      A                      A
 Frequencies --   3107.5936              3115.8674              3119.1364
 Red. masses --      1.0978                 1.0989                 1.1022
 Frc consts  --      6.2466                 6.2861                 6.3180
 IR Inten    --     37.4232                11.8074                38.9266

                    115                    116                    117
                      A                      A                      A
 Frequencies --   3125.5450              3145.7703              3566.5143
 Red. masses --      1.1004                 1.1088                 1.0754
 Frc consts  --      6.3337                 6.4648                 8.0593
 IR Inten    --     27.3728                 8.5162                11.5715

 - Thermochemistry -
 -------------------
 Temperature   298.150 Kelvin.  Pressure   1.00000 Atm.
 Atom     1 has atomic number  6 and mass  12.00000

 Molecular mass:   252.16602 amu.
 Principal axes and moments of inertia in atomic units:
                           1         2         3
     Eigenvalues --  1549.897369749.970539988.32449
           X            1.00000  -0.00032   0.00150
           Y            0.00041   0.99829  -0.05849
           Z           -0.00148   0.05849   0.99829
 This molecule is an asymmetric top.
 Rotational symmetry number  1.
 Warning -- assumption of classical behavior for rotation
           may cause significant error
 Rotational temperatures (Kelvin)      0.05588     0.00888     0.00867
 Rotational constants (GHZ):           1.16443     0.18510     0.18069
 Zero-point vibrational energy     968049.5 (Joules/Mol)
                                  231.36938 (Kcal/Mol)
 Warning -- explicit consideration of  25 degrees of freedom as
           vibrations may cause significant error
 Vibrational temperatures:     31.06    44.39    47.91    58.18    85.54
          (Kelvin)            120.90   196.30   259.88   288.53   320.48
                              365.43   378.55   409.25   443.76   479.00
                              514.00   536.46   595.03   626.99   684.37
                              710.29   751.18   800.12   824.40   832.61
                              900.19   920.30   954.03  1002.68  1078.10
                             1107.24  1134.61  1213.95  1219.16  1265.23
                             1276.99  1298.82  1301.87  1324.23  1343.90
                             1354.67  1386.68  1409.62  1449.39  1465.07
                             1469.90  1488.43  1498.89  1520.79  1542.63
                             1556.45  1567.92  1581.71  1614.45  1628.62
                             1693.49  1716.31  1738.24  1751.37  1766.26
                             1786.99  1811.88  1821.63  1833.07  1838.78
                             1873.62  1879.70  1888.96  1916.40  1929.48
                             1935.12  1950.88  1958.42  1964.24  1965.97
                             1972.91  1984.45  2019.43  2029.30  2064.18
                             2071.73  2168.91  2181.44  2184.32  2186.55
                             2189.73  2191.12  2195.20  2198.67  2207.96
                             2215.80  2219.69  2535.95  4265.68  4348.15
                             4360.85  4365.37  4372.91  4375.92  4377.50
                             4384.26  4384.46  4393.63  4397.69  4400.42
                             4442.80  4443.11  4446.94  4454.53  4461.44
                             4467.92  4471.13  4483.04  4487.74  4496.96
                             4526.06  5131.42

 Zero-point correction=                           0.368711 (Hartree/Particle)
 Thermal correction to Energy=                    0.385677
 Thermal correction to Enthalpy=                  0.386621
 Thermal correction to Gibbs Free Energy=         0.321635
 Sum of electronic and zero-point Energies=          -1055.357383
 Sum of electronic and thermal Energies=             -1055.340416
 Sum of electronic and thermal Enthalpies=           -1055.339472
 Sum of electronic and thermal Free Energies=        -1055.404458

                     E (Thermal)             CV                S
                      KCal/Mol        Cal/Mol-Kelvin    Cal/Mol-Kelvin
 Total                  242.016             66.185            136.776
 Electronic               0.000              0.000              0.000
 Translational            0.889              2.981             42.475
 Rotational               0.889              2.981             33.378
 Vibrational            240.239             60.224             60.922
 Vibration     1          0.593              1.985              6.483
 Vibration     2          0.594              1.984              5.774
 Vibration     3          0.594              1.983              5.622
 Vibration     4          0.594              1.981              5.238
 Vibration     5          0.597              1.974              4.475
 Vibration     6          0.601              1.960              3.795
 Vibration     7          0.614              1.917              2.853
 Vibration     8          0.630              1.866              2.322
 Vibration     9          0.638              1.839              2.128
 Vibration    10          0.648              1.806              1.937
 Vibration    11          0.665              1.756              1.703
 Vibration    12          0.670              1.740              1.641
 Vibration    13          0.683              1.703              1.507
 Vibration    14          0.698              1.658              1.371
 Vibration    15          0.715              1.610              1.246
 Vibration    16          0.732              1.560              1.134
 Vibration    17          0.744              1.528              1.068
 Vibration    18          0.777              1.441              0.914
 Vibration    19          0.796              1.392              0.840
 Vibration    20          0.832              1.304              0.722
 Vibration    21          0.849              1.264              0.674
 Vibration    22          0.877              1.201              0.605
 Vibration    23          0.912              1.126              0.532
 Vibration    24          0.929              1.090              0.499
 Vibration    25          0.935              1.077              0.488

                           ! Non-Optimized Parameters !
 Normal termination of Gaussian 16 at Fri Dec 11 12:49:50 2020.

 ----------------------------------------------------------------------
 # B3LYP/6-311++G(d,p) empiricaldispersion=gd3bj scf=xqc pop=npa geom=c
 heck
 ----------------------------------------------------------------------

 ---------------------------------------
 CID_136998917_JID_7250_Energie_neutraal
 ---------------------------------------
 Structure from the checkpoint file:  "JID_7250.chk"
 Charge =  0 Multiplicity = 1

 SCF Done:  E(RB3LYP) =  -1055.92949664     A.U. after   15 cycles
 Normal termination of Gaussian 16 at Fri Dec 11 12:59:42 2020.

 ----------------------------------------------------------------------
 # B3LYP/6-311++G(d,p) empiricaldispersion=gd3bj scf=xqc pop=npa geom=c
 heck
 ----------------------------------------------------------------------

 -------------------------------------
 CID_136998917_JID_7250_Energie_kation
 -------------------------------------
 Structure from the checkpoint file:  "JID_7250.chk"
 Charge =  1 Multiplicity = 2

 SCF Done:  E(UB3LYP) =  -1055.64162735     A.U. after   27 cycles
 Normal termination of Gaussian 16 at Fri Dec 11 13:24:01 2020.
 Gaussian 16:  ES64L-G16RevA.03 25-Dec-2016

 ----------------------------------------------------------------------
 # B3LYP/6-311++G(d,p) empiricaldispersion=gd3bj scf=xqc pop=npa geom=c
 heck
 ----------------------------------------------------------------------

 ------------------------------------
 CID_136998917_JID_7250_Energie_anion
 ------------------------------------
 Structure from the checkpoint file:  "JID_7250.chk"
 Charge = -1 Multiplicity = 2

                         Standard orientation:
 ---------------------------------------------------------------------
 Center     Atomic      Atomic             Coordinates (Angstroms)
 Number     Number       Type             X           Y           Z
 ---------------------------------------------------------------------
      1          6           0       -2.517976    2.133373    0.337143
      2          6           0       -2.914094    0.794716   -0.290738
      3          6           0       -4.310513    0.831803   -0.979191
      4          6           0       -5.233290   -0.017275   -0.086897
      5          6           0       -4.296654   -1.114672    0.432301
      6          6           0       -3.002970   -0.349892    0.765403
      7          6           0       -1.761492   -1.245471    0.810490
      8          7           0       -0.584941   -0.498952    1.208575
      9          6           0        0.361827   -0.301818    0.392015
     10          7           0        1.452806    0.507677    0.678217
     11          6           0        2.665325    0.226224   -0.089592
     12          6           0        3.672887    1.418175   -0.063849
     13          6           0        4.969809    0.877020    0.567008
     14          6           0        4.945122   -0.618458    0.214322
     15          6           0        3.476604   -0.989762    0.448211
     16          6           0        2.121299   -0.024766   -1.505769
     17         16           0        0.554869   -0.960469   -1.297591
     18          1           0       -2.410565    2.914518   -0.425221
     19          1           0       -3.280495    2.467659    1.053049
     20          1           0       -1.568917    2.042826    0.875042
     21          1           0       -2.151389    0.531741   -1.033893
     22          1           0       -4.677890    1.855299   -1.115085
     23          1           0       -4.250745    0.379171   -1.976614
     24          1           0       -6.109878   -0.404712   -0.617626
     25          1           0       -5.599996    0.581790    0.757358
     26          1           0       -4.104413   -1.845462   -0.366968
     27          1           0       -4.697192   -1.666583    1.290138
     28          1           0       -3.115139    0.106343    1.758732
     29          1           0       -1.922839   -2.047504    1.543655
     30          1           0       -1.640444   -1.733326   -0.173009
     31          1           0        1.564877    0.669291    1.673650
     32          1           0        3.868164    1.754386   -1.088987
     33          1           0        3.247766    2.271820    0.471485
     34          1           0        4.940128    0.993906    1.658155
     35          1           0        5.863687    1.396843    0.208384
     36          1           0        5.640804   -1.218384    0.809656
     37          1           0        5.211830   -0.759467   -0.842058
     38          1           0        3.290716   -1.084412    1.525675
     39          1           0        3.165434   -1.930473   -0.015670
     40          1           0        1.907298    0.921488   -2.009624
     41          1           0        2.820941   -0.605515   -2.111449
 ---------------------------------------------------------------------

 SCF Done:  E(UB3LYP) =  -1055.91733024     A.U. after   32 cycles

 The electronic state is 2-A.
 Alpha  occ. eigenvalues --  -88.75478 -14.23086 -14.18997 -10.16551 -10.12749
 Alpha  occ. eigenvalues --  -10.10678 -10.10204 -10.08296 -10.08084 -10.07906
 Alpha  occ. eigenvalues --  -10.07786 -10.07717 -10.07031 -10.06820 -10.06703
 Alpha  occ. eigenvalues --  -10.06625 -10.06310  -7.84113  -5.80462  -5.80142
 Alpha  occ. eigenvalues --   -5.79528  -0.87678  -0.80655  -0.75555  -0.73310
 Alpha  occ. eigenvalues --   -0.69236  -0.65746  -0.65567  -0.62218  -0.61499
 Alpha  occ. eigenvalues --   -0.57941  -0.54732  -0.54306  -0.48831  -0.47999
 Alpha  occ. eigenvalues --   -0.47726  -0.47248  -0.45311  -0.41209  -0.39663
 Alpha  occ. eigenvalues --   -0.39161  -0.38545  -0.37737  -0.35134  -0.33989
 Alpha  occ. eigenvalues --   -0.33426  -0.33262  -0.32307  -0.31857  -0.31254
 Alpha  occ. eigenvalues --   -0.30156  -0.28893  -0.28422  -0.27671  -0.27003
 Alpha  occ. eigenvalues --   -0.25516  -0.25209  -0.24886  -0.24370  -0.24202
 Alpha  occ. eigenvalues --   -0.23653  -0.23320  -0.23254  -0.22805  -0.22265
 Alpha  occ. eigenvalues --   -0.21432  -0.15870  -0.14543  -0.13137   0.04218
 Alpha virt. eigenvalues --    0.05551   0.06991   0.07101   0.07486   0.07603
 Alpha virt. eigenvalues --    0.07971   0.08559   0.09532   0.09765   0.09813
 Alpha virt. eigenvalues --    0.10287   0.10454   0.10891   0.10921   0.11145

  Beta  occ. eigenvalues --  -88.75469 -14.23070 -14.18997 -10.16540 -10.12749
  Beta  occ. eigenvalues --  -10.10636 -10.10203 -10.08288 -10.08080 -10.07905
  Beta  occ. eigenvalues --  -10.07784 -10.07710 -10.07004 -10.06800 -10.06672
  Beta  occ. eigenvalues --  -10.06593 -10.06301  -7.84104  -5.80436  -5.80137
  Beta  occ. eigenvalues --   -5.79523  -0.87653  -0.80647  -0.75547  -0.73276
  Beta  occ. eigenvalues --   -0.69179  -0.65732  -0.65555  -0.62173  -0.61448
  Beta  occ. eigenvalues --   -0.57923  -0.54712  -0.54223  -0.48810  -0.47895
  Beta  occ. eigenvalues --   -0.47654  -0.47215  -0.45295  -0.41169  -0.39638
  Beta  occ. eigenvalues --   -0.39147  -0.38521  -0.37697  -0.35101  -0.33966
  Beta  occ. eigenvalues --   -0.33407  -0.33234  -0.32251  -0.31822  -0.31236
  Beta  occ. eigenvalues --   -0.30139  -0.28854  -0.28397  -0.27635  -0.26964
  Beta  occ. eigenvalues --   -0.25499  -0.25189  -0.24836  -0.24325  -0.24189
  Beta  occ. eigenvalues --   -0.23622  -0.23283  -0.23231  -0.22789  -0.22214
  Beta  occ. eigenvalues --   -0.21407  -0.15853  -0.14515  -0.13124
  Beta virt. eigenvalues --    0.05652   0.06681   0.07161   0.07251   0.07952
  Beta virt. eigenvalues --    0.08259   0.08553   0.08888   0.09744   0.09841
  Beta virt. eigenvalues --    0.09924   0.10423   0.10558   0.10949   0.11232

 Mulliken charges and spin densities:
               1          2
     1  C   -0.185453  -0.605090
     2  C    0.162622   0.382805
     3  C   -0.333976  -0.202930
     4  C   -0.061763  -0.382787
     5  C   -0.480593   0.104544
     6  C    0.252282   0.066805
     7  C   -0.403124  -0.265970
     8  N    0.102162  -0.016877
     9  C   -0.891180   0.327260
    10  N    0.154755  -0.018193
    11  C   -1.522227   2.196966
    12  C    0.311859  -0.738759
    13  C    0.081286  -0.337959
    14  C    0.806510  -1.376697
    15  C   -0.006336  -0.166221
    16  C    1.377684  -2.364875
    17  S    0.577896  -0.421185
    18  H   -0.015812   0.148487
    19  H    0.071137   0.058219
    20  H    0.187555  -0.018107
    21  H    0.038209   0.033800
    22  H    0.057943   0.098346
    23  H    0.026875   0.112224
    24  H   -0.006943   0.160423
    25  H    0.062352   0.062002
    26  H    0.094002   0.041240
    27  H    0.080444   0.056262
    28  H    0.154239   0.064913
    29  H    0.098499   0.070161
    30  H    0.100616  -0.010260
    31  H    0.005672   0.294925
    32  H   -0.244699   0.386942
    33  H   -0.173424   0.344381
    34  H   -0.028881   0.157182
    35  H   -0.481215   0.661830
    36  H   -0.264623   0.437055
    37  H   -0.067646   0.198937
    38  H   -0.139187   0.305428
    39  H   -0.064279   0.239076
    40  H   -0.061586   0.307230
    41  H   -0.371653   0.608467
 Sum of Mulliken charges =  -1.00000   1.00000

 Dipole moment (field-independent basis, Debye):
    X=             -8.4899    Y=             -1.5197    Z=              0.8368  Tot=              8.6653
 Quadrupole moment (field-independent basis, Debye-Ang):
   XX=           -225.4030   YY=           -150.2227   ZZ=           -154.1939
   XY=             -2.2169   XZ=              0.9150   YZ=              0.0748

 Summary of Natural Population Analysis:

                                       Natural Population
                Natural  -----------------------------------------------
    Atom  No    Charge         Core      Valence    Rydberg      Total
 -----------------------------------------------------------------------
      C    1   -0.28213      0.99965     2.27729    0.00520     3.28213
      C    2   -0.12091      0.99960     2.10794    0.01337     3.12091
      C    3   -0.18790      0.99963     2.18104    0.00722     3.18790
      C    4   -0.19037      0.99964     2.18357    0.00715     3.19037
      C    5   -0.18871      0.99962     2.18201    0.00709     3.18871
      C    6   -0.10723      0.99957     2.09803    0.00962     3.10723
      C    7   -0.09020      0.99957     2.07773    0.01291     3.09020
      N    8   -0.29650      0.99961     2.77790    0.01899     3.79650
      C    9    0.19884      0.99955     1.78459    0.01703     2.80116
      N   10   -0.33547      0.99964     2.81875    0.01708     3.83547
      C   11    0.05741      0.99955     1.92591    0.01713     2.94259
      C   12   -0.19011      0.99959     2.18038    0.01014     3.19011
      C   13   -0.19026      0.99964     2.18265    0.00797     3.19026
      C   14   -0.19203      0.99964     2.18385    0.00854     3.19203
      C   15   -0.19738      0.99959     2.18809    0.00970     3.19738
      C   16   -0.23956      0.99952     2.22652    0.01352     3.23956
      S   17    0.08496      4.99957     2.89988    0.01558     7.91504
      H   18    0.09591      0.00000     0.40315    0.00094     0.40409
      H   19    0.09110      0.00000     0.40785    0.00105     0.40890
      H   20    0.10900      0.00000     0.38974    0.00125     0.39100
      H   21    0.10240      0.00000     0.39535    0.00225     0.39760
      H   22    0.09722      0.00000     0.40171    0.00106     0.40278
      H   23    0.09581      0.00000     0.40299    0.00120     0.40419
      H   24    0.09642      0.00000     0.40234    0.00124     0.40358
      H   25    0.09226      0.00000     0.40636    0.00138     0.40774
      H   26    0.09299      0.00000     0.40560    0.00140     0.40701
      H   27    0.09786      0.00000     0.40106    0.00108     0.40214
      H   28    0.09603      0.00000     0.40213    0.00184     0.40397
      H   29    0.09281      0.00000     0.40595    0.00124     0.40719
      H   30    0.08466      0.00000     0.41345    0.00189     0.41534
      H   31    0.19561      0.00000     0.30053    0.00386     0.30439
      H   32    0.10204      0.00000     0.39608    0.00188     0.39796
      H   33    0.10758      0.00000     0.39082    0.00160     0.39242
      H   34    0.09463      0.00000     0.40361    0.00176     0.40537
      H   35    0.10239      0.00000     0.39611    0.00151     0.39761
      H   36    0.10179      0.00000     0.39695    0.00126     0.39821
      H   37    0.09555      0.00000     0.40259    0.00186     0.40445
      H   38    0.09955      0.00000     0.39883    0.00162     0.40045
      H   39    0.10624      0.00000     0.39246    0.00130     0.39376
      H   40    0.10562      0.00000     0.39267    0.00171     0.39438
      H   41    0.11225      0.00000     0.38599    0.00176     0.38775
 =======================================================================
   * Total *    0.00016     20.99316    47.77048    0.23621    68.99984

 Normal termination of Gaussian 16 at Fri Dec 11 13:52:41 2020.
