 Gaussian 16, Revision A.03,

 -----------------------------------------------------------
 # opt freq B3LYP/6-31G(d) empiricaldispersion=gd3bj scf=xqc
 -----------------------------------------------------------

 -------------------------------
 CID_138800853_JID_7844_neutraal
 -------------------------------
 Symbolic Z-matrix:
 Charge =  0 Multiplicity = 1

 SCF Done:  E(RB3LYP) =  -750.161982953     A.U. after   15 cycles
 SCF Done:  E(RB3LYP) =  -750.166269363     A.U. after   12 cycles
 SCF Done:  E(RB3LYP) =  -750.166273988     A.U. after   13 cycles
 SCF Done:  E(RB3LYP) =  -750.167419709     A.U. after   13 cycles
 SCF Done:  E(RB3LYP) =  -750.168585975     A.U. after   13 cycles
 SCF Done:  E(RB3LYP) =  -750.170470149     A.U. after   14 cycles
 SCF Done:  E(RB3LYP) =  -750.171896130     A.U. after   13 cycles
 SCF Done:  E(RB3LYP) =  -750.172297879     A.U. after   12 cycles
 SCF Done:  E(RB3LYP) =  -750.172394622     A.U. after   13 cycles
 SCF Done:  E(RB3LYP) =  -750.173145089     A.U. after   13 cycles
 SCF Done:  E(RB3LYP) =  -750.173673232     A.U. after   11 cycles
 SCF Done:  E(RB3LYP) =  -750.173677046     A.U. after    9 cycles
 SCF Done:  E(RB3LYP) =  -750.173677634     A.U. after    8 cycles
 SCF Done:  E(RB3LYP) =  -750.173677892     A.U. after    8 cycles
 SCF Done:  E(RB3LYP) =  -750.173677908     A.U. after    7 cycles
 Optimization completed.
    -- Stationary point found.
 Normal termination of Gaussian 16 at Fri Dec 11 13:32:22 2020.

 --------------------------------------------------------------------
 #N Geom=AllCheck Guess=TCheck SCRF=Check GenChk RB3LYP/6-31G(d) Freq
 --------------------------------------------------------------------

 Structure from the checkpoint file:  "JID_7844.chk"
 -------------------------------
 CID_138800853_JID_7844_neutraal
 -------------------------------
 Charge =  0 Multiplicity = 1

 SCF Done:  E(RB3LYP) =  -750.173677908     A.U. after    1 cycles

  Exact polarizability: 198.872   6.816 137.315 -10.682  15.811 120.524
 Approx polarizability: 269.473   9.149 216.706 -23.003  32.042 195.333

                      1                      2                      3
                      A                      A                      A
 Frequencies --     25.9198                38.1835                45.7965
 Red. masses --      4.3623                 5.5078                 4.1809
 Frc consts  --      0.0017                 0.0047                 0.0052
 IR Inten    --      0.0798                 0.2580                 0.2019

                      4                      5                      6
                      A                      A                      A
 Frequencies --     57.7602                81.2100                99.4825
 Red. masses --      4.1369                 4.4275                 3.0243
 Frc consts  --      0.0081                 0.0172                 0.0176
 IR Inten    --      0.0232                 0.1248                 0.3724

                      7                      8                      9
                      A                      A                      A
 Frequencies --    138.6669               191.0979               197.1018
 Red. masses --      3.4167                 3.0360                 3.8182
 Frc consts  --      0.0387                 0.0653                 0.0874
 IR Inten    --      1.8740                 1.0511                 2.0839

                     10                     11                     12
                      A                      A                      A
 Frequencies --    211.5464               229.2159               268.2199
 Red. masses --      3.7864                 3.5069                 1.5602
 Frc consts  --      0.0998                 0.1086                 0.0661
 IR Inten    --      1.6620                 0.5295                 0.3352

                     13                     14                     15
                      A                      A                      A
 Frequencies --    276.6637               300.2195               315.7970
 Red. masses --      1.8806                 2.9205                 1.6725
 Frc consts  --      0.0848                 0.1551                 0.0983
 IR Inten    --      0.1670                 0.6298                 1.8237

                     16                     17                     18
                      A                      A                      A
 Frequencies --    328.5164               333.8295               403.9830
 Red. masses --      1.7036                 2.3764                 3.3697
 Frc consts  --      0.1083                 0.1560                 0.3240
 IR Inten    --      1.3879                 1.2790                 2.6676

                     19                     20                     21
                      A                      A                      A
 Frequencies --    418.8732               420.0114               440.8767
 Red. masses --      2.5956                 2.8795                 3.3893
 Frc consts  --      0.2683                 0.2993                 0.3881
 IR Inten    --      0.8456                 0.2359                 2.1035

                     22                     23                     24
                      A                      A                      A
 Frequencies --    483.3282               524.2372               547.4941
 Red. masses --      3.1161                 3.8159                 2.5053
 Frc consts  --      0.4289                 0.6179                 0.4425
 IR Inten    --      2.9198                21.5965                 2.2337

                     25                     26                     27
                      A                      A                      A
 Frequencies --    592.7672               621.2713               637.4844
 Red. masses --      1.7105                 2.7275                 6.1211
 Frc consts  --      0.3541                 0.6203                 1.4656
 IR Inten    --     46.6155                 4.4195                 0.4490

                     28                     29                     30
                      A                      A                      A
 Frequencies --    648.5700               701.4829               716.0314
 Red. masses --      2.5122                 2.4548                 1.7536
 Frc consts  --      0.6226                 0.7117                 0.5297
 IR Inten    --     59.6969                12.2176                18.4819

                     31                     32                     33
                      A                      A                      A
 Frequencies --    726.3136               751.4833               795.8519
 Red. masses --      2.9738                 2.3429                 2.4708
 Frc consts  --      0.9243                 0.7796                 0.9220
 IR Inten    --     22.3857                38.0046                15.9571

                     34                     35                     36
                      A                      A                      A
 Frequencies --    801.0582               835.7843               862.5614
 Red. masses --      2.2257                 2.6362                 1.2494
 Frc consts  --      0.8415                 1.0850                 0.5477
 IR Inten    --     10.9995                 0.8116                 0.3926

                     37                     38                     39
                      A                      A                      A
 Frequencies --    926.2714               940.0464               945.1469
 Red. masses --      1.3665                 1.4157                 2.0121
 Frc consts  --      0.6908                 0.7371                 1.0590
 IR Inten    --      3.5813                 4.3291                 3.2063

                     40                     41                     42
                      A                      A                      A
 Frequencies --    953.1714               970.1369               993.4709
 Red. masses --      1.3655                 1.3436                 1.2436
 Frc consts  --      0.7309                 0.7451                 0.7232
 IR Inten    --     34.9019                 0.6922                 1.1838

                     43                     44                     45
                      A                      A                      A
 Frequencies --   1005.9502              1022.4665              1040.5648
 Red. masses --      1.7991                 6.0068                 1.4370
 Frc consts  --      1.0727                 3.6999                 0.9168
 IR Inten    --      5.7627                 1.0925                23.7474

                     46                     47                     48
                      A                      A                      A
 Frequencies --   1044.9347              1060.9023              1071.9487
 Red. masses --      1.5734                 2.3211                 1.9347
 Frc consts  --      1.0122                 1.5392                 1.3098
 IR Inten    --     12.2299                 3.9693                 9.8733

                     49                     50                     51
                      A                      A                      A
 Frequencies --   1090.8752              1101.5062              1116.7075
 Red. masses --      1.9960                 2.3734                 2.2047
 Frc consts  --      1.3995                 1.6967                 1.6199
 IR Inten    --     16.6240                48.2420                55.0919

                     52                     53                     54
                      A                      A                      A
 Frequencies --   1134.2728              1153.1231              1176.5187
 Red. masses --      1.7702                 2.2784                 2.1446
 Frc consts  --      1.3418                 1.7849                 1.7490
 IR Inten    --     21.1950               207.5015                93.0836

                     55                     56                     57
                      A                      A                      A
 Frequencies --   1192.4181              1202.6141              1216.4867
 Red. masses --      1.1012                 2.8379                 1.1739
 Frc consts  --      0.9226                 2.4182                 1.0235
 IR Inten    --      0.8288                24.4566                 3.6220

                     58                     59                     60
                      A                      A                      A
 Frequencies --   1233.1249              1247.2961              1306.8919
 Red. masses --      2.4231                 2.2327                 1.3693
 Frc consts  --      2.1709                 2.0465                 1.3779
 IR Inten    --      5.9614                11.2586                17.1452

                     61                     62                     63
                      A                      A                      A
 Frequencies --   1321.4497              1325.3101              1332.1815
 Red. masses --      1.4085                 1.2875                 1.8310
 Frc consts  --      1.4492                 1.3323                 1.9145
 IR Inten    --      6.5059                10.0268                21.0771

                     64                     65                     66
                      A                      A                      A
 Frequencies --   1357.4114              1365.7360              1367.6829
 Red. masses --      1.4900                 1.9758                 1.8967
 Frc consts  --      1.6176                 2.1714                 2.0904
 IR Inten    --     11.1853                 9.8977                 1.3354

                     67                     68                     69
                      A                      A                      A
 Frequencies --   1383.4410              1415.6566              1440.3554
 Red. masses --      1.4212                 1.3028                 1.2548
 Frc consts  --      1.6026                 1.5383                 1.5338
 IR Inten    --     22.0497                11.1831                 8.2303

                     70                     71                     72
                      A                      A                      A
 Frequencies --   1445.5835              1445.9057              1477.4364
 Red. masses --      1.2359                 1.3129                 1.2257
 Frc consts  --      1.5216                 1.6172                 1.5763
 IR Inten    --      2.5890                 5.2968                 9.1937

                     73                     74                     75
                      A                      A                      A
 Frequencies --   1497.2986              1518.9570              1527.5477
 Red. masses --      2.2140                 1.0521                 1.0699
 Frc consts  --      2.9245                 1.4301                 1.4709
 IR Inten    --      9.6872                16.0434                 8.9319

                     76                     77                     78
                      A                      A                      A
 Frequencies --   1532.2056              1534.2979              1537.3081
 Red. masses --      1.0687                 1.0709                 1.0585
 Frc consts  --      1.4783                 1.4854                 1.4739
 IR Inten    --      9.9924                 4.6274                 1.0515

                     79                     80                     81
                      A                      A                      A
 Frequencies --   1547.1864              1645.7576              1666.6500
 Red. masses --      2.1258                 5.5860                 5.5733
 Frc consts  --      2.9982                 8.9141                 9.1212
 IR Inten    --     12.0233                 0.4191                 5.2760

                     82                     83                     84
                      A                      A                      A
 Frequencies --   1732.8532              1832.7701              3017.4641
 Red. masses --      4.5098                 9.5716                 1.0634
 Frc consts  --      7.9786                18.9430                 5.7045
 IR Inten    --      2.5305               207.7050                13.8422

                     85                     86                     87
                      A                      A                      A
 Frequencies --   3028.9482              3042.4868              3055.4608
 Red. masses --      1.0770                 1.0818                 1.1025
 Frc consts  --      5.8219                 5.8999                 6.0641
 IR Inten    --     38.4426                 8.7009                28.9337

                     88                     89                     90
                      A                      A                      A
 Frequencies --   3062.7064              3089.4203              3123.6271
 Red. masses --      1.0410                 1.0349                 1.1013
 Frc consts  --      5.7533                 5.8197                 6.3309
 IR Inten    --     17.0107                14.5654                43.6060

                     91                     92                     93
                      A                      A                      A
 Frequencies --   3147.9901              3160.8532              3161.3880
 Red. masses --      1.0772                 1.0729                 1.1023
 Frc consts  --      6.2896                 6.3155                 6.4908
 IR Inten    --     17.6527                 3.8301                20.6895

                     94                     95                     96
                      A                      A                      A
 Frequencies --   3173.0354              3173.7117              3179.1202
 Red. masses --      1.1007                 1.1007                 1.0848
 Frc consts  --      6.5291                 6.5318                 6.4595
 IR Inten    --     14.2885                 7.7822                 0.8770

                     97                     98                     99
                      A                      A                      A
 Frequencies --   3187.9627              3202.1061              3209.8917
 Red. masses --      1.0887                 1.0923                 1.0940
 Frc consts  --      6.5191                 6.5989                 6.6415
 IR Inten    --     13.0243                33.9852                23.1506

                    100                    101                    102
                      A                      A                      A
 Frequencies --   3217.6173              3239.4548              3679.6395
 Red. masses --      1.0930                 1.1161                 1.0641
 Frc consts  --      6.6673                 6.9008                 8.4891
 IR Inten    --     11.3989                16.7671                42.4776

 - Thermochemistry -
 -------------------
 Temperature   298.150 Kelvin.  Pressure   1.00000 Atm.
 Atom     1 has atomic number  6 and mass  12.00000

 Molecular mass:   233.14158 amu.
 Principal axes and moments of inertia in atomic units:
                           1         2         3
     Eigenvalues --  2237.555526070.391606718.16482
           X            0.99985   0.01723  -0.00217
           Y           -0.01715   0.99941   0.02979
           Z            0.00269  -0.02975   0.99955
 This molecule is an asymmetric top.
 Rotational symmetry number  1.
 Warning -- assumption of classical behavior for rotation
           may cause significant error
 Rotational temperatures (Kelvin)      0.03871     0.01427     0.01289
 Rotational constants (GHZ):           0.80657     0.29730     0.26864
 Zero-point vibrational energy     811184.2 (Joules/Mol)
                                  193.87767 (Kcal/Mol)
 Warning -- explicit consideration of  25 degrees of freedom as
           vibrations may cause significant error
 Vibrational temperatures:     37.29    54.94    65.89    83.10   116.84
          (Kelvin)            143.13   199.51   274.95   283.59   304.37
                              329.79   385.91   398.06   431.95   454.36
                              472.66   480.31   581.24   602.67   604.30
                              634.32   695.40   754.26   787.72   852.86
                              893.87   917.20   933.15  1009.28  1030.21
                             1045.00  1081.22  1145.05  1152.54  1202.51
                             1241.03  1332.70  1352.52  1359.86  1371.40
                             1395.81  1429.38  1447.34  1471.10  1497.14
                             1503.43  1526.40  1542.30  1569.53  1584.82
                             1606.69  1631.97  1659.09  1692.75  1715.62
                             1730.29  1750.25  1774.19  1794.58  1880.33
                             1901.27  1906.83  1916.71  1953.01  1964.99
                             1967.79  1990.46  2036.81  2072.35  2079.87
                             2080.34  2125.70  2154.28  2185.44  2197.80
                             2204.50  2207.51  2211.84  2226.06  2367.88
                             2397.94  2493.19  2636.95  4341.46  4357.98
                             4377.46  4396.13  4406.55  4444.99  4494.20
                             4529.26  4547.76  4548.53  4565.29  4566.26
                             4574.04  4586.77  4607.12  4618.32  4629.43
                             4660.85  5294.18

 Zero-point correction=                           0.308964 (Hartree/Particle)
 Thermal correction to Energy=                    0.325967
 Thermal correction to Enthalpy=                  0.326911
 Thermal correction to Gibbs Free Energy=         0.263277
 Sum of electronic and zero-point Energies=           -749.864714
 Sum of electronic and thermal Energies=              -749.847711
 Sum of electronic and thermal Enthalpies=            -749.846767
 Sum of electronic and thermal Free Energies=         -749.910401

                     E (Thermal)             CV                S
                      KCal/Mol        Cal/Mol-Kelvin    Cal/Mol-Kelvin
 Total                  204.548             65.049            133.930
 Electronic               0.000              0.000              0.000
 Translational            0.889              2.981             42.241
 Rotational               0.889              2.981             32.878
 Vibrational            202.770             59.088             58.810
 Vibration     1          0.593              1.985              6.119
 Vibration     2          0.594              1.982              5.351
 Vibration     3          0.595              1.979              4.991
 Vibration     4          0.596              1.974              4.532
 Vibration     5          0.600              1.962              3.861
 Vibration     6          0.604              1.949              3.464
 Vibration     7          0.614              1.915              2.822
 Vibration     8          0.634              1.852              2.217
 Vibration     9          0.636              1.844              2.160
 Vibration    10          0.643              1.823              2.030
 Vibration    11          0.652              1.796              1.885
 Vibration    12          0.673              1.732              1.608
 Vibration    13          0.678              1.717              1.554
 Vibration    14          0.693              1.673              1.416
 Vibration    15          0.703              1.643              1.332
 Vibration    16          0.712              1.619              1.267
 Vibration    17          0.715              1.608              1.241
 Vibration    18          0.769              1.462              0.948
 Vibration    19          0.782              1.429              0.896
 Vibration    20          0.783              1.427              0.892
 Vibration    21          0.801              1.381              0.824
 Vibration    22          0.840              1.287              0.701
 Vibration    23          0.879              1.196              0.600
 Vibration    24          0.903              1.145              0.549
 Vibration    25          0.950              1.047              0.462

                           ! Non-Optimized Parameters !
 Normal termination of Gaussian 16 at Fri Dec 11 13:47:13 2020.

 ----------------------------------------------------------------------
 # B3LYP/6-311++G(d,p) empiricaldispersion=gd3bj scf=xqc pop=npa geom=c
 heck
 ----------------------------------------------------------------------

 ---------------------------------------
 CID_138800853_JID_7844_Energie_neutraal
 ---------------------------------------
 Structure from the checkpoint file:  "JID_7844.chk"
 Charge =  0 Multiplicity = 1

 SCF Done:  E(RB3LYP) =  -750.389671754     A.U. after   15 cycles
 Normal termination of Gaussian 16 at Fri Dec 11 13:54:57 2020.

 ----------------------------------------------------------------------
 # B3LYP/6-311++G(d,p) empiricaldispersion=gd3bj scf=xqc pop=npa geom=c
 heck
 ----------------------------------------------------------------------

 -------------------------------------
 CID_138800853_JID_7844_Energie_kation
 -------------------------------------
 Structure from the checkpoint file:  "JID_7844.chk"
 Charge =  1 Multiplicity = 2

 SCF Done:  E(UB3LYP) =  -750.108380147     A.U. after   25 cycles
 Normal termination of Gaussian 16 at Fri Dec 11 14:12:53 2020.
 Gaussian 16:  ES64L-G16RevA.03 25-Dec-2016

 ----------------------------------------------------------------------
 # B3LYP/6-311++G(d,p) empiricaldispersion=gd3bj scf=xqc pop=npa geom=c
 heck
 ----------------------------------------------------------------------

 ------------------------------------
 CID_138800853_JID_7844_Energie_anion
 ------------------------------------
 Structure from the checkpoint file:  "JID_7844.chk"
 Charge = -1 Multiplicity = 2

                         Standard orientation:
 ---------------------------------------------------------------------
 Center     Atomic      Atomic             Coordinates (Angstroms)
 Number     Number       Type             X           Y           Z
 ---------------------------------------------------------------------
      1          6           0       -0.157482   -1.242837   -1.912557
      2          6           0       -0.447853    0.078337   -1.185159
      3          6           0       -1.821062    0.137646   -0.509234
      4          6           0       -2.779523   -0.870332   -0.643809
      5          6           0       -4.032305   -0.753920   -0.034942
      6          6           0       -4.348091    0.377850    0.712900
      7          6           0       -3.400418    1.396403    0.846664
      8          6           0       -2.153029    1.274288    0.241223
      9          7           0        0.612373    0.562003   -0.279239
     10          6           0        1.645947    1.370904   -0.938910
     11          6           0        2.426338    2.194033    0.048577
     12          6           0        3.753268    2.156531    0.169031
     13          6           0        1.119820   -0.296629    0.782833
     14          6           0        0.037764   -1.021221    1.598644
     15          6           0        2.225590   -1.276133    0.357702
     16          8           0        2.654579   -1.471718   -0.759130
     17          8           0        2.761611   -1.897822    1.441248
     18          1           0       -0.163393   -2.101835   -1.234091
     19          1           0        0.826608   -1.202874   -2.380178
     20          1           0       -0.908103   -1.422322   -2.689709
     21          1           0       -0.485332    0.846496   -1.968783
     22          1           0       -2.555017   -1.763361   -1.216957
     23          1           0       -4.758889   -1.554375   -0.146169
     24          1           0       -5.321171    0.468228    1.187559
     25          1           0       -3.634889    2.285462    1.426273
     26          1           0       -1.403472    2.049916    0.364145
     27          1           0        2.339216    0.771482   -1.545808
     28          1           0        1.120910    2.053541   -1.620220
     29          1           0        1.834946    2.851751    0.686682
     30          1           0        4.285045    2.784562    0.878547
     31          1           0        4.356675    1.494483   -0.448488
     32          1           0        1.640570    0.365648    1.486699
     33          1           0       -0.508234   -1.758165    1.005893
     34          1           0        0.509397   -1.536573    2.438229
     35          1           0       -0.684068   -0.297978    1.980803
     36          1           0        3.479290   -2.461304    1.095526
 ---------------------------------------------------------------------

 SCF Done:  E(UB3LYP) =  -750.376140751     A.U. after   33 cycles
 SCF Done:  E(UB3LYP) =  -750.376140751     a.u. after    1 cycles

 The electronic state is 2-A.
 Alpha  occ. eigenvalues --  -19.07159 -19.02118 -14.21755 -10.20751 -10.12451
 Alpha  occ. eigenvalues --  -10.11940 -10.10697 -10.08940 -10.08871 -10.08323
 Alpha  occ. eigenvalues --  -10.08227 -10.08155 -10.08068 -10.08061 -10.07697
 Alpha  occ. eigenvalues --  -10.06945 -10.06535  -1.01414  -0.92515  -0.84091
 Alpha  occ. eigenvalues --   -0.76571  -0.70630  -0.69730  -0.66440  -0.65448
 Alpha  occ. eigenvalues --   -0.63043  -0.57990  -0.57392  -0.54383  -0.51205
 Alpha  occ. eigenvalues --   -0.50410  -0.47422  -0.45807  -0.42725  -0.41769
 Alpha  occ. eigenvalues --   -0.40114  -0.39731  -0.38133  -0.37092  -0.36077
 Alpha  occ. eigenvalues --   -0.35632  -0.34982  -0.33994  -0.33311  -0.32605
 Alpha  occ. eigenvalues --   -0.32339  -0.31986  -0.29973  -0.29266  -0.28455
 Alpha  occ. eigenvalues --   -0.27783  -0.27614  -0.27046  -0.26526  -0.25096
 Alpha  occ. eigenvalues --   -0.24869  -0.23914  -0.23063  -0.19252  -0.18259
 Alpha  occ. eigenvalues --   -0.16403  -0.15673  -0.12468   0.04132
 Alpha virt. eigenvalues --    0.05639   0.06279   0.06514   0.07249   0.07648
 Alpha virt. eigenvalues --    0.07733   0.07880   0.08427   0.08918   0.09059
 Alpha virt. eigenvalues --    0.09613   0.10135   0.10551   0.10944   0.11827

  Beta  occ. eigenvalues --  -19.07110 -19.02089 -14.21752 -10.20728 -10.12440
  Beta  occ. eigenvalues --  -10.11935 -10.10691 -10.08931 -10.08872 -10.08310
  Beta  occ. eigenvalues --  -10.08214 -10.08143 -10.08059 -10.08046 -10.07690
  Beta  occ. eigenvalues --  -10.06926 -10.06521  -1.01338  -0.92444  -0.84077
  Beta  occ. eigenvalues --   -0.76553  -0.70612  -0.69699  -0.66414  -0.65425
  Beta  occ. eigenvalues --   -0.63021  -0.57964  -0.57325  -0.54327  -0.51174
  Beta  occ. eigenvalues --   -0.50367  -0.47384  -0.45752  -0.42685  -0.41734
  Beta  occ. eigenvalues --   -0.40076  -0.39684  -0.38099  -0.37059  -0.36049
  Beta  occ. eigenvalues --   -0.35562  -0.34947  -0.33973  -0.33285  -0.32578
  Beta  occ. eigenvalues --   -0.32304  -0.31955  -0.29949  -0.29242  -0.28436
  Beta  occ. eigenvalues --   -0.27757  -0.27592  -0.27017  -0.26498  -0.25073
  Beta  occ. eigenvalues --   -0.24845  -0.23891  -0.22968  -0.19200  -0.18244
  Beta  occ. eigenvalues --   -0.16391  -0.15664  -0.12442
  Beta virt. eigenvalues --    0.06070   0.06564   0.06744   0.07168   0.07610
  Beta virt. eigenvalues --    0.07885   0.08068   0.08118   0.08625   0.09139
  Beta virt. eigenvalues --    0.09395   0.09966   0.10304   0.10677   0.11191

 Mulliken charges and spin densities:
               1          2
     1  C    0.339210  -0.928458
     2  C    1.059910  -1.479721
     3  C    0.324237   0.644941
     4  C   -2.255674   2.171142
     5  C    0.422139  -0.801142
     6  C    1.227956  -1.589369
     7  C   -0.887454   0.494153
     8  C    0.516612  -0.956002
     9  N    0.345309   0.035064
    10  C    0.139208  -0.691690
    11  C   -0.606918   0.976622
    12  C    0.350917  -0.915125
    13  C    0.139116  -0.422769
    14  C    0.113258  -0.596705
    15  C   -0.180370   0.006480
    16  O   -0.257114   0.009983
    17  O   -0.179723   0.065408
    18  H    0.016031   0.172514
    19  H    0.156282   0.037649
    20  H    0.024682   0.094046
    21  H    0.036464   0.134709
    22  H   -0.070595   0.236278
    23  H   -0.496094   0.674258
    24  H   -0.294366   0.447169
    25  H   -0.586899   0.775437
    26  H    0.119734   0.050808
    27  H    0.087519   0.077590
    28  H    0.043532   0.088192
    29  H   -0.351364   0.527440
    30  H   -0.214766   0.358106
    31  H    0.007631   0.125102
    32  H    0.079802   0.182262
    33  H    0.108234   0.071059
    34  H    0.069857   0.116018
    35  H    0.116719   0.061291
    36  H   -0.463021   0.747260
 Sum of Mulliken charges =  -1.00000   1.00000

 Dipole moment (field-independent basis, Debye):
    X=              0.4334    Y=              0.9136    Z=             -3.1682  Tot=              3.3257
 Quadrupole moment (field-independent basis, Debye-Ang):
   XX=           -197.5098   YY=           -151.8534   ZZ=           -138.5722
   XY=              8.4847   XZ=             -2.0067   YZ=             -2.3252

 Summary of Natural Population Analysis:

                                       Natural Population
                Natural  -----------------------------------------------
    Atom  No    Charge         Core      Valence    Rydberg      Total
 -----------------------------------------------------------------------
      C    1   -0.29829      0.99964     2.29359    0.00506     3.29829
      C    2   -0.00657      0.99954     1.99470    0.01233     3.00657
      C    3   -0.01523      0.99948     2.00392    0.01183     3.01523
      C    4   -0.10772      0.99950     2.09848    0.00974     3.10772
      C    5   -0.09873      0.99956     2.08853    0.01064     3.09873
      C    6   -0.10501      0.99956     2.09552    0.00993     3.10501
      C    7   -0.09942      0.99956     2.08933    0.01053     3.09942
      C    8   -0.09779      0.99950     2.08825    0.01004     3.09779
      N    9   -0.28410      0.99970     2.76908    0.01533     3.78410
      C   10   -0.10164      0.99957     2.09108    0.01098     3.10164
      C   11   -0.09181      0.99956     2.08109    0.01116     3.09181
      C   12   -0.18520      0.99955     2.17917    0.00648     3.18520
      C   13   -0.05321      0.99952     2.03881    0.01487     3.05321
      C   14   -0.28704      0.99964     2.28146    0.00594     3.28704
      C   15    0.40832      0.99969     1.56625    0.02574     2.59168
      O   16   -0.31139      0.99987     3.30502    0.00650     4.31139
      O   17   -0.34765      0.99988     3.34069    0.00708     4.34765
      H   18    0.09899      0.00000     0.39994    0.00107     0.40101
      H   19    0.11374      0.00000     0.38536    0.00091     0.38626
      H   20    0.09858      0.00000     0.40047    0.00095     0.40142
      H   21    0.10050      0.00000     0.39760    0.00190     0.39950
      H   22    0.10299      0.00000     0.39579    0.00122     0.39701
      H   23    0.10087      0.00000     0.39799    0.00114     0.39913
      H   24    0.10149      0.00000     0.39727    0.00124     0.39851
      H   25    0.10167      0.00000     0.39710    0.00124     0.39833
      H   26    0.10652      0.00000     0.39131    0.00217     0.39348
      H   27    0.09497      0.00000     0.40306    0.00197     0.40503
      H   28    0.09833      0.00000     0.40032    0.00135     0.40167
      H   29    0.09606      0.00000     0.40243    0.00150     0.40394
      H   30    0.09461      0.00000     0.40432    0.00106     0.40539
      H   31    0.09322      0.00000     0.40547    0.00130     0.40678
      H   32    0.11684      0.00000     0.38093    0.00222     0.38316
      H   33    0.10098      0.00000     0.39761    0.00141     0.39902
      H   34    0.10995      0.00000     0.38894    0.00110     0.39005
      H   35    0.10915      0.00000     0.38957    0.00128     0.39085
      H   36    0.24298      0.00000     0.24292    0.01411     0.25702
 =======================================================================
   * Total *    0.00000     16.99332    45.78338    0.22331    63.00000

 Normal termination of Gaussian 16 at Fri Dec 11 14:35:57 2020.
