 Gaussian 16, Revision A.03,

 -----------------------------------------------------------
 # opt freq B3LYP/6-31G(d) empiricaldispersion=gd3bj scf=xqc
 -----------------------------------------------------------

 ------------------------------
 CID_84691976_JID_7569_neutraal
 ------------------------------
 Symbolic Z-matrix:
 Charge =  0 Multiplicity = 1

 SCF Done:  E(RB3LYP) =  -727.888599239     A.U. after   15 cycles
 SCF Done:  E(RB3LYP) =  -727.896806408     A.U. after   13 cycles
 SCF Done:  E(RB3LYP) =  -727.896919403     A.U. after   12 cycles
 SCF Done:  E(RB3LYP) =  -727.897235999     A.U. after   12 cycles
 SCF Done:  E(RB3LYP) =  -727.898233157     A.U. after   12 cycles
 SCF Done:  E(RB3LYP) =  -727.898697163     A.U. after   12 cycles
 SCF Done:  E(RB3LYP) =  -727.898887222     A.U. after   14 cycles
 SCF Done:  E(RB3LYP) =  -727.899540794     A.U. after   11 cycles
 SCF Done:  E(RB3LYP) =  -727.899759290     A.U. after   11 cycles
 SCF Done:  E(RB3LYP) =  -727.899908999     A.U. after   11 cycles
 SCF Done:  E(RB3LYP) =  -727.899959996     A.U. after   10 cycles
 SCF Done:  E(RB3LYP) =  -727.899994027     A.U. after   11 cycles
 SCF Done:  E(RB3LYP) =  -727.900001683     A.U. after    9 cycles
 SCF Done:  E(RB3LYP) =  -727.900009520     A.U. after   10 cycles
 SCF Done:  E(RB3LYP) =  -727.900009955     A.U. after    8 cycles
 SCF Done:  E(RB3LYP) =  -727.900010071     A.U. after    7 cycles
 Optimization completed.
    -- Stationary point found.
 Normal termination of Gaussian 16 at Fri Dec 11 12:34:35 2020.

 --------------------------------------------------------------------
 #N Geom=AllCheck Guess=TCheck SCRF=Check GenChk RB3LYP/6-31G(d) Freq
 --------------------------------------------------------------------

 Structure from the checkpoint file:  "JID_7569.chk"
 ------------------------------
 CID_84691976_JID_7569_neutraal
 ------------------------------
 Charge =  0 Multiplicity = 1

 SCF Done:  E(RB3LYP) =  -727.900010071     A.U. after    1 cycles

  Exact polarizability: 191.367 -12.408 214.429   0.559   0.632  84.980
 Approx polarizability: 296.144 -21.867 352.870   3.743   0.199 130.664

                      1                      2                      3
                      A                      A                      A
 Frequencies --     52.0335                67.6745                70.8854
 Red. masses --      2.9879                 3.6153                 3.9643
 Frc consts  --      0.0048                 0.0098                 0.0117
 IR Inten    --      3.2592                 1.2845                 0.1520

                      4                      5                      6
                      A                      A                      A
 Frequencies --    104.1661               117.4888               177.8772
 Red. masses --      3.1481                 4.5387                 3.0852
 Frc consts  --      0.0201                 0.0369                 0.0575
 IR Inten    --      0.3885                 1.1285                 0.7858

                      7                      8                      9
                      A                      A                      A
 Frequencies --    201.7559               209.7573               241.0395
 Red. masses --      3.7422                 3.3627                 1.9658
 Frc consts  --      0.0898                 0.0872                 0.0673
 IR Inten    --      1.2574                 0.8150                 0.3668

                     10                     11                     12
                      A                      A                      A
 Frequencies --    270.1717               297.6981               302.2526
 Red. masses --      1.4932                 2.1697                 4.6109
 Frc consts  --      0.0642                 0.1133                 0.2482
 IR Inten    --      1.0282                 1.9053                 5.1255

                     13                     14                     15
                      A                      A                      A
 Frequencies --    354.7720               389.3231               448.3973
 Red. masses --      4.3183                 6.0242                 4.6286
 Frc consts  --      0.3202                 0.5380                 0.5483
 IR Inten    --      2.3521                 2.0649                 5.2479

                     16                     17                     18
                      A                      A                      A
 Frequencies --    450.4747               524.4744               541.5929
 Red. masses --      3.3680                 2.9320                 3.9330
 Frc consts  --      0.4027                 0.4752                 0.6797
 IR Inten    --      7.5574                14.9191                 1.2827

                     19                     20                     21
                      A                      A                      A
 Frequencies --    551.1136               555.6580               602.5565
 Red. masses --      3.6204                 2.8869                 3.5969
 Frc consts  --      0.6479                 0.5252                 0.7694
 IR Inten    --      9.1512                39.5055                 3.3130

                     22                     23                     24
                      A                      A                      A
 Frequencies --    609.2831               616.9562               691.5818
 Red. masses --      3.2557                 4.1198                 4.4446
 Frc consts  --      0.7121                 0.9239                 1.2525
 IR Inten    --      4.1280                17.6496                 2.2603

                     25                     26                     27
                      A                      A                      A
 Frequencies --    695.6417               726.6076               776.5931
 Red. masses --      3.4621                 5.9322                 1.3720
 Frc consts  --      0.9871                 1.8453                 0.4875
 IR Inten    --     20.8680                10.2750                35.9256

                     28                     29                     30
                      A                      A                      A
 Frequencies --    792.2831               806.4398               869.3995
 Red. masses --      2.9584                 3.3250                 3.2853
 Frc consts  --      1.0941                 1.2741                 1.4631
 IR Inten    --     22.2724                 7.7444                 6.5452

                     31                     32                     33
                      A                      A                      A
 Frequencies --    878.5685               886.2698               900.1291
 Red. masses --      1.7223                 2.1200                 1.7791
 Frc consts  --      0.7833                 0.9811                 0.8493
 IR Inten    --      4.4315                 2.1629                 0.5793

                     34                     35                     36
                      A                      A                      A
 Frequencies --    918.4325               926.7420               940.2280
 Red. masses --      1.4379                 2.2897                 2.3706
 Frc consts  --      0.7146                 1.1587                 1.2347
 IR Inten    --     10.3574                 2.7320                 2.2738

                     37                     38                     39
                      A                      A                      A
 Frequencies --    961.2145               967.4179               990.8454
 Red. masses --      1.4408                 3.9593                 1.4310
 Frc consts  --      0.7843                 2.1832                 0.8278
 IR Inten    --      2.5698                12.8293                 1.7331

                     40                     41                     42
                      A                      A                      A
 Frequencies --    995.6219              1057.8403              1064.5566
 Red. masses --      1.5299                 2.3328                 2.3281
 Frc consts  --      0.8935                 1.5380                 1.5545
 IR Inten    --      1.4462                 9.5612                 1.6191

                     43                     44                     45
                      A                      A                      A
 Frequencies --   1095.2181              1120.8914              1126.8738
 Red. masses --      3.3546                 3.7166                 3.2913
 Frc consts  --      2.3708                 2.7512                 2.4625
 IR Inten    --      8.1909                50.6013                52.7837

                     46                     47                     48
                      A                      A                      A
 Frequencies --   1153.6109              1176.4443              1184.1672
 Red. masses --      2.1917                 1.4906                 1.2690
 Frc consts  --      1.7185                 1.2155                 1.0484
 IR Inten    --      5.1894                19.0812                 1.0459

                     49                     50                     51
                      A                      A                      A
 Frequencies --   1191.2448              1196.0920              1214.5555
 Red. masses --      1.3267                 1.4994                 1.3399
 Frc consts  --      1.1093                 1.2638                 1.1645
 IR Inten    --     11.5371                 0.3725                 4.5029

                     52                     53                     54
                      A                      A                      A
 Frequencies --   1215.3263              1262.1439              1274.0135
 Red. masses --      1.4631                 1.5221                 1.8787
 Frc consts  --      1.2732                 1.4286                 1.7966
 IR Inten    --     14.9916                 1.5490                 7.4014

                     55                     56                     57
                      A                      A                      A
 Frequencies --   1287.1043              1316.6145              1327.6749
 Red. masses --      2.1343                 1.8136                 1.4085
 Frc consts  --      2.0832                 1.8523                 1.4628
 IR Inten    --     95.5442               102.4790                15.5238

                     58                     59                     60
                      A                      A                      A
 Frequencies --   1349.7680              1359.1224              1367.1337
 Red. masses --      2.2630                 1.3433                 1.6477
 Frc consts  --      2.4291                 1.4620                 1.8145
 IR Inten    --    156.9654                 5.1094                57.0390

                     61                     62                     63
                      A                      A                      A
 Frequencies --   1388.8238              1395.5882              1420.3450
 Red. masses --      1.4076                 3.4782                 1.9731
 Frc consts  --      1.5996                 3.9913                 2.3453
 IR Inten    --     13.2645                 3.7560                 5.4511

                     64                     65                     66
                      A                      A                      A
 Frequencies --   1431.1835              1472.8008              1479.3007
 Red. masses --      1.7685                 1.3837                 2.3785
 Frc consts  --      2.1343                 1.7685                 3.0666
 IR Inten    --     11.6893                 9.5600                27.5185

                     67                     68                     69
                      A                      A                      A
 Frequencies --   1504.5051              1517.7322              1519.9434
 Red. masses --      1.3854                 1.1042                 1.9366
 Frc consts  --      1.8477                 1.4986                 2.6360
 IR Inten    --      7.9143                 3.6548                29.9809

                     70                     71                     72
                      A                      A                      A
 Frequencies --   1524.0083              1531.7607              1535.8680
 Red. masses --      1.0567                 1.1041                 1.0792
 Frc consts  --      1.4460                 1.5263                 1.4999
 IR Inten    --      5.3417                 3.6458                23.6800

                     73                     74                     75
                      A                      A                      A
 Frequencies --   1556.7680              1563.4797              1619.0597
 Red. masses --      2.8977                 1.1499                 6.9905
 Frc consts  --      4.1377                 1.6562                10.7966
 IR Inten    --     38.8735                 3.5578                11.1402

                     76                     77                     78
                      A                      A                      A
 Frequencies --   1638.4160              1675.8848              2953.3323
 Red. masses --      6.8347                 5.6842                 1.0752
 Frc consts  --     10.8097                 9.4060                 5.5252
 IR Inten    --     41.6494                 0.5251                68.7804

                     79                     80                     81
                      A                      A                      A
 Frequencies --   3031.3046              3057.6052              3070.1826
 Red. masses --      1.0344                 1.0753                 1.0768
 Frc consts  --      5.6000                 5.9230                 5.9803
 IR Inten    --     69.4189                22.3479                81.3074

                     82                     83                     84
                      A                      A                      A
 Frequencies --   3072.1924              3090.3788              3093.4750
 Red. masses --      1.0630                 1.0839                 1.1071
 Frc consts  --      5.9112                 6.0993                 6.2420
 IR Inten    --     17.6929                 9.7357                37.6003

                     85                     86                     87
                      A                      A                      A
 Frequencies --   3114.9120              3126.2947              3160.4483
 Red. masses --      1.1001                 1.1054                 1.1002
 Frc consts  --      6.2889                 6.3653                 6.4746
 IR Inten    --     27.5475                42.5092                27.3010

                     88                     89                     90
                      A                      A                      A
 Frequencies --   3188.3221              3192.5105              3203.2657
 Red. masses --      1.0869                 1.0887                 1.0909
 Frc consts  --      6.5099                 6.5379                 6.5953
 IR Inten    --      7.4367                30.1653                17.9549

                     91                     92                     93
                      A                      A                      A
 Frequencies --   3220.3465              3266.2472              3567.3411
 Red. masses --      1.0956                 1.0895                 1.0755
 Frc consts  --      6.6945                 6.8484                 8.0640
 IR Inten    --     18.4649                 5.1651                 1.2372

 - Thermochemistry -
 -------------------
 Temperature   298.150 Kelvin.  Pressure   1.00000 Atm.
 Atom     1 has atomic number  6 and mass  12.00000

 Molecular mass:   228.12626 amu.
 Principal axes and moments of inertia in atomic units:
                           1         2         3
     Eigenvalues --  3300.784063717.982456569.10898
           X            0.99827   0.05850  -0.00503
           Y           -0.05851   0.99829  -0.00093
           Z            0.00497   0.00123   0.99999
 This molecule is an asymmetric top.
 Rotational symmetry number  1.
 Warning -- assumption of classical behavior for rotation
           may cause significant error
 Rotational temperatures (Kelvin)      0.02624     0.02330     0.01319
 Rotational constants (GHZ):           0.54676     0.48541     0.27473
 Zero-point vibrational energy     735735.9 (Joules/Mol)
                                  175.84511 (Kcal/Mol)
 Warning -- explicit consideration of  23 degrees of freedom as
           vibrations may cause significant error
 Vibrational temperatures:     74.86    97.37   101.99   149.87   169.04
          (Kelvin)            255.93   290.28   301.79   346.80   388.72
                              428.32   434.87   510.44   560.15   645.14
                              648.13   754.60   779.23   792.93   799.47
                              866.94   876.62   887.66   995.03  1000.87
                             1045.43  1117.34  1139.92  1160.29  1250.87
                             1264.06  1275.14  1295.08  1321.42  1333.38
                             1352.78  1382.97  1391.90  1425.61  1432.48
                             1522.00  1531.66  1575.77  1612.71  1621.32
                             1659.79  1692.64  1703.75  1713.94  1720.91
                             1747.47  1748.58  1815.94  1833.02  1851.86
                             1894.31  1910.23  1942.02  1955.47  1967.00
                             1998.21  2007.94  2043.56  2059.15  2119.03
                             2128.38  2164.65  2183.68  2186.86  2192.71
                             2203.86  2209.77  2239.84  2249.50  2329.47
                             2357.32  2411.22  4249.19  4361.37  4399.21
                             4417.31  4420.20  4446.37  4450.82  4481.66
                             4498.04  4547.18  4587.28  4593.31  4608.78
                             4633.36  4699.40  5132.61

 Zero-point correction=                           0.280227 (Hartree/Particle)
 Thermal correction to Energy=                    0.294381
 Thermal correction to Enthalpy=                  0.295326
 Thermal correction to Gibbs Free Energy=         0.239020
 Sum of electronic and zero-point Energies=           -727.619783
 Sum of electronic and thermal Energies=              -727.605629
 Sum of electronic and thermal Enthalpies=            -727.604684
 Sum of electronic and thermal Free Energies=         -727.660990

                     E (Thermal)             CV                S
                      KCal/Mol        Cal/Mol-Kelvin    Cal/Mol-Kelvin
 Total                  184.727             56.407            118.505
 Electronic               0.000              0.000              0.000
 Translational            0.889              2.981             42.176
 Rotational               0.889              2.981             32.755
 Vibrational            182.950             50.446             43.574
 Vibration     1          0.596              1.977              4.739
 Vibration     2          0.598              1.970              4.220
 Vibration     3          0.598              1.968              4.129
 Vibration     4          0.605              1.946              3.375
 Vibration     5          0.608              1.935              3.141
 Vibration     6          0.628              1.870              2.351
 Vibration     7          0.639              1.837              2.117
 Vibration     8          0.642              1.826              2.046
 Vibration     9          0.658              1.778              1.795
 Vibration    10          0.674              1.728              1.595
 Vibration    11          0.691              1.678              1.430
 Vibration    12          0.694              1.669              1.404
 Vibration    13          0.731              1.565              1.145
 Vibration    14          0.757              1.493              1.003
 Vibration    15          0.807              1.364              0.801
 Vibration    16          0.809              1.360              0.794
 Vibration    17          0.879              1.196              0.600
 Vibration    18          0.897              1.158              0.562
 Vibration    19          0.906              1.137              0.542
 Vibration    20          0.911              1.127              0.533
 Vibration    21          0.961              1.026              0.445
 Vibration    22          0.968              1.012              0.434
 Vibration    23          0.977              0.996              0.421

                           ! Non-Optimized Parameters !
 Normal termination of Gaussian 16 at Fri Dec 11 12:48:17 2020.

 ----------------------------------------------------------------------
 # B3LYP/6-311++G(d,p) empiricaldispersion=gd3bj scf=xqc pop=npa geom=c
 heck
 ----------------------------------------------------------------------

 --------------------------------------
 CID_84691976_JID_7569_Energie_neutraal
 --------------------------------------
 Structure from the checkpoint file:  "JID_7569.chk"
 Charge =  0 Multiplicity = 1

 SCF Done:  E(RB3LYP) =  -728.091051971     A.U. after   15 cycles
 Normal termination of Gaussian 16 at Fri Dec 11 12:54:36 2020.

 ----------------------------------------------------------------------
 # B3LYP/6-311++G(d,p) empiricaldispersion=gd3bj scf=xqc pop=npa geom=c
 heck
 ----------------------------------------------------------------------

 ------------------------------------
 CID_84691976_JID_7569_Energie_kation
 ------------------------------------
 Structure from the checkpoint file:  "JID_7569.chk"
 Charge =  1 Multiplicity = 2

 SCF Done:  E(UB3LYP) =  -727.813686546     A.U. after   26 cycles
 Normal termination of Gaussian 16 at Fri Dec 11 13:09:53 2020.
 Gaussian 16:  ES64L-G16RevA.03 25-Dec-2016

 ----------------------------------------------------------------------
 # B3LYP/6-311++G(d,p) empiricaldispersion=gd3bj scf=xqc pop=npa geom=c
 heck
 ----------------------------------------------------------------------

 -----------------------------------
 CID_84691976_JID_7569_Energie_anion
 -----------------------------------
 Structure from the checkpoint file:  "JID_7569.chk"
 Charge = -1 Multiplicity = 2

                         Standard orientation:
 ---------------------------------------------------------------------
 Center     Atomic      Atomic             Coordinates (Angstroms)
 Number     Number       Type             X           Y           Z
 ---------------------------------------------------------------------
      1          6           0       -0.519575    4.099645   -0.091461
      2          8           0       -0.854483    2.722125   -0.020403
      3          6           0        0.149928    1.796284   -0.020096
      4          6           0       -0.210377    0.452485   -0.049262
      5          6           0        0.851335   -0.503022   -0.007420
      6          6           0        0.655233   -1.914570    0.008056
      7          6           0        1.723173   -2.782043    0.047803
      8          6           0        3.052665   -2.298962    0.070354
      9          6           0        3.282620   -0.944380    0.061411
     10          6           0        2.202901   -0.023635    0.026744
     11          7           0        2.512655    1.301723    0.031737
     12          6           0        1.520826    2.164618    0.014504
     13          6           0       -1.679658    0.086955   -0.113040
     14          6           0       -2.242088   -0.546257    1.183252
     15          6           0       -3.410350   -1.391724    0.659035
     16          6           0       -2.849980   -1.959948   -0.652175
     17          7           0       -2.044132   -0.860834   -1.199219
     18          1           0       -1.471453    4.631715   -0.129455
     19          1           0        0.060592    4.328608   -0.994264
     20          1           0        0.041801    4.426136    0.793105
     21          1           0       -0.347375   -2.317460    0.001276
     22          1           0        1.540512   -3.852968    0.064138
     23          1           0        3.882848   -2.998566    0.098744
     24          1           0        4.284947   -0.529074    0.083712
     25          1           0        1.802269    3.214032    0.024772
     26          1           0       -2.224204    1.016878   -0.292284
     27          1           0       -1.490529   -1.184441    1.660318
     28          1           0       -2.540964    0.216179    1.908482
     29          1           0       -3.728209   -2.173874    1.355090
     30          1           0       -4.275473   -0.751733    0.449444
     31          1           0       -2.260573   -2.869856   -0.438820
     32          1           0       -3.640950   -2.248464   -1.354795
     33          1           0       -1.236952   -1.183010   -1.720100
 ---------------------------------------------------------------------

 SCF Done:  E(UB3LYP) =  -728.097777765     A.U. after   27 cycles

 The electronic state is 2-A.
 Alpha  occ. eigenvalues --  -19.02405 -14.16833 -14.12486 -10.11354 -10.08202
 Alpha  occ. eigenvalues --  -10.07752 -10.06649 -10.06232 -10.04718 -10.04352
 Alpha  occ. eigenvalues --  -10.03245 -10.03127 -10.01837 -10.01691 -10.01430
 Alpha  occ. eigenvalues --  -10.01068 -10.00454  -0.93953  -0.79415  -0.77607
 Alpha  occ. eigenvalues --   -0.68914  -0.66446  -0.64926  -0.61084  -0.59883
 Alpha  occ. eigenvalues --   -0.58632  -0.56092  -0.50250  -0.47381  -0.46655
 Alpha  occ. eigenvalues --   -0.46233  -0.43885  -0.39916  -0.38850  -0.38409
 Alpha  occ. eigenvalues --   -0.36335  -0.35380  -0.35129  -0.32727  -0.31596
 Alpha  occ. eigenvalues --   -0.30198  -0.28949  -0.28791  -0.27364  -0.26707
 Alpha  occ. eigenvalues --   -0.26383  -0.25502  -0.24618  -0.23538  -0.23257
 Alpha  occ. eigenvalues --   -0.22538  -0.21743  -0.21060  -0.20155  -0.19168
 Alpha  occ. eigenvalues --   -0.18270  -0.13917  -0.09992  -0.09389  -0.09081
 Alpha  occ. eigenvalues --   -0.07398   0.05058
 Alpha virt. eigenvalues --    0.07629   0.08007   0.09320   0.09911   0.10253
 Alpha virt. eigenvalues --    0.10829   0.11364   0.11938   0.12115   0.12950
 Alpha virt. eigenvalues --    0.13449   0.13730   0.13930   0.14172   0.14645

  Beta  occ. eigenvalues --  -19.02407 -14.16807 -14.11975 -10.11344 -10.08200
  Beta  occ. eigenvalues --  -10.07746 -10.06676 -10.06229 -10.04684 -10.04443
  Beta  occ. eigenvalues --  -10.03193 -10.03045 -10.01833 -10.01562 -10.01036
  Beta  occ. eigenvalues --  -10.00868 -10.00181  -0.93930  -0.79341  -0.76944
  Beta  occ. eigenvalues --   -0.68494  -0.66039  -0.64881  -0.60964  -0.59642
  Beta  occ. eigenvalues --   -0.58338  -0.55743  -0.49733  -0.47310  -0.46554
  Beta  occ. eigenvalues --   -0.45978  -0.43666  -0.39746  -0.38739  -0.38282
  Beta  occ. eigenvalues --   -0.36282  -0.35263  -0.34901  -0.32603  -0.31455
  Beta  occ. eigenvalues --   -0.30133  -0.28840  -0.28662  -0.27017  -0.26603
  Beta  occ. eigenvalues --   -0.26168  -0.24953  -0.24492  -0.23452  -0.23167
  Beta  occ. eigenvalues --   -0.22254  -0.21502  -0.20923  -0.19934  -0.19026
  Beta  occ. eigenvalues --   -0.16771  -0.12782  -0.09681  -0.08754  -0.08218
  Beta  occ. eigenvalues --   -0.05698
  Beta virt. eigenvalues --    0.07601   0.07970   0.09292   0.09887   0.10219
  Beta virt. eigenvalues --    0.10770   0.10872   0.11365   0.11994   0.12118
  Beta virt. eigenvalues --    0.12920   0.13573   0.13816   0.13931   0.14204

 Mulliken charges and spin densities:
               1          2
     1  C   -0.261350  -0.024785
     2  O   -0.175519   0.005997
     3  C    0.015061   0.052622
     4  C    0.506650   0.261626
     5  C    0.410878  -0.012240
     6  C   -0.579532   0.102118
     7  C   -0.407055   0.128298
     8  C   -0.205465   0.017377
     9  C   -0.466898   0.194905
    10  C   -0.284481  -0.068292
    11  N   -0.044594   0.220921
    12  C   -0.250221   0.141023
    13  C   -0.077593  -0.015561
    14  C   -0.407341   0.009766
    15  C   -0.478530   0.005994
    16  C   -0.215664  -0.000791
    17  N   -0.186414  -0.005209
    18  H    0.127836  -0.000155
    19  H    0.126189   0.015940
    20  H    0.112624   0.021525
    21  H   -0.030365  -0.014673
    22  H    0.116124  -0.007077
    23  H    0.099102  -0.001378
    24  H    0.123928  -0.016589
    25  H    0.138074  -0.013042
    26  H    0.269089  -0.000446
    27  H    0.163882  -0.001701
    28  H    0.144559   0.000449
    29  H    0.125826   0.004320
    30  H    0.114515  -0.000377
    31  H    0.094103  -0.001846
    32  H    0.138748   0.001096
    33  H    0.243830   0.000188
 Sum of Mulliken charges =  -1.00000   1.00000

 Dipole moment (field-independent basis, Debye):
    X=             -5.9004    Y=              0.6325    Z=              0.6270  Tot=              5.9673
 Quadrupole moment (field-independent basis, Debye-Ang):
   XX=           -138.8222   YY=           -116.9671   ZZ=           -114.2096
   XY=             -0.1563   XZ=             -3.4243   YZ=              0.0568

 Summary of Natural Population Analysis:

                                       Natural Population
                Natural  -----------------------------------------------
    Atom  No    Charge         Core      Valence    Rydberg      Total
 -----------------------------------------------------------------------
      C    1   -0.09651      0.99961     2.08843    0.00847     3.09651
      O    2   -0.28346      0.99985     3.27396    0.00964     4.28346
      C    3    0.14257      0.99933     1.84566    0.01244     2.85743
      C    4    0.01529      0.99948     1.97012    0.01511     2.98471
      C    5    0.01112      0.99947     1.97912    0.01029     2.98888
      C    6   -0.10089      0.99959     2.08690    0.01439     3.10089
      C    7   -0.08532      0.99957     2.07595    0.00980     3.08532
      C    8   -0.12166      0.99957     2.11187    0.01022     3.12166
      C    9   -0.04561      0.99953     2.03611    0.00998     3.04561
      C   10    0.03981      0.99955     1.94104    0.01960     2.96019
      N   11   -0.16739      0.99968     2.65432    0.01338     3.66739
      C   12    0.02636      0.99958     1.96080    0.01327     2.97364
      C   13   -0.01800      0.99957     2.00494    0.01349     3.01800
      C   14   -0.18633      0.99962     2.17979    0.00692     3.18633
      C   15   -0.19598      0.99964     2.18979    0.00655     3.19598
      C   16   -0.08694      0.99965     2.07835    0.00893     3.08694
      N   17   -0.34991      0.99975     2.83687    0.01329     3.84991
      H   18    0.08338      0.00000     0.41574    0.00088     0.41662
      H   19    0.08136      0.00000     0.41695    0.00169     0.41864
      H   20    0.08024      0.00000     0.41805    0.00171     0.41976
      H   21    0.08829      0.00000     0.40933    0.00238     0.41171
      H   22    0.08588      0.00000     0.41301    0.00111     0.41412
      H   23    0.08772      0.00000     0.41110    0.00117     0.41228
      H   24    0.09280      0.00000     0.40554    0.00166     0.40720
      H   25    0.07682      0.00000     0.42187    0.00131     0.42318
      H   26    0.09958      0.00000     0.39916    0.00126     0.40042
      H   27    0.10041      0.00000     0.39843    0.00116     0.39959
      H   28    0.09714      0.00000     0.40178    0.00108     0.40286
      H   29    0.09437      0.00000     0.40449    0.00114     0.40563
      H   30    0.09108      0.00000     0.40762    0.00130     0.40892
      H   31    0.07710      0.00000     0.42108    0.00183     0.42290
      H   32    0.08475      0.00000     0.41389    0.00136     0.41525
      H   33    0.18450      0.00000     0.31342    0.00208     0.31550
 =======================================================================
   * Total *    0.00255     16.99307    43.78549    0.21889    60.99745

 Normal termination of Gaussian 16 at Fri Dec 11 13:25:48 2020.
