 Gaussian 16, Revision A.03,

 -----------------------------------------------------------
 # opt freq B3LYP/6-31G(d) empiricaldispersion=gd3bj scf=xqc
 -----------------------------------------------------------

 -------------------------------
 CID_148350209_JID_3831_neutraal
 -------------------------------
 Symbolic Z-matrix:
 Charge =  0 Multiplicity = 1

 SCF Done:  E(RB3LYP) =  -577.928810564     A.U. after   14 cycles
 SCF Done:  E(RB3LYP) =  -577.957627286     A.U. after   12 cycles
 SCF Done:  E(RB3LYP) =  -577.976694368     A.U. after   12 cycles
 SCF Done:  E(RB3LYP) =  -577.978803815     A.U. after   11 cycles
 SCF Done:  E(RB3LYP) =  -577.979301445     A.U. after   11 cycles
 SCF Done:  E(RB3LYP) =  -577.979413500     A.U. after   10 cycles
 SCF Done:  E(RB3LYP) =  -577.979448599     A.U. after   10 cycles
 SCF Done:  E(RB3LYP) =  -577.979471457     A.U. after   10 cycles
 SCF Done:  E(RB3LYP) =  -577.979476279     A.U. after    8 cycles
 SCF Done:  E(RB3LYP) =  -577.979477129     A.U. after    7 cycles
 SCF Done:  E(RB3LYP) =  -577.979477431     A.U. after    7 cycles
 Optimization completed.
    -- Stationary point found.
 Normal termination of Gaussian 16 at Mon Dec 14 18:42:36 2020.

 --------------------------------------------------------------------
 #N Geom=AllCheck Guess=TCheck SCRF=Check GenChk RB3LYP/6-31G(d) Freq
 --------------------------------------------------------------------

 Structure from the checkpoint file:  "JID_3831.chk"
 -------------------------------
 CID_148350209_JID_3831_neutraal
 -------------------------------
 Charge =  0 Multiplicity = 1

 SCF Done:  E(RB3LYP) =  -577.979477431     A.U. after    1 cycles

  Exact polarizability: 121.376   0.287 109.045  -0.044  -2.145  94.858
 Approx polarizability: 164.013  -0.512 156.320   5.974  -5.443 158.384

                      1                      2                      3
                      A                      A                      A
 Frequencies --     92.2074               107.2758               139.9342
 Red. masses --      8.0037                 2.4507                 4.9525
 Frc consts  --      0.0401                 0.0166                 0.0571
 IR Inten    --      1.8094                 0.1734                 2.7902

                      4                      5                      6
                      A                      A                      A
 Frequencies --    239.6505               253.1998               312.2619
 Red. masses --      4.0088                 3.3345                 3.1040
 Frc consts  --      0.1357                 0.1260                 0.1783
 IR Inten    --      5.7550                 5.8742                 2.0152

                      7                      8                      9
                      A                      A                      A
 Frequencies --    345.0534               384.5764               431.8589
 Red. masses --      2.1378                 2.8815                 3.2219
 Frc consts  --      0.1500                 0.2511                 0.3540
 IR Inten    --      0.8455                 8.6631                 0.9571

                     10                     11                     12
                      A                      A                      A
 Frequencies --    466.8630               494.4572               516.7328
 Red. masses --      2.5370                 2.3233                 2.5030
 Frc consts  --      0.3258                 0.3347                 0.3938
 IR Inten    --      2.8045                 1.0479                 1.3614

                     13                     14                     15
                      A                      A                      A
 Frequencies --    524.2780               598.8685               655.5879
 Red. masses --      3.5710                 3.0589                 3.3827
 Frc consts  --      0.5783                 0.6464                 0.8566
 IR Inten    --      0.8593                 1.5059                 1.2213

                     16                     17                     18
                      A                      A                      A
 Frequencies --    725.4902               757.6866               785.6323
 Red. masses --      4.3089                 3.7465                 3.4042
 Frc consts  --      1.3362                 1.2672                 1.2379
 IR Inten    --      2.4133                 1.4457                 1.0356

                     19                     20                     21
                      A                      A                      A
 Frequencies --    811.8423               832.3003               842.4014
 Red. masses --      2.6541                 3.0697                 2.6781
 Frc consts  --      1.0307                 1.2529                 1.1197
 IR Inten    --      6.0823                17.3917                 5.2560

                     22                     23                     24
                      A                      A                      A
 Frequencies --    861.1703               878.9461               889.7692
 Red. masses --      3.2247                 2.5248                 1.7514
 Frc consts  --      1.4090                 1.1492                 0.8170
 IR Inten    --      0.6408                 8.9136                 3.0676

                     25                     26                     27
                      A                      A                      A
 Frequencies --    923.6655               932.4815               981.9204
 Red. masses --      3.0106                 2.4412                 2.1492
 Frc consts  --      1.5133                 1.2506                 1.2209
 IR Inten    --      0.7811                 0.1620                 1.2919

                     28                     29                     30
                      A                      A                      A
 Frequencies --    985.1095               986.7798              1011.7292
 Red. masses --      1.6553                 1.5375                 1.8789
 Frc consts  --      0.9464                 0.8821                 1.1331
 IR Inten    --      1.2022                19.7254                 1.3904

                     31                     32                     33
                      A                      A                      A
 Frequencies --   1036.8901              1046.8285              1068.2966
 Red. masses --      1.6315                 1.5224                 1.7633
 Frc consts  --      1.0335                 0.9829                 1.1857
 IR Inten    --      0.3003                 1.9603                 4.8798

                     34                     35                     36
                      A                      A                      A
 Frequencies --   1085.4685              1117.1994              1126.8621
 Red. masses --      2.7043                 1.5816                 1.6226
 Frc consts  --      1.8773                 1.1631                 1.2139
 IR Inten    --      4.0950                13.3189                 3.2092

                     37                     38                     39
                      A                      A                      A
 Frequencies --   1138.0463              1146.1139              1171.8453
 Red. masses --      1.6699                 1.6666                 1.8771
 Frc consts  --      1.2743                 1.2899                 1.5187
 IR Inten    --      5.3236                 2.1684                25.7203

                     40                     41                     42
                      A                      A                      A
 Frequencies --   1176.9571              1191.9453              1204.4089
 Red. masses --      2.1980                 1.6419                 2.2879
 Frc consts  --      1.7939                 1.3744                 1.9554
 IR Inten    --     19.9856                 2.2104               209.4625

                     43                     44                     45
                      A                      A                      A
 Frequencies --   1233.4247              1239.4437              1253.7405
 Red. masses --      1.9221                 1.5777                 1.6198
 Frc consts  --      1.7228                 1.4280                 1.5001
 IR Inten    --    125.8092                 2.3301                34.0152

                     46                     47                     48
                      A                      A                      A
 Frequencies --   1271.5345              1288.1071              1292.7316
 Red. masses --      1.6813                 1.6108                 1.5145
 Frc consts  --      1.6016                 1.5747                 1.4912
 IR Inten    --      0.5182                 1.0833                 3.6239

                     49                     50                     51
                      A                      A                      A
 Frequencies --   1295.5297              1306.8147              1328.7061
 Red. masses --      1.6326                 1.6054                 1.4636
 Frc consts  --      1.6144                 1.6153                 1.5224
 IR Inten    --      0.4332                 3.8121                 1.3570

                     52                     53                     54
                      A                      A                      A
 Frequencies --   1338.3406              1345.3192              1413.7488
 Red. masses --      1.7531                 1.5499                 1.2855
 Frc consts  --      1.8501                 1.6528                 1.5138
 IR Inten    --      7.4701                 3.0406                 5.7300

                     55                     56                     57
                      A                      A                      A
 Frequencies --   1421.1515              1507.1769              1512.3441
 Red. masses --      1.1573                 1.0940                 1.0923
 Frc consts  --      1.3772                 1.4642                 1.4719
 IR Inten    --      3.3717                 1.4162                 4.4915

                     58                     59                     60
                      A                      A                      A
 Frequencies --   1529.8793              1537.9703              1545.3623
 Red. masses --      1.0910                 1.0929                 1.0914
 Frc consts  --      1.5045                 1.5231                 1.5357
 IR Inten    --      5.4549                 1.5962                 3.1806

                     61                     62                     63
                      A                      A                      A
 Frequencies --   1814.7755              3036.1994              3043.8017
 Red. masses --      9.5216                 1.0859                 1.0900
 Frc consts  --     18.4759                 5.8977                 5.9497
 IR Inten    --    268.3183                 9.1803                97.2221

                     64                     65                     66
                      A                      A                      A
 Frequencies --   3063.2552              3076.9359              3089.8762
 Red. masses --      1.0597                 1.0592                 1.0656
 Frc consts  --      5.8588                 5.9082                 5.9939
 IR Inten    --     38.2750                44.0638                 7.2775

                     67                     68                     69
                      A                      A                      A
 Frequencies --   3094.5490              3100.2181              3104.5673
 Red. masses --      1.0628                 1.0650                 1.1015
 Frc consts  --      5.9967                 6.0307                 6.2553
 IR Inten    --     32.0031                16.0386                36.3569

                     70                     71                     72
                      A                      A                      A
 Frequencies --   3113.6493              3123.0205              3137.7708
 Red. masses --      1.0876                 1.1055                 1.0927
 Frc consts  --      6.2123                 6.3527                 6.3386
 IR Inten    --     58.5199                37.7071                42.9667

                     73                     74                     75
                      A                      A                      A
 Frequencies --   3138.3246              3160.8492              3162.0251
 Red. masses --      1.1046                 1.1051                 1.1043
 Frc consts  --      6.4098                 6.5054                 6.5054
 IR Inten    --     24.7035                14.8407                31.4294

 - Thermochemistry -
 -------------------
 Temperature   298.150 Kelvin.  Pressure   1.00000 Atm.
 Atom     1 has atomic number  6 and mass  12.00000

 Molecular mass:   178.09938 amu.
 Principal axes and moments of inertia in atomic units:
                           1         2         3
     Eigenvalues --  1226.995682303.092692818.31189
           X            0.99995  -0.00050  -0.00953
           Y            0.00042   0.99996  -0.00857
           Z            0.00953   0.00857   0.99992
 This molecule is an asymmetric top.
 Rotational symmetry number  1.
 Warning -- assumption of classical behavior for rotation
           may cause significant error
 Rotational temperatures (Kelvin)      0.07059     0.03761     0.03073
 Rotational constants (GHZ):           1.47086     0.78362     0.64036
 Zero-point vibrational energy     611302.1 (Joules/Mol)
                                  146.10472 (Kcal/Mol)
 Warning -- explicit consideration of  14 degrees of freedom as
           vibrations may cause significant error
 Vibrational temperatures:    132.67   154.35   201.33   344.80   364.30
          (Kelvin)            449.28   496.45   553.32   621.35   671.71
                              711.41   743.46   754.32   861.64   943.24
                             1043.82  1090.14  1130.35  1168.06  1197.49
                             1212.03  1239.03  1264.61  1280.18  1328.95
                             1341.63  1412.76  1417.35  1419.76  1455.65
                             1491.85  1506.15  1537.04  1561.75  1607.40
                             1621.30  1637.39  1649.00  1686.02  1693.38
                             1714.94  1732.88  1774.62  1783.28  1803.85
                             1829.45  1853.30  1859.95  1863.98  1880.21
                             1911.71  1925.57  1935.61  2034.07  2044.72
                             2168.49  2175.93  2201.16  2212.80  2223.43
                             2611.06  4368.41  4379.35  4407.34  4427.02
                             4445.64  4452.37  4460.52  4466.78  4479.85
                             4493.33  4514.55  4515.35  4547.76  4549.45

 Zero-point correction=                           0.232833 (Hartree/Particle)
 Thermal correction to Energy=                    0.242703
 Thermal correction to Enthalpy=                  0.243647
 Thermal correction to Gibbs Free Energy=         0.197799
 Sum of electronic and zero-point Energies=           -577.746645
 Sum of electronic and thermal Energies=              -577.736774
 Sum of electronic and thermal Enthalpies=            -577.735830
 Sum of electronic and thermal Free Energies=         -577.781678

                     E (Thermal)             CV                S
                      KCal/Mol        Cal/Mol-Kelvin    Cal/Mol-Kelvin
 Total                  152.299             41.860             96.496
 Electronic               0.000              0.000              0.000
 Translational            0.889              2.981             41.438
 Rotational               0.889              2.981             30.455
 Vibrational            150.521             35.898             24.602
 Vibration     1          0.602              1.955              3.613
 Vibration     2          0.606              1.943              3.318
 Vibration     3          0.615              1.913              2.805
 Vibration     4          0.657              1.780              1.805
 Vibration     5          0.664              1.757              1.708
 Vibration     6          0.701              1.650              1.350
 Vibration     7          0.723              1.585              1.189
 Vibration     8          0.754              1.503              1.021
 Vibration     9          0.793              1.401              0.853
 Vibration    10          0.824              1.324              0.746
 Vibration    11          0.850              1.262              0.672
 Vibration    12          0.872              1.213              0.618
 Vibration    13          0.879              1.196              0.600
 Vibration    14          0.957              1.034              0.452

 Optimization completed.
    -- Stationary point found.
 Normal termination of Gaussian 16 at Mon Dec 14 18:50:45 2020.

 ----------------------------------------------------------------------
 # B3LYP/6-311++G(d,p) empiricaldispersion=gd3bj scf=xqc pop=npa geom=c
 heck
 ----------------------------------------------------------------------

 ---------------------------------------
 CID_148350209_JID_3831_Energie_neutraal
 ---------------------------------------
 Structure from the checkpoint file:  "JID_3831.chk"
 Charge =  0 Multiplicity = 1

 SCF Done:  E(RB3LYP) =  -578.134641520     A.U. after   15 cycles
 Normal termination of Gaussian 16 at Mon Dec 14 18:54:12 2020.

 ----------------------------------------------------------------------
 # B3LYP/6-311++G(d,p) empiricaldispersion=gd3bj scf=xqc pop=npa geom=c
 heck
 ----------------------------------------------------------------------

 -------------------------------------
 CID_148350209_JID_3831_Energie_kation
 -------------------------------------
 Structure from the checkpoint file:  "JID_3831.chk"
 Charge =  1 Multiplicity = 2

 SCF Done:  E(UB3LYP) =  -577.803323424     A.U. after   25 cycles
 Normal termination of Gaussian 16 at Mon Dec 14 19:02:21 2020.
 Gaussian 16:  ES64L-G16RevA.03 25-Dec-2016

 ----------------------------------------------------------------------
 # B3LYP/6-311++G(d,p) empiricaldispersion=gd3bj scf=xqc pop=npa geom=c
 heck
 ----------------------------------------------------------------------

 ------------------------------------
 CID_148350209_JID_3831_Energie_anion
 ------------------------------------
 Structure from the checkpoint file:  "JID_3831.chk"
 Charge = -1 Multiplicity = 2

                         Standard orientation:
 ---------------------------------------------------------------------
 Center     Atomic      Atomic             Coordinates (Angstroms)
 Number     Number       Type             X           Y           Z
 ---------------------------------------------------------------------
      1          6           0        2.116235   -1.088908   -0.799687
      2          6           0        2.059787    0.219677    0.011380
      3          6           0        1.986488    1.736994   -0.301217
      4          6           0        0.666032    1.820877    0.510124
      5          6           0        0.714395    0.189141    0.755061
      6          6           0        0.788312   -1.246965    1.318690
      7          6           0        0.891139   -1.827452   -0.168480
      8          6           0       -0.368955   -1.241343   -0.881628
      9          6           0       -0.536147    0.077749   -0.110109
     10          6           0       -0.502628    1.571245   -0.490822
     11          8           0       -1.640754   -0.080739    0.859525
     12          6           0       -2.876191   -0.060669    0.348349
     13          8           0       -3.172399    0.070970   -0.816158
     14          1           0        1.980815   -0.957095   -1.878212
     15          1           0        3.058597   -1.626004   -0.649075
     16          1           0        2.800296    0.134399    0.815050
     17          1           0        1.864948    2.028717   -1.348412
     18          1           0        2.835405    2.289473    0.110712
     19          1           0        0.544151    2.594246    1.269918
     20          1           0       -0.102080   -1.605764    1.836606
     21          1           0        1.679103   -1.468878    1.912828
     22          1           0        0.951097   -2.917915   -0.218599
     23          1           0       -0.204949   -1.095997   -1.952887
     24          1           0       -1.248236   -1.878741   -0.767435
     25          1           0       -1.437846    2.082544   -0.262792
     26          1           0       -0.242383    1.781671   -1.531016
     27          1           0       -3.604484   -0.184581    1.166410
 ---------------------------------------------------------------------

 SCF Done:  E(UB3LYP) =  -578.117281138     A.U. after   33 cycles
 SCF Done:  E(UB3LYP) =  -578.117281139     a.u. after    1 cycles

 The electronic state is 2-A.
 Alpha  occ. eigenvalues --  -19.07432 -19.02661 -10.20802 -10.13561 -10.09371
 Alpha  occ. eigenvalues --  -10.08054 -10.07808 -10.07527 -10.07263 -10.06983
 Alpha  occ. eigenvalues --  -10.06788 -10.06743 -10.06277  -1.01455  -0.93351
 Alpha  occ. eigenvalues --   -0.80310  -0.71505  -0.68083  -0.60934  -0.59042
 Alpha  occ. eigenvalues --   -0.57621  -0.53648  -0.50441  -0.46757  -0.45125
 Alpha  occ. eigenvalues --   -0.42361  -0.40764  -0.40011  -0.38159  -0.36537
 Alpha  occ. eigenvalues --   -0.35173  -0.34714  -0.33750  -0.32409  -0.31676
 Alpha  occ. eigenvalues --   -0.28314  -0.27093  -0.26943  -0.26348  -0.24546
 Alpha  occ. eigenvalues --   -0.23417  -0.22190  -0.21699  -0.20885  -0.19949
 Alpha  occ. eigenvalues --   -0.19361  -0.17371  -0.15932   0.04717
 Alpha virt. eigenvalues --    0.06820   0.06922   0.07893   0.07951   0.08853
 Alpha virt. eigenvalues --    0.09493   0.09880   0.10302   0.10465   0.11701
 Alpha virt. eigenvalues --    0.12579   0.12801   0.13155   0.14142   0.14689

  Beta  occ. eigenvalues --  -19.07430 -19.02658 -10.20787 -10.13554 -10.09359
  Beta  occ. eigenvalues --  -10.08041 -10.07801 -10.07529 -10.07254 -10.06963
  Beta  occ. eigenvalues --  -10.06768 -10.06720 -10.06252  -1.01445  -0.93344
  Beta  occ. eigenvalues --   -0.80283  -0.71474  -0.68051  -0.60903  -0.59008
  Beta  occ. eigenvalues --   -0.57579  -0.53602  -0.50402  -0.46701  -0.45075
  Beta  occ. eigenvalues --   -0.42323  -0.40743  -0.39958  -0.38131  -0.36515
  Beta  occ. eigenvalues --   -0.35139  -0.34679  -0.33720  -0.32383  -0.31652
  Beta  occ. eigenvalues --   -0.28277  -0.27070  -0.26914  -0.26320  -0.24524
  Beta  occ. eigenvalues --   -0.23396  -0.22156  -0.21664  -0.20865  -0.19932
  Beta  occ. eigenvalues --   -0.19335  -0.17340  -0.15898
  Beta virt. eigenvalues --    0.07015   0.07679   0.07788   0.08024   0.08550
  Beta virt. eigenvalues --    0.09557   0.10238   0.10374   0.10643   0.10907
  Beta virt. eigenvalues --    0.12246   0.13072   0.13244   0.13473   0.14446

 Mulliken charges and spin densities:
               1          2
     1  C    1.841434  -2.539210
     2  C   -1.276503   1.396394
     3  C    1.826506  -2.653891
     4  C   -1.841817   2.094975
     5  C    1.196856  -0.389426
     6  C    0.728857  -1.302016
     7  C   -0.605942   0.927380
     8  C   -0.141683  -0.278109
     9  C   -0.312656  -0.433744
    10  C    0.613859  -1.186959
    11  O    0.065966   0.034524
    12  C    0.671905  -0.584744
    13  O   -0.266911   0.005580
    14  H   -0.059873   0.193568
    15  H   -0.418844   0.582655
    16  H   -0.430850   0.665071
    17  H   -0.119887   0.255371
    18  H   -0.407854   0.560696
    19  H   -0.557466   0.803284
    20  H    0.009356   0.154224
    21  H   -0.400735   0.593228
    22  H   -0.722944   0.974409
    23  H    0.043789   0.122237
    24  H   -0.058444   0.202015
    25  H    0.044482   0.109952
    26  H   -0.016365   0.179529
    27  H   -0.404237   0.513007
 Sum of Mulliken charges =  -1.00000   1.00000

 Dipole moment (field-independent basis, Debye):
    X=             -4.6428    Y=              1.3892    Z=             -1.9861  Tot=              5.2374
 Quadrupole moment (field-independent basis, Debye-Ang):
   XX=           -147.9455   YY=           -124.6257   ZZ=           -113.2372
   XY=              1.0256   XZ=             -5.4336   YZ=             -2.0154

 Summary of Natural Population Analysis:

                                       Natural Population
                Natural  -----------------------------------------------
    Atom  No    Charge         Core      Valence    Rydberg      Total
 -----------------------------------------------------------------------
      C    1   -0.19027      0.99960     2.18064    0.01002     3.19027
      C    2   -0.10812      0.99950     2.09452    0.01411     3.10812
      C    3   -0.18635      0.99960     2.17712    0.00962     3.18635
      C    4   -0.07861      0.99957     2.06576    0.01328     3.07861
      C    5   -0.04231      0.99937     2.02642    0.01652     3.04231
      C    6   -0.18280      0.99958     2.17299    0.01023     3.18280
      C    7   -0.10394      0.99962     2.09128    0.01304     3.10394
      C    8   -0.20275      0.99956     2.19315    0.01004     3.20275
      C    9    0.14031      0.99935     1.84313    0.01720     2.85969
      C   10   -0.19738      0.99956     2.18824    0.00959     3.19738
      O   11   -0.28628      0.99986     3.27465    0.01177     4.28628
      C   12    0.33533      0.99974     1.63955    0.02538     2.66467
      O   13   -0.30006      0.99988     3.29412    0.00607     4.30006
      H   14    0.09624      0.00000     0.40237    0.00138     0.40376
      H   15    0.10479      0.00000     0.39313    0.00208     0.39521
      H   16    0.10656      0.00000     0.38984    0.00360     0.39344
      H   17    0.09358      0.00000     0.40504    0.00138     0.40642
      H   18    0.10366      0.00000     0.39433    0.00201     0.39634
      H   19    0.10270      0.00000     0.39612    0.00117     0.39730
      H   20    0.10620      0.00000     0.39206    0.00173     0.39380
      H   21    0.10527      0.00000     0.39305    0.00168     0.39473
      H   22    0.10282      0.00000     0.39536    0.00182     0.39718
      H   23    0.10538      0.00000     0.39352    0.00110     0.39462
      H   24    0.10822      0.00000     0.39070    0.00108     0.39178
      H   25    0.10848      0.00000     0.39056    0.00096     0.39152
      H   26    0.10239      0.00000     0.39639    0.00122     0.39761
      H   27    0.05694      0.00000     0.44106    0.00200     0.44306
 =======================================================================
   * Total *   -0.00000     12.99478    34.81512    0.19010    48.00000

 Normal termination of Gaussian 16 at Mon Dec 14 19:13:00 2020.
