 Gaussian 16, Revision A.03,

 -----------------------------------------------------------
 # opt freq B3LYP/6-31G(d) empiricaldispersion=gd3bj scf=xqc
 -----------------------------------------------------------

 -------------------------------
 CID_100939853_JID_1416_neutraal
 -------------------------------
 Symbolic Z-matrix:
 Charge =  0 Multiplicity = 1

 SCF Done:  E(RB3LYP) =  -460.904098804     A.U. after   15 cycles
 SCF Done:  E(RB3LYP) =  -460.906236045     A.U. after   12 cycles
 SCF Done:  E(RB3LYP) =  -460.906465112     A.U. after   12 cycles
 SCF Done:  E(RB3LYP) =  -460.906497214     A.U. after   10 cycles
 SCF Done:  E(RB3LYP) =  -460.906500186     A.U. after    9 cycles
 SCF Done:  E(RB3LYP) =  -460.906500934     A.U. after    8 cycles
 SCF Done:  E(RB3LYP) =  -460.906501254     A.U. after    8 cycles
 Optimization completed.
    -- Stationary point found.

 1\1\GINC-NODE115\FOpt\RB3LYP\6-31G(d)\C9H14N2\VSC10255\08-Dec-2020\0\\
 # opt freq B3LYP/6-31G(d) empiricaldispersion=gd3bj scf=xqc\\CID_10093
 9853_JID_1416_neutraal\\0,1\C,-1.4228430727,0.3442684508,-0.2545753219
 \C,-0.8601817168,-1.0481967529,0.0574855271\C,0.5905466341,-1.18486117
 62,-0.4231067233\C,1.4917894554,-0.0871493184,0.1660588148\C,0.9207582
 598,1.3058786673,-0.1425212835\C,-0.5307596334,1.4433388995,0.33582634
 77\C,2.9283221715,-0.2471925788,-0.3634185965\N,3.8328352672,0.6500267
 869,0.3348394057\C,4.3881025514,1.6119293576,-0.2869136448\C,4.2195982

 Normal termination of Gaussian 16 at Tue Dec  8 19:55:20 2020.

 --------------------------------------------------------------------
 #N Geom=AllCheck Guess=TCheck SCRF=Check GenChk RB3LYP/6-31G(d) Freq
 --------------------------------------------------------------------

 Structure from the checkpoint file:  "JID_1416.chk"
 -------------------------------
 CID_100939853_JID_1416_neutraal
 -------------------------------
 Charge =  0 Multiplicity = 1

 SCF Done:  E(RB3LYP) =  -460.906501254     A.U. after    1 cycles

  Exact polarizability: 118.608 -11.158  94.208  -0.763   5.441  90.525
 Approx polarizability: 148.062 -25.786 146.402  -9.051  24.815 152.059

                      1                      2                      3
                      A                      A                      A
 Frequencies --     28.9260                51.5061               119.8828
 Red. masses --      5.9660                 3.7939                 3.2671
 Frc consts  --      0.0029                 0.0059                 0.0277
 IR Inten    --      0.4586                 0.5742                 1.1601

                      4                      5                      6
                      A                      A                      A
 Frequencies --    144.1679               202.4861               230.6819
 Red. masses --      4.6775                 3.2958                 1.8334
 Frc consts  --      0.0573                 0.0796                 0.0575
 IR Inten    --      4.0846                 4.6085                 0.2379

                      7                      8                      9
                      A                      A                      A
 Frequencies --    266.8074               318.4832               348.3202
 Red. masses --      5.2317                 2.7392                 2.6166
 Frc consts  --      0.2194                 0.1637                 0.1870
 IR Inten    --     13.1473                 3.3162                 1.1821

                     10                     11                     12
                      A                      A                      A
 Frequencies --    400.1710               431.9535               449.2091
 Red. masses --      2.8926                 2.6072                 2.5846
 Frc consts  --      0.2729                 0.2866                 0.3073
 IR Inten    --      1.7760                 0.8593                 0.9371

                     13                     14                     15
                      A                      A                      A
 Frequencies --    450.4612               529.3369               617.7535
 Red. masses --      3.0006                 1.7937                 2.8700
 Frc consts  --      0.3587                 0.2961                 0.6453
 IR Inten    --      0.3812                 0.9107                 5.3712

                     16                     17                     18
                      A                      A                      A
 Frequencies --    689.6028               797.3126               807.4989
 Red. masses --      5.9727                 2.1096                 1.6804
 Frc consts  --      1.6735                 0.7901                 0.6456
 IR Inten    --      2.9421                 0.3746                 0.1824

                     19                     20                     21
                      A                      A                      A
 Frequencies --    858.0687               875.3382               906.9993
 Red. masses --      2.2850                 1.6492                 2.3211
 Frc consts  --      0.9912                 0.7445                 1.1250
 IR Inten    --      0.9206                 0.8100                 1.3353

                     22                     23                     24
                      A                      A                      A
 Frequencies --    916.0294               934.3040               947.0554
 Red. masses --      1.5657                 1.5549                 2.8941
 Frc consts  --      0.7740                 0.7997                 1.5294
 IR Inten    --      6.5969                 3.9149                13.9670

                     25                     26                     27
                      A                      A                      A
 Frequencies --    982.7658               990.8852              1020.4412
 Red. masses --      2.1774                 1.7592                 3.1480
 Frc consts  --      1.2390                 1.0177                 1.9314
 IR Inten    --      3.7589                 0.6794                22.1258

                     28                     29                     30
                      A                      A                      A
 Frequencies --   1052.2353              1080.7950              1103.2639
 Red. masses --      1.8181                 1.3119                 3.0264
 Frc consts  --      1.1860                 0.9029                 2.1704
 IR Inten    --      0.1215                 0.4563                 4.4204

                     31                     32                     33
                      A                      A                      A
 Frequencies --   1105.6105              1120.0665              1190.2717
 Red. masses --      1.2868                 2.2470                 2.3398
 Frc consts  --      0.9268                 1.6609                 1.9531
 IR Inten    --      0.0886                 0.3946                 1.4792

                     34                     35                     36
                      A                      A                      A
 Frequencies --   1217.9750              1265.1068              1292.9678
 Red. masses --      1.4198                 1.2929                 1.1793
 Frc consts  --      1.2410                 1.2191                 1.1616
 IR Inten    --      1.2132                 2.5623                 0.1222

                     37                     38                     39
                      A                      A                      A
 Frequencies --   1305.7358              1316.3887              1330.4306
 Red. masses --      1.2637                 1.2608                 1.2122
 Frc consts  --      1.2694                 1.2873                 1.2642
 IR Inten    --      2.6037                 3.4042                 2.3271

                     40                     41                     42
                      A                      A                      A
 Frequencies --   1360.0914              1387.1228              1396.4584
 Red. masses --      1.2826                 1.3764                 1.2850
 Frc consts  --      1.3979                 1.5604                 1.4764
 IR Inten    --      0.2998                 0.8750                 0.3782

                     43                     44                     45
                      A                      A                      A
 Frequencies --   1401.2662              1403.5803              1406.2698
 Red. masses --      1.4213                 1.4851                 1.4050
 Frc consts  --      1.6443                 1.7237                 1.6371
 IR Inten    --      0.2047                 1.3759                 5.1401

                     46                     47                     48
                      A                      A                      A
 Frequencies --   1409.1033              1422.5202              1511.8802
 Red. masses --      1.2765                 1.5139                 1.0870
 Frc consts  --      1.4933                 1.8049                 1.4640
 IR Inten    --      4.1720                 0.2198                 0.0723

                     49                     50                     51
                      A                      A                      A
 Frequencies --   1515.6979              1518.5480              1522.4703
 Red. masses --      1.0927                 1.0969                 1.0845
 Frc consts  --      1.4791                 1.4902                 1.4811
 IR Inten    --      1.8149                 2.1606                 6.2906

                     52                     53                     54
                      A                      A                      A
 Frequencies --   1529.3421              1538.0964              1698.3254
 Red. masses --      1.0966                 1.1001                10.1202
 Frc consts  --      1.5111                 1.5334                17.1981
 IR Inten    --     11.0027                 2.8329                16.0789

                     55                     56                     57
                      A                      A                      A
 Frequencies --   2341.2781              3010.1992              3018.4844
 Red. masses --     12.6475                 1.0635                 1.0669
 Frc consts  --     40.8470                 5.6776                 5.7271
 IR Inten    --      1.4016                11.7398                22.7491

                     58                     59                     60
                      A                      A                      A
 Frequencies --   3020.2081              3024.3263              3027.1074
 Red. masses --      1.0716                 1.0716                 1.0636
 Frc consts  --      5.7590                 5.7749                 5.7421
 IR Inten    --      8.6812                10.5676                 4.9980

                     61                     62                     63
                      A                      A                      A
 Frequencies --   3030.2619              3036.1487              3066.7003
 Red. masses --      1.0636                 1.0712                 1.0982
 Frc consts  --      5.7542                 5.8177                 6.0852
 IR Inten    --     14.6398                68.8042                33.1620

                     64                     65                     66
                      A                      A                      A
 Frequencies --   3075.9867              3076.8768              3079.0306
 Red. masses --      1.0953                 1.0963                 1.0998
 Frc consts  --      6.1062                 6.1150                 6.1429
 IR Inten    --     66.5311                53.7169                19.1366

                     67                     68                     69
                      A                      A                      A
 Frequencies --   3081.3510              3086.5812              3155.5308
 Red. masses --      1.0998                 1.1003                 1.0884
 Frc consts  --      6.1527                 6.1760                 6.3856
 IR Inten    --     43.8461                77.6708                 8.0833

 - Thermochemistry -
 -------------------
 Temperature   298.150 Kelvin.  Pressure   1.00000 Atm.
 Atom     1 has atomic number  6 and mass  12.00000

 Molecular mass:   150.11570 amu.
 Principal axes and moments of inertia in atomic units:
                           1         2         3
     Eigenvalues --   852.859003090.955553325.67647
           X            0.99990   0.01082   0.00914
           Y           -0.00984   0.99480  -0.10141
           Z           -0.01019   0.10131   0.99480
 This molecule is an asymmetric top.
 Rotational symmetry number  1.
 Warning -- assumption of classical behavior for rotation
           may cause significant error
 Rotational temperatures (Kelvin)      0.10156     0.02802     0.02604
 Rotational constants (GHZ):           2.11611     0.58388     0.54267
 Zero-point vibrational energy     579280.5 (Joules/Mol)
                                  138.45137 (Kcal/Mol)
 Warning -- explicit consideration of  15 degrees of freedom as
           vibrations may cause significant error
 Vibrational temperatures:     41.62    74.11   172.48   207.43   291.33
          (Kelvin)            331.90   383.88   458.23   501.16   575.76
                              621.48   646.31   648.11   761.60   888.81
                              992.18  1147.16  1161.81  1234.57  1259.42
                             1304.97  1317.96  1344.26  1362.60  1413.98
                             1425.66  1468.19  1513.93  1555.02  1587.35
                             1590.73  1611.53  1712.54  1752.39  1820.21
                             1860.29  1878.66  1893.99  1914.19  1956.87
                             1995.76  2009.19  2016.11  2019.44  2023.31
                             2027.39  2046.69  2175.26  2180.75  2184.85
                             2190.50  2200.38  2212.98  2443.51  3368.58
                             4331.01  4342.93  4345.41  4351.33  4355.33
                             4359.87  4368.34  4412.30  4425.66  4426.94
                             4430.04  4433.38  4440.90  4540.11

 Zero-point correction=                           0.220636 (Hartree/Particle)
 Thermal correction to Energy=                    0.231306
 Thermal correction to Enthalpy=                  0.232250
 Thermal correction to Gibbs Free Energy=         0.183269
 Sum of electronic and zero-point Energies=           -460.685865
 Sum of electronic and thermal Energies=              -460.675195
 Sum of electronic and thermal Enthalpies=            -460.674251
 Sum of electronic and thermal Free Energies=         -460.723232

                     E (Thermal)             CV                S
                      KCal/Mol        Cal/Mol-Kelvin    Cal/Mol-Kelvin
 Total                  145.147             40.245            103.089
 Electronic               0.000              0.000              0.000
 Translational            0.889              2.981             40.929
 Rotational               0.889              2.981             30.551
 Vibrational            143.369             34.284             31.610
 Vibration     1          0.593              1.984              5.902
 Vibration     2          0.596              1.977              4.759
 Vibration     3          0.609              1.933              3.102
 Vibration     4          0.616              1.909              2.748
 Vibration     5          0.639              1.836              2.110
 Vibration     6          0.652              1.794              1.874
 Vibration     7          0.672              1.734              1.617
 Vibration     8          0.705              1.638              1.318
 Vibration     9          0.726              1.579              1.174
 Vibration    10          0.766              1.470              0.962
 Vibration    11          0.793              1.401              0.852
 Vibration    12          0.808              1.363              0.798
 Vibration    13          0.809              1.360              0.794
 Vibration    14          0.884              1.185              0.589
 Vibration    15          0.978              0.994              0.420

 Optimization completed.
    -- Stationary point found.

 1\1\GINC-NODE115\Freq\RB3LYP\6-31G(d)\C9H14N2\VSC10255\08-Dec-2020\0\\
 #N Geom=AllCheck Guess=TCheck SCRF=Check GenChk RB3LYP/6-31G(d) Freq\\
 CID_100939853_JID_1416_neutraal\\0,1\C,-1.4228430727,0.3442684508,-0.2
 545753219\C,-0.8601817168,-1.0481967529,0.0574855271\C,0.5905466341,-1
 .1848611762,-0.4231067233\C,1.4917894554,-0.0871493184,0.1660588148\C,
 0.9207582598,1.3058786673,-0.1425212835\C,-0.5307596334,1.4433388995,0
 .3358263477\C,2.9283221715,-0.2471925788,-0.3634185965\N,3.8328352672,
 0.6500267869,0.3348394057\C,4.3881025514,1.6119293576,-0.2869136448\C,

 Normal termination of Gaussian 16 at Tue Dec  8 20:00:49 2020.

 ----------------------------------------------------------------------
 # B3LYP/6-311++G(d,p) empiricaldispersion=gd3bj scf=xqc pop=npa geom=c
 heck
 ----------------------------------------------------------------------

 ---------------------------------------
 CID_100939853_JID_1416_Energie_neutraal
 ---------------------------------------
 Structure from the checkpoint file:  "JID_1416.chk"
 Charge =  0 Multiplicity = 1

 SCF Done:  E(RB3LYP) =  -461.030605161     A.U. after   13 cycles
 Normal termination of Gaussian 16 at Tue Dec  8 20:03:14 2020.

 ----------------------------------------------------------------------
 # B3LYP/6-311++G(d,p) empiricaldispersion=gd3bj scf=xqc pop=npa geom=c
 heck
 ----------------------------------------------------------------------

 -------------------------------------
 CID_100939853_JID_1416_Energie_kation
 -------------------------------------
 Structure from the checkpoint file:  "JID_1416.chk"
 Charge =  1 Multiplicity = 2

 SCF Done:  E(UB3LYP) =  -460.666733556     A.U. after   29 cycles
 Normal termination of Gaussian 16 at Tue Dec  8 20:10:18 2020.
 Gaussian 16:  ES64L-G16RevA.03 25-Dec-2016

 ------------------------------------
 CID_100939853_JID_1416_Energie_anion
 ------------------------------------
 Structure from the checkpoint file:  "JID_1416.chk"
 Charge = -1 Multiplicity = 2

                         Standard orientation:
 ---------------------------------------------------------------------
 Center     Atomic      Atomic             Coordinates (Angstroms)
 Number     Number       Type             X           Y           Z
 ---------------------------------------------------------------------
      1          6           0        2.933125    0.913543    0.236896
      2          6           0        2.931024   -0.610261    0.412807
      3          6           0        1.530281   -1.130172    0.761905
      4          6           0        0.486223   -0.699532   -0.281560
      5          6           0        0.496639    0.826855   -0.460054
      6          6           0        1.897341    1.348458   -0.807300
      7          6           0       -0.905200   -1.219190    0.122773
      8          7           0       -1.863369   -0.998437   -0.946756
      9          6           0       -2.823092   -0.177509   -0.788126
     10          6           0       -3.089839    0.596645    0.411452
     11          7           0       -3.312399    1.231459    1.359795
     12          1           0        3.932991    1.262491   -0.048709
     13          1           0        2.696302    1.388494    1.200083
     14          1           0        3.268203   -1.082601   -0.521157
     15          1           0        3.645010   -0.907705    1.190462
     16          1           0        1.233927   -0.737497    1.746028
     17          1           0        1.541339   -2.224330    0.849961
     18          1           0        0.745490   -1.161862   -1.244880
     19          1           0        0.152788    1.295833    0.474059
     20          1           0       -0.216156    1.119023   -1.239790
     21          1           0        1.878075    2.441427   -0.895569
     22          1           0        2.192255    0.958917   -1.792483
     23          1           0       -0.848193   -2.304372    0.271837
     24          1           0       -1.208515   -0.758078    1.075387
     25          1           0       -3.522160   -0.013920   -1.609273
 ---------------------------------------------------------------------

 SCF Done:  E(UB3LYP) =  -461.042628910     A.U. after   28 cycles

 The electronic state is 2-A.
 Alpha  occ. eigenvalues --  -14.13410 -14.12399 -10.06033 -10.05949 -10.05573
 Alpha  occ. eigenvalues --  -10.05009 -10.04794 -10.04464 -10.04418 -10.03932
 Alpha  occ. eigenvalues --  -10.03457  -0.76680  -0.73324  -0.71855  -0.64233
 Alpha  occ. eigenvalues --   -0.62961  -0.55952  -0.49868  -0.49167  -0.45890
 Alpha  occ. eigenvalues --   -0.43751  -0.36667  -0.35353  -0.34128  -0.33093
 Alpha  occ. eigenvalues --   -0.32338  -0.29987  -0.27843  -0.26887  -0.26281
 Alpha  occ. eigenvalues --   -0.23808  -0.23176  -0.22414  -0.21495  -0.20883
 Alpha  occ. eigenvalues --   -0.20159  -0.18956  -0.18314  -0.16979  -0.13905
 Alpha  occ. eigenvalues --   -0.09960   0.04937
 Alpha virt. eigenvalues --    0.06779   0.08580   0.09097   0.09924   0.11175
 Alpha virt. eigenvalues --    0.11228   0.12011   0.12299   0.13077   0.14033
 Alpha virt. eigenvalues --    0.14924   0.15090   0.15969   0.16376   0.17210

  Beta  occ. eigenvalues --  -14.12997 -14.11620 -10.06024 -10.05941 -10.05569
  Beta  occ. eigenvalues --  -10.04996 -10.04832 -10.04419 -10.04144 -10.03935
  Beta  occ. eigenvalues --  -10.03464  -0.75629  -0.72751  -0.71631  -0.64106
  Beta  occ. eigenvalues --   -0.62936  -0.55613  -0.49795  -0.48587  -0.45339
  Beta  occ. eigenvalues --   -0.43700  -0.36586  -0.35022  -0.34018  -0.33013
  Beta  occ. eigenvalues --   -0.32235  -0.29699  -0.27595  -0.26860  -0.25964
  Beta  occ. eigenvalues --   -0.23686  -0.23131  -0.22313  -0.20440  -0.20008
  Beta  occ. eigenvalues --   -0.19815  -0.18454  -0.18225  -0.16726  -0.11088
  Beta  occ. eigenvalues --   -0.09080
  Beta virt. eigenvalues --    0.07014   0.08679   0.09026   0.09936   0.11208
  Beta virt. eigenvalues --    0.11235   0.11908   0.12129   0.12800   0.12990
  Beta virt. eigenvalues --    0.13993   0.14854   0.15012   0.15919   0.16274

 Mulliken charges and spin densities:
               1          2
     1  C   -0.034445  -0.307878
     2  C   -0.094435  -0.246875
     3  C   -0.386771  -0.003412
     4  C    0.459887  -0.068820
     5  C   -0.200773  -0.080933
     6  C   -0.470205   0.090242
     7  C   -0.563834  -0.104237
     8  N   -0.046101   0.347966
     9  C   -0.298914   0.265509
    10  C    0.128357   0.011951
    11  N   -0.483474   0.211703
    12  H   -0.161380   0.313942
    13  H    0.135715  -0.030852
    14  H    0.133022  -0.025926
    15  H   -0.171115   0.326209
    16  H    0.134099   0.003317
    17  H    0.026864   0.098857
    18  H    0.111982   0.045039
    19  H    0.099544   0.047398
    20  H    0.172320  -0.011692
    21  H    0.118582   0.028262
    22  H    0.077670   0.040080
    23  H    0.090181   0.071891
    24  H    0.077591  -0.005652
    25  H    0.145632  -0.016091
 Sum of Mulliken charges =  -1.00000   1.00000

 Dipole moment (field-independent basis, Debye):
    X=              6.3937    Y=             -0.5756    Z=             -1.4979  Tot=              6.5920
 Quadrupole moment (field-independent basis, Debye-Ang):
   XX=           -125.0187   YY=            -86.8143   ZZ=            -86.1744
   XY=              4.5321   XZ=              5.3811   YZ=             -6.4380

 Summary of Natural Population Analysis:

                                       Natural Population
                Natural  -----------------------------------------------
    Atom  No    Charge         Core      Valence    Rydberg      Total
 -----------------------------------------------------------------------
      C    1   -0.19198      0.99963     2.18248    0.00987     3.19198
      C    2   -0.18964      0.99963     2.18139    0.00862     3.18964
      C    3   -0.18817      0.99961     2.17862    0.00993     3.18817
      C    4   -0.10756      0.99958     2.09605    0.01193     3.10756
      C    5   -0.19378      0.99961     2.18634    0.00782     3.19378
      C    6   -0.18721      0.99963     2.18032    0.00725     3.18721
      C    7   -0.10744      0.99959     2.09369    0.01416     3.10744
      N    8   -0.10500      0.99968     2.59373    0.01159     3.60500
      C    9    0.01531      0.99953     1.97108    0.01409     2.98469
      C   10    0.11030      0.99966     1.87024    0.01981     2.88970
      N   11   -0.15455      0.99979     2.64284    0.01193     3.65455
      H   12    0.09398      0.00000     0.40502    0.00099     0.40602
      H   13    0.09182      0.00000     0.40712    0.00106     0.40818
      H   14    0.09030      0.00000     0.40855    0.00116     0.40970
      H   15    0.09478      0.00000     0.40415    0.00106     0.40522
      H   16    0.09288      0.00000     0.40586    0.00127     0.40712
      H   17    0.09635      0.00000     0.40262    0.00104     0.40365
      H   18    0.09156      0.00000     0.40583    0.00261     0.40844
      H   19    0.09709      0.00000     0.40144    0.00148     0.40291
      H   20    0.10875      0.00000     0.39018    0.00106     0.39125
      H   21    0.09445      0.00000     0.40457    0.00098     0.40555
      H   22    0.08989      0.00000     0.40881    0.00130     0.41011
      H   23    0.09362      0.00000     0.40461    0.00177     0.40638
      H   24    0.08143      0.00000     0.41554    0.00303     0.41857
      H   25    0.08284      0.00000     0.41580    0.00137     0.41716
 =======================================================================
   * Total *    0.00000     10.99595    29.85688    0.14717    41.00000

 Normal termination of Gaussian 16 at Tue Dec  8 20:18:11 2020.
