 Gaussian 16, Revision A.03,

 -----------------------------------------------------------
 # opt freq B3LYP/6-31G(d) empiricaldispersion=gd3bj scf=xqc
 -----------------------------------------------------------

 -------------------------------
 CID_151173115_JID_3053_neutraal
 -------------------------------
 Symbolic Z-matrix:
 Charge =  0 Multiplicity = 1

 SCF Done:  E(RB3LYP) =  -554.343860306     A.U. after   15 cycles
 SCF Done:  E(RB3LYP) =  -554.345537479     A.U. after   13 cycles
 SCF Done:  E(RB3LYP) =  -554.347515216     A.U. after   13 cycles
 SCF Done:  E(RB3LYP) =  -554.347801841     A.U. after   13 cycles
 SCF Done:  E(RB3LYP) =  -554.347788707     A.U. after   12 cycles
 SCF Done:  E(RB3LYP) =  -554.347897423     A.U. after   12 cycles
 SCF Done:  E(RB3LYP) =  -554.347908530     A.U. after   10 cycles
 SCF Done:  E(RB3LYP) =  -554.347909787     A.U. after    9 cycles
 SCF Done:  E(RB3LYP) =  -554.347909988     A.U. after    8 cycles
 SCF Done:  E(RB3LYP) =  -554.347910030     A.U. after    7 cycles
 Optimization completed.
    -- Stationary point found.
 Normal termination of Gaussian 16 at Wed Dec  9 22:22:19 2020.

 --------------------------------------------------------------------
 #N Geom=AllCheck Guess=TCheck SCRF=Check GenChk RB3LYP/6-31G(d) Freq
 --------------------------------------------------------------------

 Structure from the checkpoint file:  "JID_3053.chk"
 -------------------------------
 CID_151173115_JID_3053_neutraal
 -------------------------------
 Charge =  0 Multiplicity = 1

 SCF Done:  E(RB3LYP) =  -554.347910030     A.U. after    1 cycles

  Exact polarizability: 116.185   0.783 115.759  -4.870   1.602 114.815
 Approx polarizability: 149.570  -5.902 170.752 -18.627   0.890 228.525

                      1                      2                      3
                      A                      A                      A
 Frequencies --     43.9991                63.7917                89.7680
 Red. masses --      7.2041                 4.3848                 3.1252
 Frc consts  --      0.0082                 0.0105                 0.0148
 IR Inten    --      0.0845                 0.5213                 0.7453

                      4                      5                      6
                      A                      A                      A
 Frequencies --    143.8747               157.1440               239.9771
 Red. masses --      3.0354                 2.6339                 3.4385
 Frc consts  --      0.0370                 0.0383                 0.1167
 IR Inten    --      0.5734                 0.8861                 1.8517

                      7                      8                      9
                      A                      A                      A
 Frequencies --    260.1539               307.3501               317.9391
 Red. masses --      3.2124                 2.0516                 2.1136
 Frc consts  --      0.1281                 0.1142                 0.1259
 IR Inten    --      0.4670                 0.0947                 0.6812

                     10                     11                     12
                      A                      A                      A
 Frequencies --    365.8026               384.6266               431.6308
 Red. masses --      2.7168                 2.7564                 3.2392
 Frc consts  --      0.2142                 0.2403                 0.3556
 IR Inten    --      0.3672                 2.6232                 0.1583

                     13                     14                     15
                      A                      A                      A
 Frequencies --    470.2791               517.3688               549.4588
 Red. masses --      2.9196                 2.9098                 3.1126
 Frc consts  --      0.3804                 0.4589                 0.5537
 IR Inten    --      1.0021                 0.6824                 1.5019

                     16                     17                     18
                      A                      A                      A
 Frequencies --    568.5995               576.2589               636.9118
 Red. masses --      4.6893                 7.1235                 2.4601
 Frc consts  --      0.8932                 1.3937                 0.5880
 IR Inten    --      2.2555                 8.1326                 2.7684

                     19                     20                     21
                      A                      A                      A
 Frequencies --    671.2799               787.2964               809.7940
 Red. masses --      3.2608                 3.4751                 2.9043
 Frc consts  --      0.8657                 1.2691                 1.1221
 IR Inten    --      1.5923                20.0309                13.1428

                     22                     23                     24
                      A                      A                      A
 Frequencies --    838.1608               856.4006               870.9694
 Red. masses --      1.8656                 1.8440                 2.7193
 Frc consts  --      0.7722                 0.7968                 1.2154
 IR Inten    --      1.2546                 5.5352                 2.1388

                     25                     26                     27
                      A                      A                      A
 Frequencies --    891.2669               902.9558               929.8647
 Red. masses --      1.6498                 2.2050                 3.0848
 Frc consts  --      0.7721                 1.0592                 1.5715
 IR Inten    --      6.2304                 1.4275                 9.4500

                     28                     29                     30
                      A                      A                      A
 Frequencies --    935.7652              1006.4179              1018.1461
 Red. masses --      1.5146                 2.0896                 2.1284
 Frc consts  --      0.7814                 1.2470                 1.2999
 IR Inten    --      1.9095                 1.2947                 1.5120

                     31                     32                     33
                      A                      A                      A
 Frequencies --   1051.1465              1084.6666              1097.8022
 Red. masses --      2.3809                 1.7204                 1.6551
 Frc consts  --      1.5500                 1.1925                 1.1752
 IR Inten    --      2.1941                 5.7501                 0.9083

                     34                     35                     36
                      A                      A                      A
 Frequencies --   1117.1610              1140.9487              1154.0845
 Red. masses --      1.9489                 1.5191                 2.3011
 Frc consts  --      1.4331                 1.1651                 1.8057
 IR Inten    --      1.2585                 1.8973                 0.1613

                     37                     38                     39
                      A                      A                      A
 Frequencies --   1173.9132              1194.8019              1204.8690
 Red. masses --      1.8156                 1.5673                 1.4039
 Frc consts  --      1.4742                 1.3183                 1.2008
 IR Inten    --      1.2183                 5.2953                 1.8771

                     40                     41                     42
                      A                      A                      A
 Frequencies --   1215.4286              1221.2933              1281.3504
 Red. masses --      1.4306                 1.5463                 2.1868
 Frc consts  --      1.2452                 1.3589                 2.1154
 IR Inten    --      0.9908                 2.9172                74.1697

                     43                     44                     45
                      A                      A                      A
 Frequencies --   1286.0920              1305.9288              1317.1892
 Red. masses --      1.2817                 1.3330                 1.1713
 Frc consts  --      1.2491                 1.3394                 1.1974
 IR Inten    --      2.7232                26.5022                 0.5589

                     46                     47                     48
                      A                      A                      A
 Frequencies --   1363.9032              1381.1414              1387.2656
 Red. masses --      1.4712                 1.4447                 1.5126
 Frc consts  --      1.6124                 1.6237                 1.7151
 IR Inten    --      6.4790                 3.8587                 8.4463

                     49                     50                     51
                      A                      A                      A
 Frequencies --   1391.3994              1394.6284              1398.1949
 Red. masses --      1.4885                 1.5540                 1.5378
 Frc consts  --      1.6978                 1.7808                 1.7713
 IR Inten    --      4.2554                 9.3018                 0.5030

                     52                     53                     54
                      A                      A                      A
 Frequencies --   1407.2961              1414.8347              1421.2038
 Red. masses --      1.5497                 1.5134                 2.3377
 Frc consts  --      1.8083                 1.7849                 2.7820
 IR Inten    --      1.5104                 0.9262                 1.6987

                     55                     56                     57
                      A                      A                      A
 Frequencies --   1499.9914              1503.0874              1512.2151
 Red. masses --      1.0800                 1.0985                 1.0897
 Frc consts  --      1.4317                 1.4622                 1.4682
 IR Inten    --      0.3334                 1.4243                 4.3222

                     58                     59                     60
                      A                      A                      A
 Frequencies --   1514.0521              1520.3303              1531.3152
 Red. masses --      1.0812                 1.0881                 1.0993
 Frc consts  --      1.4603                 1.4818                 1.5188
 IR Inten    --      2.8671                 4.7172                 3.0899

                     61                     62                     63
                      A                      A                      A
 Frequencies --   1532.9759              1747.0553              2248.8479
 Red. masses --      1.0991                 7.3731                13.8870
 Frc consts  --      1.5218                13.2591                41.3788
 IR Inten    --      1.9749                 3.2964               390.0887

                     64                     65                     66
                      A                      A                      A
 Frequencies --   3001.2174              3001.7436              3008.9504
 Red. masses --      1.0681                 1.0711                 1.0677
 Frc consts  --      5.6685                 5.6865                 5.6957
 IR Inten    --     20.2462                29.4209                34.6295

                     67                     68                     69
                      A                      A                      A
 Frequencies --   3030.9415              3038.9139              3039.5718
 Red. masses --      1.0746                 1.0682                 1.0680
 Frc consts  --      5.8164                 5.8123                 5.8135
 IR Inten    --     15.4358                28.5472                 3.0009

                     70                     71                     72
                      A                      A                      A
 Frequencies --   3045.5630              3047.4147              3061.0220
 Red. masses --      1.0845                 1.0821                 1.0827
 Frc consts  --      5.9267                 5.9205                 5.9770
 IR Inten    --     20.6455                48.3161                35.2294

                     73                     74                     75
                      A                      A                      A
 Frequencies --   3061.4594              3073.7661              3084.8526
 Red. masses --      1.0712                 1.0853                 1.0967
 Frc consts  --      5.9151                 6.0413                 6.1490
 IR Inten    --     38.9442                35.7880                60.9428

                     76                     77                     78
                      A                      A                      A
 Frequencies --   3088.9716              3095.4839              3103.4742
 Red. masses --      1.1050                 1.1016                 1.0993
 Frc consts  --      6.2121                 6.2191                 6.2381
 IR Inten    --     51.4339                43.1810                32.5457

 - Thermochemistry -
 -------------------
 Temperature   298.150 Kelvin.  Pressure   1.00000 Atm.
 Atom     1 has atomic number  6 and mass  12.00000

 Molecular mass:   177.12660 amu.
 Principal axes and moments of inertia in atomic units:
                           1         2         3
     Eigenvalues --  1594.663232475.694893076.16079
           X            0.99782   0.06470  -0.01275
           Y           -0.06396   0.99661   0.05168
           Z            0.01605  -0.05075   0.99858
 This molecule is an asymmetric top.
 Rotational symmetry number  1.
 Warning -- assumption of classical behavior for rotation
           may cause significant error
 Rotational temperatures (Kelvin)      0.05431     0.03499     0.02816
 Rotational constants (GHZ):           1.13174     0.72898     0.58669
 Zero-point vibrational energy     642651.9 (Joules/Mol)
                                  153.59750 (Kcal/Mol)
 Warning -- explicit consideration of  17 degrees of freedom as
           vibrations may cause significant error
 Vibrational temperatures:     63.30    91.78   129.16   207.00   226.10
          (Kelvin)            345.27   374.30   442.21   457.44   526.31
                              553.39   621.02   676.63   744.38   790.55
                              818.09   829.11   916.37   965.82  1132.74
                             1165.11  1205.93  1232.17  1253.13  1282.33
                             1299.15  1337.87  1346.36  1448.01  1464.89
                             1512.37  1560.59  1579.49  1607.35  1641.57
                             1660.47  1689.00  1719.05  1733.54  1748.73
                             1757.17  1843.58  1850.40  1878.94  1895.14
                             1962.35  1987.15  1995.97  2001.91  2006.56
                             2011.69  2024.79  2035.63  2044.80  2158.15
                             2162.61  2175.74  2178.38  2187.42  2203.22
                             2205.61  2513.62  3235.59  4318.08  4318.84
                             4329.21  4360.85  4372.32  4373.27  4381.89
                             4384.55  4404.13  4404.76  4422.46  4438.41
                             4444.34  4453.71  4465.21

 Zero-point correction=                           0.244773 (Hartree/Particle)
 Thermal correction to Energy=                    0.256298
 Thermal correction to Enthalpy=                  0.257242
 Thermal correction to Gibbs Free Energy=         0.206869
 Sum of electronic and zero-point Energies=           -554.103137
 Sum of electronic and thermal Energies=              -554.091612
 Sum of electronic and thermal Enthalpies=            -554.090668
 Sum of electronic and thermal Free Energies=         -554.141041

                     E (Thermal)             CV                S
                      KCal/Mol        Cal/Mol-Kelvin    Cal/Mol-Kelvin
 Total                  160.829             45.051            106.019
 Electronic               0.000              0.000              0.000
 Translational            0.889              2.981             41.422
 Rotational               0.889              2.981             30.874
 Vibrational            159.052             39.089             33.723
 Vibration     1          0.595              1.980              5.070
 Vibration     2          0.597              1.972              4.336
 Vibration     3          0.602              1.956              3.665
 Vibration     4          0.616              1.909              2.752
 Vibration     5          0.621              1.895              2.584
 Vibration     6          0.657              1.779              1.803
 Vibration     7          0.668              1.746              1.661
 Vibration     8          0.697              1.660              1.377
 Vibration     9          0.704              1.639              1.321
 Vibration    10          0.739              1.543              1.097
 Vibration    11          0.754              1.503              1.021
 Vibration    12          0.793              1.401              0.853
 Vibration    13          0.827              1.316              0.737
 Vibration    14          0.872              1.212              0.616
 Vibration    15          0.905              1.141              0.545
 Vibration    16          0.925              1.099              0.507
 Vibration    17          0.933              1.083              0.492

 Optimization completed.
    -- Stationary point found.
 Normal termination of Gaussian 16 at Wed Dec  9 22:30:14 2020.

 ----------------------------------------------------------------------
 # B3LYP/6-311++G(d,p) empiricaldispersion=gd3bj scf=xqc pop=npa geom=c
 heck
 ----------------------------------------------------------------------

 ---------------------------------------
 CID_151173115_JID_3053_Energie_neutraal
 ---------------------------------------
 Structure from the checkpoint file:  "JID_3053.chk"
 Charge =  0 Multiplicity = 1

 SCF Done:  E(RB3LYP) =  -554.493063876     A.U. after   15 cycles
 Normal termination of Gaussian 16 at Wed Dec  9 22:33:12 2020.

 ----------------------------------------------------------------------
 # B3LYP/6-311++G(d,p) empiricaldispersion=gd3bj scf=xqc pop=npa geom=c
 heck
 ----------------------------------------------------------------------

 -------------------------------------
 CID_151173115_JID_3053_Energie_kation
 -------------------------------------
 Structure from the checkpoint file:  "JID_3053.chk"
 Charge =  1 Multiplicity = 2

 SCF Done:  E(UB3LYP) =  -554.181228424     A.U. after   25 cycles
 Normal termination of Gaussian 16 at Wed Dec  9 22:39:56 2020.
 Gaussian 16:  ES64L-G16RevA.03 25-Dec-2016

 ----------------------------------------------------------------------
 # B3LYP/6-311++G(d,p) empiricaldispersion=gd3bj scf=xqc pop=npa geom=c
 heck
 ----------------------------------------------------------------------

 ------------------------------------
 CID_151173115_JID_3053_Energie_anion
 ------------------------------------
 Structure from the checkpoint file:  "JID_3053.chk"
 Charge = -1 Multiplicity = 2

                         Standard orientation:
 ---------------------------------------------------------------------
 Center     Atomic      Atomic             Coordinates (Angstroms)
 Number     Number       Type             X           Y           Z
 ---------------------------------------------------------------------
      1          6           0       -3.036997    0.263901    0.016575
      2          6           0       -2.503960   -1.166993   -0.084490
      3          6           0       -1.246259   -1.196494   -0.956723
      4          6           0       -0.260882   -0.102906   -0.602149
      5          6           0       -0.588928    0.958994    0.154259
      6          6           0       -1.993221    1.171827    0.674557
      7          6           0        0.400546    2.037828    0.533021
      8          6           0        1.861828    1.649534    0.293713
      9          6           0        2.006347    0.958530   -1.062650
     10          6           0        1.142763   -0.305431   -1.122739
     11          7           0        1.839183   -1.446266   -0.414727
     12          7           0        1.578560   -1.569595    0.783020
     13          7           0        1.391727   -1.780137    1.891648
     14          1           0       -3.261256    0.636106   -0.992580
     15          1           0       -3.974675    0.296590    0.583317
     16          1           0       -2.256015   -1.533593    0.920776
     17          1           0       -3.264488   -1.841952   -0.493648
     18          1           0       -0.747464   -2.171127   -0.875852
     19          1           0       -1.525044   -1.096008   -2.018006
     20          1           0       -2.267048    2.228480    0.542879
     21          1           0       -1.986152    1.007049    1.763507
     22          1           0        0.156681    2.945608   -0.042234
     23          1           0        0.245876    2.311415    1.585876
     24          1           0        2.503568    2.536228    0.344235
     25          1           0        2.200171    0.973797    1.088553
     26          1           0        1.674638    1.637560   -1.860278
     27          1           0        3.047989    0.692901   -1.269654
     28          1           0        1.099509   -0.663817   -2.156733
 ---------------------------------------------------------------------

 SCF Done:  E(UB3LYP) =  -554.478702757     A.U. after   33 cycles
 SCF Done:  E(UB3LYP) =  -554.478702757     a.u. after    1 cycles

 The electronic state is 2-A.
 Alpha  occ. eigenvalues --  -14.35440 -14.25354 -14.23852 -10.10906 -10.07077
 Alpha  occ. eigenvalues --  -10.06675 -10.06632 -10.06458 -10.06333 -10.06268
 Alpha  occ. eigenvalues --  -10.06262 -10.06210 -10.06132  -1.01757  -0.85980
 Alpha  occ. eigenvalues --   -0.75099  -0.70435  -0.66706  -0.63654  -0.61926
 Alpha  occ. eigenvalues --   -0.54391  -0.52101  -0.50751  -0.47097  -0.42583
 Alpha  occ. eigenvalues --   -0.40344  -0.39386  -0.37918  -0.36429  -0.35696
 Alpha  occ. eigenvalues --   -0.34383  -0.33444  -0.32725  -0.31981  -0.31248
 Alpha  occ. eigenvalues --   -0.29664  -0.28550  -0.26845  -0.26656  -0.25588
 Alpha  occ. eigenvalues --   -0.23673  -0.23280  -0.22641  -0.21565  -0.19896
 Alpha  occ. eigenvalues --   -0.18138  -0.13859  -0.13137   0.04773
 Alpha virt. eigenvalues --    0.06579   0.07031   0.08080   0.08480   0.09244
 Alpha virt. eigenvalues --    0.09510   0.10249   0.10889   0.11086   0.11256
 Alpha virt. eigenvalues --    0.11866   0.12451   0.12958   0.13387   0.13857

  Beta  occ. eigenvalues --  -14.35307 -14.25167 -14.23887 -10.10859 -10.07073
  Beta  occ. eigenvalues --  -10.06661 -10.06614 -10.06456 -10.06314 -10.06256
  Beta  occ. eigenvalues --  -10.06252 -10.06188 -10.06106  -1.01493  -0.85848
  Beta  occ. eigenvalues --   -0.75064  -0.70394  -0.66652  -0.63618  -0.61870
  Beta  occ. eigenvalues --   -0.54303  -0.52045  -0.50702  -0.47014  -0.42525
  Beta  occ. eigenvalues --   -0.40047  -0.39118  -0.37843  -0.36264  -0.35637
  Beta  occ. eigenvalues --   -0.34324  -0.33167  -0.32634  -0.31879  -0.31180
  Beta  occ. eigenvalues --   -0.29594  -0.28485  -0.26815  -0.26604  -0.25549
  Beta  occ. eigenvalues --   -0.23634  -0.23239  -0.22600  -0.21483  -0.19785
  Beta  occ. eigenvalues --   -0.17912  -0.13810  -0.13110
  Beta virt. eigenvalues --    0.07062   0.07718   0.07913   0.08991   0.09125
  Beta virt. eigenvalues --    0.09760   0.09957   0.10463   0.11351   0.11460
  Beta virt. eigenvalues --    0.11576   0.12114   0.12726   0.13218   0.13629

 Mulliken charges and spin densities:
               1          2
     1  C   -0.157101  -0.090788
     2  C   -0.610182   0.395569
     3  C    0.272527  -0.942746
     4  C   -0.124648   0.665393
     5  C   -0.890917   0.863073
     6  C    0.632386  -1.292170
     7  C    1.137712  -1.563023
     8  C   -0.805996   0.607231
     9  C    0.883444  -1.745479
    10  C    0.752677  -0.457437
    11  N   -0.612725  -0.026537
    12  N    0.755760   0.103661
    13  N   -0.315601   0.090333
    14  H   -0.068826   0.212368
    15  H   -0.378327   0.541348
    16  H    0.139119  -0.016924
    17  H   -0.206248   0.369416
    18  H    0.058605   0.096111
    19  H   -0.133934   0.294796
    20  H   -0.198874   0.361003
    21  H    0.184330  -0.022408
    22  H   -0.225724   0.404494
    23  H   -0.017665   0.169197
    24  H   -0.369233   0.548843
    25  H    0.183115  -0.055845
    26  H   -0.111458   0.243532
    27  H   -0.253435   0.449399
    28  H   -0.518780   0.797591
 Sum of Mulliken charges =  -1.00000   1.00000

 Dipole moment (field-independent basis, Debye):
    X=             -0.1230    Y=             -1.4008    Z=              2.6955  Tot=              3.0402
 Quadrupole moment (field-independent basis, Debye-Ang):
   XX=           -134.6357   YY=           -123.1470   ZZ=           -115.8081
   XY=              0.5962   XZ=              1.0984   YZ=              2.6772

 Summary of Natural Population Analysis:

                                       Natural Population
                Natural  -----------------------------------------------
    Atom  No    Charge         Core      Valence    Rydberg      Total
 -----------------------------------------------------------------------
      C    1   -0.18687      0.99963     2.17912    0.00812     3.18687
      C    2   -0.18695      0.99963     2.17874    0.00858     3.18695
      C    3   -0.19816      0.99959     2.18918    0.00939     3.19816
      C    4   -0.03002      0.99940     2.01893    0.01169     3.03002
      C    5    0.00556      0.99942     1.98493    0.01010     2.99444
      C    6   -0.19821      0.99959     2.18904    0.00958     3.19821
      C    7   -0.19835      0.99959     2.18941    0.00935     3.19835
      C    8   -0.19023      0.99963     2.18163    0.00896     3.19023
      C    9   -0.18988      0.99960     2.18073    0.00955     3.18988
      C   10   -0.01817      0.99950     2.00344    0.01524     3.01817
      N   11   -0.19098      0.99971     2.67693    0.01434     3.69098
      N   12    0.12548      0.99969     2.35920    0.01562     3.37452
      N   13   -0.04389      0.99982     2.53124    0.01283     3.54389
      H   14    0.09562      0.00000     0.40275    0.00163     0.40438
      H   15    0.09756      0.00000     0.40126    0.00118     0.40244
      H   16    0.09355      0.00000     0.40507    0.00138     0.40645
      H   17    0.09802      0.00000     0.40102    0.00096     0.40198
      H   18    0.10353      0.00000     0.39509    0.00138     0.39647
      H   19    0.10147      0.00000     0.39709    0.00144     0.39853
      H   20    0.10303      0.00000     0.39578    0.00119     0.39697
      H   21    0.09854      0.00000     0.40025    0.00121     0.40146
      H   22    0.10303      0.00000     0.39541    0.00156     0.39697
      H   23    0.10028      0.00000     0.39859    0.00113     0.39972
      H   24    0.10071      0.00000     0.39809    0.00120     0.39929
      H   25    0.09544      0.00000     0.40307    0.00148     0.40456
      H   26    0.10012      0.00000     0.39810    0.00178     0.39988
      H   27    0.10466      0.00000     0.39380    0.00155     0.39534
      H   28    0.10510      0.00000     0.39274    0.00216     0.39490
 =======================================================================
   * Total *   -0.00000     12.99479    34.84061    0.16459    48.00000

 Normal termination of Gaussian 16 at Wed Dec  9 22:48:55 2020.
