 Gaussian 16, Revision A.03,

 -----------------------------------------------------------
 # opt freq B3LYP/6-31G(d) empiricaldispersion=gd3bj scf=xqc
 -----------------------------------------------------------

 ------------------------------
 CID_152508659_JID_425_neutraal
 ------------------------------
 Symbolic Z-matrix:
 Charge =  0 Multiplicity = 1

 SCF Done:  E(RB3LYP) =  -438.802696140     A.U. after   14 cycles
 SCF Done:  E(RB3LYP) =  -438.807436307     A.U. after   12 cycles
 SCF Done:  E(RB3LYP) =  -438.808555634     A.U. after   12 cycles
 SCF Done:  E(RB3LYP) =  -438.810585477     A.U. after   14 cycles
 SCF Done:  E(RB3LYP) =  -438.811943495     A.U. after   12 cycles
 SCF Done:  E(RB3LYP) =  -438.815047100     A.U. after   13 cycles
 SCF Done:  E(RB3LYP) =  -438.816522306     A.U. after   12 cycles
 SCF Done:  E(RB3LYP) =  -438.817270940     A.U. after   12 cycles
 SCF Done:  E(RB3LYP) =  -438.817549129     A.U. after   12 cycles
 SCF Done:  E(RB3LYP) =  -438.817692671     A.U. after   11 cycles
 SCF Done:  E(RB3LYP) =  -438.823347548     A.U. after   10 cycles
 SCF Done:  E(RB3LYP) =  -438.823349957     A.U. after    9 cycles
 SCF Done:  E(RB3LYP) =  -438.823350691     A.U. after    8 cycles
 SCF Done:  E(RB3LYP) =  -438.823350859     A.U. after    8 cycles
 SCF Done:  E(RB3LYP) =  -438.823350902     A.U. after    7 cycles
 Optimization completed.
    -- Stationary point found.

 1\1\GINC-NODE359\FOpt\RB3LYP\6-31G(d)\C7H13N3\VSC10255\08-Dec-2020\0\\
 # opt freq B3LYP/6-31G(d) empiricaldispersion=gd3bj scf=xqc\\CID_15250
 8659_JID_425_neutraal\\0,1\C,0.9396811799,-0.1140105353,-0.1961557288\
 C,0.5118255756,1.2836159481,0.1407932153\C,-0.6530645033,1.5850780016,
 0.7666598093\N,-0.9799918314,2.8943977054,1.074968602\C,-0.4000092343,
 3.8860904458,0.1817142851\C,1.0574456465,3.5209097178,-0.0309168453\N,
 1.4528999657,2.3001103003,-0.0926384409\C,2.0511994921,4.6395081066,-0
 .1941945697\N,2.0170861899,5.5268749378,0.9795338811\C,-2.3028287986,3

 Normal termination of Gaussian 16 at Tue Dec  8 10:46:17 2020.

 --------------------------------------------------------------------
 #N Geom=AllCheck Guess=TCheck SCRF=Check GenChk RB3LYP/6-31G(d) Freq
 --------------------------------------------------------------------

 Structure from the checkpoint file:  "JID_425.chk"
 ------------------------------
 CID_152508659_JID_425_neutraal
 ------------------------------
 Charge =  0 Multiplicity = 1

 SCF Done:  E(RB3LYP) =  -438.823350902     A.U. after    1 cycles

  Exact polarizability: 115.828   0.231 107.932   5.969   0.518  65.833
 Approx polarizability: 158.434   0.038 161.173  12.856  -1.349  98.581

                      1                      2                      3
                      A                      A                      A
 Frequencies --     69.6430                72.9159               141.5767
 Red. masses --      2.9942                 2.8342                 1.9660
 Frc consts  --      0.0086                 0.0089                 0.0232
 IR Inten    --      1.0494                 1.8843                 3.4386

                      4                      5                      6
                      A                      A                      A
 Frequencies --    165.7237               182.3048               210.5043
 Red. masses --      1.1114                 2.7348                 1.4457
 Frc consts  --      0.0180                 0.0536                 0.0377
 IR Inten    --      1.7890                 6.6094                 4.1378

                      7                      8                      9
                      A                      A                      A
 Frequencies --    246.8547               271.7288               290.9147
 Red. masses --      1.6044                 2.1478                 1.8102
 Frc consts  --      0.0576                 0.0934                 0.0903
 IR Inten    --     21.6123                 1.1035                15.8158

                     10                     11                     12
                      A                      A                      A
 Frequencies --    332.8915               359.0146               457.0912
 Red. masses --      2.0689                 2.7984                 3.5540
 Frc consts  --      0.1351                 0.2125                 0.4375
 IR Inten    --     21.9968                19.3450                 9.4430

                     13                     14                     15
                      A                      A                      A
 Frequencies --    471.9194               530.6681               554.5536
 Red. masses --      3.1040                 4.4989                 4.4279
 Frc consts  --      0.4073                 0.7465                 0.8023
 IR Inten    --      6.3441                 7.7573                 8.8382

                     16                     17                     18
                      A                      A                      A
 Frequencies --    606.6943               638.4662               840.2405
 Red. masses --      4.1543                 3.5148                 1.3854
 Frc consts  --      0.9009                 0.8442                 0.5763
 IR Inten    --      1.2539                 0.0688                 6.7586

                     19                     20                     21
                      A                      A                      A
 Frequencies --    858.3280               893.3611               919.9908
 Red. masses --      1.6143                 2.3103                 2.6909
 Frc consts  --      0.7007                 1.0864                 1.3419
 IR Inten    --     54.0540                19.2294                44.9888

                     22                     23                     24
                      A                      A                      A
 Frequencies --    961.2065               983.4737              1036.4130
 Red. masses --      5.4513                 1.6869                 1.5731
 Frc consts  --      2.9674                 0.9613                 0.9956
 IR Inten    --      8.2375                11.4690                 0.5891

                     25                     26                     27
                      A                      A                      A
 Frequencies --   1059.0272              1067.8012              1081.1191
 Red. masses --      2.0905                 2.4825                 1.4610
 Frc consts  --      1.3814                 1.6677                 1.0061
 IR Inten    --      2.4089                11.1693                 2.6330

                     28                     29                     30
                      A                      A                      A
 Frequencies --   1103.7022              1160.2002              1175.8648
 Red. masses --      1.7206                 1.2898                 1.3291
 Frc consts  --      1.2349                 1.0229                 1.0827
 IR Inten    --     36.3613                21.4304                 6.5914

                     31                     32                     33
                      A                      A                      A
 Frequencies --   1189.0263              1222.1220              1276.4640
 Red. masses --      1.8902                 1.9698                 1.2731
 Frc consts  --      1.5745                 1.7334                 1.2221
 IR Inten    --     51.1837                10.5983                 2.0185

                     34                     35                     36
                      A                      A                      A
 Frequencies --   1320.4537              1326.7238              1357.7429
 Red. masses --      1.6633                 2.2667                 2.0224
 Frc consts  --      1.7088                 2.3508                 2.1966
 IR Inten    --      5.2041                52.6867                33.9963

                     37                     38                     39
                      A                      A                      A
 Frequencies --   1382.2900              1433.0448              1437.0525
 Red. masses --      2.1881                 1.5761                 1.8091
 Frc consts  --      2.4633                 1.9071                 2.2011
 IR Inten    --     50.2822                39.0215                 6.0104

                     40                     41                     42
                      A                      A                      A
 Frequencies --   1451.5788              1482.0079              1501.7808
 Red. masses --      1.4947                 1.1832                 1.0468
 Frc consts  --      1.8556                 1.5311                 1.3910
 IR Inten    --     10.4262                10.1138                 4.4194

                     43                     44                     45
                      A                      A                      A
 Frequencies --   1512.2129              1521.1551              1523.5504
 Red. masses --      1.0459                 1.0911                 1.0870
 Frc consts  --      1.4092                 1.4875                 1.4866
 IR Inten    --     18.9915                 0.6022                 8.3914

                     46                     47                     48
                      A                      A                      A
 Frequencies --   1531.3481              1549.9499              1667.0832
 Red. masses --      1.0597                 1.1326                 4.9194
 Frc consts  --      1.4642                 1.6031                 8.0553
 IR Inten    --      0.9389                11.9233                56.6871

                     49                     50                     51
                      A                      A                      A
 Frequencies --   1693.3634              1713.3654              2855.3188
 Red. masses --      1.1896                 5.3425                 1.0721
 Frc consts  --      2.0097                 9.2404                 5.1500
 IR Inten    --     18.1148                30.9054               117.2567

                     52                     53                     54
                      A                      A                      A
 Frequencies --   2970.4046              3004.3624              3032.9872
 Red. masses --      1.0586                 1.0563                 1.0373
 Frc consts  --      5.5032                 5.6176                 5.6221
 IR Inten    --    125.2624                53.7940                56.9721

                     55                     56                     57
                      A                      A                      A
 Frequencies --   3042.1596              3080.8941              3083.0493
 Red. masses --      1.1060                 1.1001                 1.0755
 Frc consts  --      6.0306                 6.1524                 6.0230
 IR Inten    --     37.4951                25.6593                39.9968

                     58                     59                     60
                      A                      A                      A
 Frequencies --   3113.0093              3117.0149              3131.6905
 Red. masses --      1.0866                 1.1009                 1.1034
 Frc consts  --      6.2042                 6.3021                 6.3757
 IR Inten    --      7.9436                22.8820                18.7815

                     61                     62                     63
                      A                      A                      A
 Frequencies --   3199.4123              3466.4955              3553.9235
 Red. masses --      1.0919                 1.0496                 1.0929
 Frc consts  --      6.5854                 7.4314                 8.1329
 IR Inten    --     15.9117                 3.8641                 0.7890

 - Thermochemistry -
 -------------------
 Temperature   298.150 Kelvin.  Pressure   1.00000 Atm.
 Atom     1 has atomic number  6 and mass  12.00000

 Molecular mass:   139.11095 amu.
 Principal axes and moments of inertia in atomic units:
                           1         2         3
     Eigenvalues --  1087.504901611.512542520.04690
           X            0.99999   0.00349   0.00153
           Y           -0.00350   0.99998   0.00482
           Z           -0.00152  -0.00483   0.99999
 This molecule is an asymmetric top.
 Rotational symmetry number  1.
 Warning -- assumption of classical behavior for rotation
           may cause significant error
 Rotational temperatures (Kelvin)      0.07964     0.05375     0.03437
 Rotational constants (GHZ):           1.65952     1.11991     0.71615
 Zero-point vibrational energy     529271.2 (Joules/Mol)
                                  126.49885 (Kcal/Mol)
 Warning -- explicit consideration of  16 degrees of freedom as
           vibrations may cause significant error
 Vibrational temperatures:    100.20   104.91   203.70   238.44   262.30
          (Kelvin)            302.87   355.17   390.96   418.56   478.96
                              516.54   657.65   678.99   763.51   797.88
                              872.90   918.61  1208.92  1234.94  1285.35
                             1323.66  1382.96  1415.00  1491.17  1523.70
                             1536.33  1555.49  1587.98  1669.27  1691.81
                             1710.74  1758.36  1836.55  1899.84  1908.86
                             1953.49  1988.81  2061.83  2067.60  2088.50
                             2132.28  2160.73  2175.74  2188.60  2192.05
                             2203.27  2230.03  2398.56  2436.37  2465.15
                             4108.17  4273.75  4322.61  4363.79  4376.99
                             4432.72  4435.82  4478.93  4484.69  4505.80
                             4603.24  4987.51  5113.30

 Zero-point correction=                           0.201589 (Hartree/Particle)
 Thermal correction to Energy=                    0.212349
 Thermal correction to Enthalpy=                  0.213293
 Thermal correction to Gibbs Free Energy=         0.165466
 Sum of electronic and zero-point Energies=           -438.621762
 Sum of electronic and thermal Energies=              -438.611002
 Sum of electronic and thermal Enthalpies=            -438.610058
 Sum of electronic and thermal Free Energies=         -438.657885

                     E (Thermal)             CV                S
                      KCal/Mol        Cal/Mol-Kelvin    Cal/Mol-Kelvin
 Total                  133.251             39.566            100.662
 Electronic               0.000              0.000              0.000
 Translational            0.889              2.981             40.702
 Rotational               0.889              2.981             29.869
 Vibrational            131.474             33.605             30.090
 Vibration     1          0.598              1.969              4.163
 Vibration     2          0.599              1.967              4.073
 Vibration     3          0.615              1.912              2.782
 Vibration     4          0.624              1.885              2.483
 Vibration     5          0.630              1.864              2.305
 Vibration     6          0.643              1.825              2.039
 Vibration     7          0.661              1.768              1.753
 Vibration     8          0.675              1.725              1.585
 Vibration     9          0.687              1.691              1.469
 Vibration    10          0.715              1.610              1.246
 Vibration    11          0.734              1.557              1.126
 Vibration    12          0.815              1.345              0.775
 Vibration    13          0.829              1.312              0.732
 Vibration    14          0.886              1.182              0.586
 Vibration    15          0.910              1.130              0.535
 Vibration    16          0.965              1.018              0.438

                           ! Non-Optimized Parameters !

 1\1\GINC-NODE359\Freq\RB3LYP\6-31G(d)\C7H13N3\VSC10255\08-Dec-2020\0\\
 #N Geom=AllCheck Guess=TCheck SCRF=Check GenChk RB3LYP/6-31G(d) Freq\\
 CID_152508659_JID_425_neutraal\\0,1\C,0.9396811799,-0.1140105353,-0.19
 61557288\C,0.5118255756,1.2836159481,0.1407932153\C,-0.6530645033,1.58
 50780016,0.7666598093\N,-0.9799918314,2.8943977054,1.074968602\C,-0.40
 00092343,3.8860904458,0.1817142851\C,1.0574456465,3.5209097178,-0.0309
 168453\N,1.4528999657,2.3001103003,-0.0926384409\C,2.0511994921,4.6395
 081066,-0.1941945697\N,2.0170861899,5.5268749378,0.9795338811\C,-2.302

 Normal termination of Gaussian 16 at Tue Dec  8 10:50:41 2020.

 ----------------------------------------------------------------------
 # B3LYP/6-311++G(d,p) empiricaldispersion=gd3bj scf=xqc pop=npa geom=c
 heck
 ----------------------------------------------------------------------

 --------------------------------------
 CID_152508659_JID_425_Energie_neutraal
 --------------------------------------
 Structure from the checkpoint file:  "JID_425.chk"
 Charge =  0 Multiplicity = 1

 SCF Done:  E(RB3LYP) =  -438.952976418     A.U. after   14 cycles
 Normal termination of Gaussian 16 at Tue Dec  8 10:53:23 2020.

 ----------------------------------------------------------------------
 # B3LYP/6-311++G(d,p) empiricaldispersion=gd3bj scf=xqc pop=npa geom=c
 heck
 ----------------------------------------------------------------------

 ------------------------------------
 CID_152508659_JID_425_Energie_kation
 ------------------------------------
 Structure from the checkpoint file:  "JID_425.chk"
 Charge =  1 Multiplicity = 2

 SCF Done:  E(UB3LYP) =  -438.698513365     A.U. after   19 cycles
 Normal termination of Gaussian 16 at Tue Dec  8 10:58:36 2020.
 Gaussian 16:  ES64L-G16RevA.03 25-Dec-2016

 -----------------------------------
 CID_152508659_JID_425_Energie_anion
 -----------------------------------
 Structure from the checkpoint file:  "JID_425.chk"
 Charge = -1 Multiplicity = 2

                         Standard orientation:
 ---------------------------------------------------------------------
 Center     Atomic      Atomic             Coordinates (Angstroms)
 Number     Number       Type             X           Y           Z
 ---------------------------------------------------------------------
      1          6           0        2.393666    2.051713    0.100618
      2          6           0        1.365680    0.960971    0.041601
      3          6           0        1.655233   -0.356256    0.185231
      4          7           0        0.657365   -1.314956    0.147732
      5          6           0       -0.501805   -0.946514   -0.651212
      6          6           0       -0.867431    0.484563   -0.303244
      7          7           0        0.023228    1.368747   -0.028489
      8          6           0       -2.323868    0.864358   -0.307404
      9          7           0       -3.076048    0.009792    0.625421
     10          6           0        1.016599   -2.715263    0.119385
     11          1           0        2.413414    2.635274   -0.829393
     12          1           0        3.396840    1.642116    0.260419
     13          1           0        2.172942    2.756067    0.912445
     14          1           0        2.656009   -0.706991    0.419766
     15          1           0       -0.288020   -1.034728   -1.740822
     16          1           0       -1.335541   -1.612499   -0.414210
     17          1           0       -2.386752    1.944535   -0.109400
     18          1           0       -2.738404    0.684144   -1.311302
     19          1           0       -2.804408    0.243600    1.579411
     20          1           0       -4.070828    0.214586    0.550468
     21          1           0        1.271144   -3.064152   -0.897367
     22          1           0        1.875853   -2.891023    0.773269
     23          1           0        0.177498   -3.317434    0.484221
 ---------------------------------------------------------------------

 SCF Done:  E(UB3LYP) =  -438.938666814     A.U. after   33 cycles
 SCF Done:  E(UB3LYP) =  -438.938666814     a.u. after    1 cycles

 The electronic state is 2-A.
 Alpha  occ. eigenvalues --  -14.21862 -14.18084 -14.17728 -10.09233 -10.08869
 Alpha  occ. eigenvalues --  -10.08711 -10.08039 -10.07762 -10.07065 -10.05718
 Alpha  occ. eigenvalues --   -0.85499  -0.79656  -0.76316  -0.67120  -0.61814
 Alpha  occ. eigenvalues --   -0.59910  -0.56883  -0.51125  -0.47376  -0.40114
 Alpha  occ. eigenvalues --   -0.39339  -0.38912  -0.36472  -0.33844  -0.32950
 Alpha  occ. eigenvalues --   -0.31153  -0.30642  -0.29971  -0.29186  -0.28561
 Alpha  occ. eigenvalues --   -0.27736  -0.26715  -0.24350  -0.22019  -0.18096
 Alpha  occ. eigenvalues --   -0.13834  -0.13122  -0.07312   0.04833
 Alpha virt. eigenvalues --    0.06569   0.07836   0.08389   0.09030   0.09668
 Alpha virt. eigenvalues --    0.10608   0.10961   0.11336   0.11743   0.12345
 Alpha virt. eigenvalues --    0.13339   0.14096   0.14676   0.15598   0.16376

  Beta  occ. eigenvalues --  -14.21801 -14.17988 -14.17656 -10.09203 -10.08862
  Beta  occ. eigenvalues --  -10.08635 -10.07957 -10.07749 -10.07093 -10.05707
  Beta  occ. eigenvalues --   -0.85381  -0.79502  -0.76190  -0.67038  -0.61730
  Beta  occ. eigenvalues --   -0.59851  -0.56736  -0.51049  -0.47262  -0.40050
  Beta  occ. eigenvalues --   -0.39224  -0.38780  -0.36380  -0.33740  -0.32842
  Beta  occ. eigenvalues --   -0.31103  -0.30591  -0.29916  -0.29135  -0.28506
  Beta  occ. eigenvalues --   -0.27694  -0.26646  -0.24266  -0.21755  -0.17666
  Beta  occ. eigenvalues --   -0.13722  -0.13048  -0.07053
  Beta virt. eigenvalues --    0.07103   0.07854   0.08125   0.09055   0.09811
  Beta virt. eigenvalues --    0.10194   0.11020   0.11362   0.11667   0.11767
  Beta virt. eigenvalues --    0.12794   0.13688   0.14420   0.14925   0.15657

 Mulliken charges and spin densities:
               1          2
     1  C    0.222425  -0.848376
     2  C    0.365159  -0.264832
     3  C   -0.849106   0.544305
     4  N    0.038809   0.187718
     5  C   -0.032528  -0.514564
     6  C   -0.119417   0.462774
     7  N   -0.057881   0.152065
     8  C    0.596715  -1.270017
     9  N   -0.374994   0.029663
    10  C    0.835527  -1.119224
    11  H    0.068075   0.072067
    12  H   -0.030318   0.156408
    13  H    0.082997   0.046523
    14  H   -0.291929   0.429104
    15  H    0.026190   0.046467
    16  H    0.307241  -0.048808
    17  H   -0.048966   0.190405
    18  H   -0.379817   0.532214
    19  H   -0.021164   0.238629
    20  H   -0.439116   0.687585
    21  H   -0.086675   0.202139
    22  H   -0.533835   0.661827
    23  H   -0.277392   0.425929
 Sum of Mulliken charges =  -1.00000   1.00000

 Dipole moment (field-independent basis, Debye):
    X=              4.3714    Y=              1.3233    Z=             -2.0078  Tot=              4.9892
 Quadrupole moment (field-independent basis, Debye-Ang):
   XX=           -125.5507   YY=           -102.0628   ZZ=            -85.9615
   XY=              6.8181   XZ=             -1.2077   YZ=              4.0962

 Summary of Natural Population Analysis:

                                       Natural Population
                Natural  -----------------------------------------------
    Atom  No    Charge         Core      Valence    Rydberg      Total
 -----------------------------------------------------------------------
      C    1   -0.28779      0.99964     2.28298    0.00517     3.28779
      C    2    0.02072      0.99950     1.96764    0.01214     2.97928
      C    3    0.01519      0.99946     1.97356    0.01179     2.98481
      N    4   -0.23868      0.99968     2.72732    0.01168     3.73868
      C    5   -0.11238      0.99957     2.10186    0.01096     3.11238
      C    6    0.14871      0.99959     1.83551    0.01619     2.85129
      N    7   -0.23091      0.99963     2.71978    0.01150     3.73091
      C    8   -0.10890      0.99958     2.09626    0.01305     3.10890
      N    9   -0.42208      0.99977     2.91143    0.01088     3.92208
      C   10   -0.17125      0.99965     2.16252    0.00908     3.17125
      H   11    0.09599      0.00000     0.40231    0.00170     0.40401
      H   12    0.09673      0.00000     0.40249    0.00078     0.40327
      H   13    0.09845      0.00000     0.39980    0.00175     0.40155
      H   14    0.09389      0.00000     0.40468    0.00144     0.40611
      H   15    0.07740      0.00000     0.42066    0.00194     0.42260
      H   16    0.11057      0.00000     0.38663    0.00280     0.38943
      H   17    0.08988      0.00000     0.40784    0.00228     0.41012
      H   18    0.09341      0.00000     0.40446    0.00214     0.40659
      H   19    0.17363      0.00000     0.32384    0.00252     0.32637
      H   20    0.17980      0.00000     0.31159    0.00860     0.32020
      H   21    0.08069      0.00000     0.41751    0.00180     0.41931
      H   22    0.09895      0.00000     0.39906    0.00199     0.40105
      H   23    0.09798      0.00000     0.40062    0.00141     0.40202
 =======================================================================
   * Total *   -0.00000      9.99606    27.86035    0.14359    38.00000

 Normal termination of Gaussian 16 at Tue Dec  8 11:04:47 2020.
