 Gaussian 16, Revision A.03,

 -----------------------------------------------------------
 # opt freq B3LYP/6-31G(d) empiricaldispersion=gd3bj scf=xqc
 -----------------------------------------------------------

 ------------------------------
 CID_54526483_JID_3789_neutraal
 ------------------------------
 Symbolic Z-matrix:
 Charge =  0 Multiplicity = 1

 SCF Done:  E(RB3LYP) =  -563.032828846     A.U. after   13 cycles
 SCF Done:  E(RB3LYP) =  -563.032451887     A.U. after   13 cycles
 SCF Done:  E(RB3LYP) =  -563.035664345     A.U. after   13 cycles
 SCF Done:  E(RB3LYP) =  -563.036424705     A.U. after   12 cycles
 SCF Done:  E(RB3LYP) =  -563.036313122     A.U. after   12 cycles
 SCF Done:  E(RB3LYP) =  -563.036935493     A.U. after   11 cycles
 SCF Done:  E(RB3LYP) =  -563.037304745     A.U. after   12 cycles
 SCF Done:  E(RB3LYP) =  -563.037732951     A.U. after   13 cycles
 SCF Done:  E(RB3LYP) =  -563.038229367     A.U. after   12 cycles
 SCF Done:  E(RB3LYP) =  -563.038511721     A.U. after   12 cycles
 SCF Done:  E(RB3LYP) =  -563.043110499     A.U. after   11 cycles
 SCF Done:  E(RB3LYP) =  -563.043113511     A.U. after    9 cycles
 SCF Done:  E(RB3LYP) =  -563.043115046     A.U. after    9 cycles
 SCF Done:  E(RB3LYP) =  -563.043115620     A.U. after    8 cycles
 SCF Done:  E(RB3LYP) =  -563.043115789     A.U. after    7 cycles
 Optimization completed.
    -- Stationary point found.
 Normal termination of Gaussian 16 at Sun Dec 13 16:19:03 2020.

 --------------------------------------------------------------------
 #N Geom=AllCheck Guess=TCheck SCRF=Check GenChk RB3LYP/6-31G(d) Freq
 --------------------------------------------------------------------

 Structure from the checkpoint file:  "JID_3789.chk"
 ------------------------------
 CID_54526483_JID_3789_neutraal
 ------------------------------
 Charge =  0 Multiplicity = 1

 SCF Done:  E(RB3LYP) =  -563.043115789     A.U. after    1 cycles

  Exact polarizability: 138.928   3.071 126.157  -0.736  -1.844 112.388
 Approx polarizability: 188.113   8.201 168.244  -8.022   0.123 166.603

                      1                      2                      3
                      A                      A                      A
 Frequencies --     32.5279                53.9623                63.9614
 Red. masses --      4.9718                 3.9656                 2.7448
 Frc consts  --      0.0031                 0.0068                 0.0066
 IR Inten    --      2.2090                 1.7422                 0.5154

                      4                      5                      6
                      A                      A                      A
 Frequencies --     67.4175                79.1467                91.4887
 Red. masses --      3.1558                 2.5906                 3.4763
 Frc consts  --      0.0085                 0.0096                 0.0171
 IR Inten    --      0.4919                 0.0605                 2.7929

                      7                      8                      9
                      A                      A                      A
 Frequencies --    139.1592               180.2989               201.2902
 Red. masses --      2.7080                 2.5493                 1.1623
 Frc consts  --      0.0309                 0.0488                 0.0277
 IR Inten    --      0.4401                 0.0482                 0.2220

                     10                     11                     12
                      A                      A                      A
 Frequencies --    223.4520               229.6747               236.7380
 Red. masses --      1.1230                 1.0559                 2.0068
 Frc consts  --      0.0330                 0.0328                 0.0663
 IR Inten    --      0.4850                 0.2251                 3.6482

                     13                     14                     15
                      A                      A                      A
 Frequencies --    248.9228               257.3045               269.8195
 Red. masses --      1.2086                 1.4073                 2.3464
 Frc consts  --      0.0441                 0.0549                 0.1006
 IR Inten    --      0.2398                 1.0404                 3.7649

                     16                     17                     18
                      A                      A                      A
 Frequencies --    297.9267               309.1927               338.9536
 Red. masses --      2.0691                 2.4020                 2.3794
 Frc consts  --      0.1082                 0.1353                 0.1611
 IR Inten    --      2.1025                 0.4711                 1.4793

                     19                     20                     21
                      A                      A                      A
 Frequencies --    385.0838               389.1075               414.6814
 Red. masses --      2.2541                 2.2605                 2.5856
 Frc consts  --      0.1969                 0.2016                 0.2620
 IR Inten    --      4.4613                 0.3002                 5.6831

                     22                     23                     24
                      A                      A                      A
 Frequencies --    424.2694               442.5060               503.5897
 Red. masses --      2.0451                 1.9484                 3.1273
 Frc consts  --      0.2169                 0.2248                 0.4673
 IR Inten    --      4.2505                 5.3741                 4.6217

                     25                     26                     27
                      A                      A                      A
 Frequencies --    555.1456               691.4526               791.8299
 Red. masses --      2.9673                 2.7186                 3.0300
 Frc consts  --      0.5388                 0.7658                 1.1193
 IR Inten    --      0.3073                 9.9490                 1.1531

                     28                     29                     30
                      A                      A                      A
 Frequencies --    820.3418               830.6034               872.2164
 Red. masses --      2.8342                 2.6729                 2.4849
 Frc consts  --      1.1237                 1.0865                 1.1138
 IR Inten    --      0.4556                 0.8876                 7.4688

                     31                     32                     33
                      A                      A                      A
 Frequencies --    906.3357               918.0922               939.7730
 Red. masses --      1.4733                 1.3742                 1.4907
 Frc consts  --      0.7130                 0.6825                 0.7757
 IR Inten    --      2.5501                 3.6346                 1.6149

                     34                     35                     36
                      A                      A                      A
 Frequencies --    944.5866               947.1761               953.9825
 Red. masses --      1.3324                 1.2099                 1.6448
 Frc consts  --      0.7004                 0.6395                 0.8819
 IR Inten    --      5.3300                 1.5003                 7.4038

                     37                     38                     39
                      A                      A                      A
 Frequencies --    971.4192               981.7179               983.1058
 Red. masses --      1.9077                 1.4568                 1.4397
 Frc consts  --      1.0606                 0.8272                 0.8198
 IR Inten    --      5.2569                 0.6697                 1.1690

                     40                     41                     42
                      A                      A                      A
 Frequencies --   1051.2824              1088.6524              1134.6867
 Red. masses --      1.8068                 1.7323                 2.0237
 Frc consts  --      1.1765                 1.2096                 1.5351
 IR Inten    --      6.2628                 6.8657                47.2106

                     43                     44                     45
                      A                      A                      A
 Frequencies --   1142.0693              1153.0733              1158.0609
 Red. masses --      2.5387                 2.1952                 2.1742
 Frc consts  --      1.9510                 1.7196                 1.7180
 IR Inten    --     50.3051                 4.8382                 5.6088

                     46                     47                     48
                      A                      A                      A
 Frequencies --   1174.2411              1205.4054              1212.7345
 Red. masses --      1.8954                 1.7432                 1.7976
 Frc consts  --      1.5398                 1.4923                 1.5576
 IR Inten    --      4.1348                 3.8341                 0.3576

                     49                     50                     51
                      A                      A                      A
 Frequencies --   1239.1176              1250.3969              1306.2521
 Red. masses --      2.9171                 2.1440                 1.2488
 Frc consts  --      2.6389                 1.9750                 1.2555
 IR Inten    --     41.1293                20.2736                 5.2552

                     52                     53                     54
                      A                      A                      A
 Frequencies --   1340.8307              1355.3894              1357.3616
 Red. masses --      1.3898                 1.2326                 1.3798
 Frc consts  --      1.4722                 1.3341                 1.4978
 IR Inten    --      4.0641                 0.5655                 3.7554

                     55                     56                     57
                      A                      A                      A
 Frequencies --   1377.5569              1389.3655              1394.4945
 Red. masses --      1.5061                 1.5076                 1.3253
 Frc consts  --      1.6839                 1.7146                 1.5185
 IR Inten    --      6.8547                18.0598                 6.0454

                     58                     59                     60
                      A                      A                      A
 Frequencies --   1410.7745              1417.0413              1423.1342
 Red. masses --      1.2955                 1.2041                 1.2618
 Frc consts  --      1.5192                 1.4245                 1.5057
 IR Inten    --      0.9077                 3.4253                 0.1724

                     61                     62                     63
                      A                      A                      A
 Frequencies --   1429.7318              1432.0286              1436.1917
 Red. masses --      1.3261                 1.3075                 1.3202
 Frc consts  --      1.5971                 1.5798                 1.6045
 IR Inten    --      7.8775                 5.0255                 1.9007

                     64                     65                     66
                      A                      A                      A
 Frequencies --   1444.0089              1452.9139              1457.5988
 Red. masses --      1.2966                 1.2465                 1.3322
 Frc consts  --      1.5929                 1.5504                 1.6676
 IR Inten    --     26.5318                11.4165                13.5784

                     67                     68                     69
                      A                      A                      A
 Frequencies --   1513.6426              1515.4716              1517.9011
 Red. masses --      1.0622                 1.0543                 1.0444
 Frc consts  --      1.4338                 1.4267                 1.4178
 IR Inten    --      0.8411                 0.2975                 2.6703

                     70                     71                     72
                      A                      A                      A
 Frequencies --   1520.7031              1523.0720              1525.2429
 Red. masses --      1.0575                 1.0573                 1.0488
 Frc consts  --      1.4408                 1.4450                 1.4375
 IR Inten    --      0.9950                 0.9261                 6.4156

                     73                     74                     75
                      A                      A                      A
 Frequencies --   1526.9954              1533.5502              1534.1733
 Red. masses --      1.0594                 1.0506                 1.0562
 Frc consts  --      1.4554                 1.4557                 1.4646
 IR Inten    --      3.0254                 5.0385                 3.7560

                     76                     77                     78
                      A                      A                      A
 Frequencies --   1536.7983              1542.1650              1544.0816
 Red. masses --      1.0648                 1.0556                 1.0608
 Frc consts  --      1.4817                 1.4791                 1.4901
 IR Inten    --      7.0730                 9.0111                19.1888

                     79                     80                     81
                      A                      A                      A
 Frequencies --   1817.3913              2916.1573              2962.8311
 Red. masses --      9.7854                 1.0848                 1.0728
 Frc consts  --     19.0426                 5.4355                 5.5484
 IR Inten    --    169.0143               104.7160                66.5418

                     82                     83                     84
                      A                      A                      A
 Frequencies --   2989.2826              3022.0129              3027.8445
 Red. masses --      1.0709                 1.0825                 1.0806
 Frc consts  --      5.6381                 5.8247                 5.8368
 IR Inten    --     49.2960                26.6007                 9.7482

                     85                     86                     87
                      A                      A                      A
 Frequencies --   3037.3569              3039.1389              3043.1448
 Red. masses --      1.0371                 1.0358                 1.0408
 Frc consts  --      5.6374                 5.6368                 5.6789
 IR Inten    --     32.4483                31.8432                26.9633

                     88                     89                     90
                      A                      A                      A
 Frequencies --   3046.3465              3049.8315              3071.3247
 Red. masses --      1.0375                 1.0846                 1.0371
 Frc consts  --      5.6726                 5.9440                 5.7640
 IR Inten    --     18.3978                10.1013                14.2181

                     91                     92                     93
                      A                      A                      A
 Frequencies --   3073.7230              3087.4058              3099.9740
 Red. masses --      1.0903                 1.0890                 1.1003
 Frc consts  --      6.0691                 6.1159                 6.2298
 IR Inten    --     40.3817                 7.9804                13.8326

                     94                     95                     96
                      A                      A                      A
 Frequencies --   3102.7794              3105.1368              3108.7748
 Red. masses --      1.1016                 1.1004                 1.1016
 Frc consts  --      6.2485                 6.2511                 6.2726
 IR Inten    --     22.4335                56.5490                35.6036

                     97                     98                     99
                      A                      A                      A
 Frequencies --   3114.4403              3114.7824              3128.4236
 Red. masses --      1.1018                 1.1014                 1.1004
 Frc consts  --      6.2966                 6.2959                 6.3451
 IR Inten    --     41.1909                60.0063                34.4323

                    100                    101                    102
                      A                      A                      A
 Frequencies --   3134.3000              3138.8971              3157.8192
 Red. masses --      1.1000                 1.0986                 1.1026
 Frc consts  --      6.3669                 6.3776                 6.4779
 IR Inten    --     42.4005                23.9620                12.4453

 - Thermochemistry -
 -------------------
 Temperature   298.150 Kelvin.  Pressure   1.00000 Atm.
 Atom     1 has atomic number  6 and mass  12.00000

 Molecular mass:   185.17796 amu.
 Principal axes and moments of inertia in atomic units:
                           1         2         3
     Eigenvalues --  2239.902483060.816394308.14148
           X            0.99703  -0.07679  -0.00534
           Y            0.07673   0.99699  -0.01094
           Z            0.00616   0.01050   0.99993
 This molecule is an asymmetric top.
 Rotational symmetry number  1.
 Warning -- assumption of classical behavior for rotation
           may cause significant error
 Rotational temperatures (Kelvin)      0.03867     0.02830     0.02010
 Rotational constants (GHZ):           0.80572     0.58963     0.41891
 Zero-point vibrational energy     866967.0 (Joules/Mol)
                                  207.21009 (Kcal/Mol)
 Warning -- explicit consideration of  25 degrees of freedom as
           vibrations may cause significant error
 Vibrational temperatures:     46.80    77.64    92.03    97.00   113.87
          (Kelvin)            131.63   200.22   259.41   289.61   321.50
                              330.45   340.61   358.14   370.20   388.21
                              428.65   444.86   487.68   554.05   559.84
                              596.63   610.43   636.67   724.55   798.73
                              994.85  1139.27  1180.29  1195.05  1254.92
                             1304.01  1320.93  1352.12  1359.05  1362.78
                             1372.57  1397.66  1412.47  1414.47  1512.56
                             1566.33  1632.56  1643.18  1659.02  1666.19
                             1689.47  1734.31  1744.85  1782.81  1799.04
                             1879.41  1929.16  1950.10  1952.94  1982.00
                             1998.99  2006.37  2029.79  2038.81  2047.57
                             2057.07  2060.37  2066.36  2077.61  2090.42
                             2097.16  2177.79  2180.43  2183.92  2187.95
                             2191.36  2194.48  2197.01  2206.44  2207.33
                             2211.11  2218.83  2221.59  2614.82  4195.70
                             4262.85  4300.91  4348.00  4356.39  4370.08
                             4372.64  4378.41  4383.01  4388.03  4418.95
                             4422.40  4442.09  4460.17  4464.21  4467.60
                             4472.83  4480.99  4481.48  4501.10  4509.56
                             4516.17  4543.40

 Zero-point correction=                           0.330210 (Hartree/Particle)
 Thermal correction to Energy=                    0.346961
 Thermal correction to Enthalpy=                  0.347905
 Thermal correction to Gibbs Free Energy=         0.285878
 Sum of electronic and zero-point Energies=           -562.712905
 Sum of electronic and thermal Energies=              -562.696155
 Sum of electronic and thermal Enthalpies=            -562.695211
 Sum of electronic and thermal Free Energies=         -562.757237

                     E (Thermal)             CV                S
                      KCal/Mol        Cal/Mol-Kelvin    Cal/Mol-Kelvin
 Total                  217.721             60.860            130.546
 Electronic               0.000              0.000              0.000
 Translational            0.889              2.981             41.555
 Rotational               0.889              2.981             31.758
 Vibrational            215.944             54.898             57.234
 Vibration     1          0.594              1.983              5.669
 Vibration     2          0.596              1.976              4.667
 Vibration     3          0.597              1.972              4.331
 Vibration     4          0.598              1.970              4.227
 Vibration     5          0.600              1.963              3.912
 Vibration     6          0.602              1.955              3.628
 Vibration     7          0.615              1.914              2.815
 Vibration     8          0.629              1.866              2.325
 Vibration     9          0.638              1.838              2.121
 Vibration    10          0.649              1.805              1.931
 Vibration    11          0.652              1.796              1.881
 Vibration    12          0.656              1.784              1.827
 Vibration    13          0.662              1.765              1.738
 Vibration    14          0.667              1.750              1.680
 Vibration    15          0.674              1.729              1.597
 Vibration    16          0.691              1.678              1.429
 Vibration    17          0.699              1.656              1.367
 Vibration    18          0.719              1.598              1.217
 Vibration    19          0.754              1.502              1.019
 Vibration    20          0.757              1.493              1.004
 Vibration    21          0.778              1.438              0.910
 Vibration    22          0.786              1.417              0.878
 Vibration    23          0.802              1.377              0.819
 Vibration    24          0.859              1.242              0.649
 Vibration    25          0.911              1.128              0.534

 Optimization completed.
    -- Stationary point found.
 Normal termination of Gaussian 16 at Sun Dec 13 16:29:21 2020.

 ----------------------------------------------------------------------
 # B3LYP/6-311++G(d,p) empiricaldispersion=gd3bj scf=xqc pop=npa geom=c
 heck
 ----------------------------------------------------------------------

 --------------------------------------
 CID_54526483_JID_3789_Energie_neutraal
 --------------------------------------
 Structure from the checkpoint file:  "JID_3789.chk"
 Charge =  0 Multiplicity = 1

 SCF Done:  E(RB3LYP) =  -563.204959895     A.U. after   14 cycles
 Normal termination of Gaussian 16 at Sun Dec 13 16:33:41 2020.

 ----------------------------------------------------------------------
 # B3LYP/6-311++G(d,p) empiricaldispersion=gd3bj scf=xqc pop=npa geom=c
 heck
 ----------------------------------------------------------------------

 ------------------------------------
 CID_54526483_JID_3789_Energie_kation
 ------------------------------------
 Structure from the checkpoint file:  "JID_3789.chk"
 Charge =  1 Multiplicity = 2

 SCF Done:  E(UB3LYP) =  -562.929983268     A.U. after   21 cycles
 Normal termination of Gaussian 16 at Sun Dec 13 16:42:19 2020.
 Gaussian 16:  ES64L-G16RevA.03 25-Dec-2016

 ----------------------------------------------------------------------
 # B3LYP/6-311++G(d,p) empiricaldispersion=gd3bj scf=xqc pop=npa geom=c
 heck
 ----------------------------------------------------------------------

 -----------------------------------
 CID_54526483_JID_3789_Energie_anion
 -----------------------------------
 Structure from the checkpoint file:  "JID_3789.chk"
 Charge = -1 Multiplicity = 2

                         Standard orientation:
 ---------------------------------------------------------------------
 Center     Atomic      Atomic             Coordinates (Angstroms)
 Number     Number       Type             X           Y           Z
 ---------------------------------------------------------------------
      1          6           0       -1.620301    2.060799   -1.076137
      2          6           0       -0.685132    2.027191    0.135644
      3          6           0       -1.173966    2.962763    1.246973
      4          6           0       -0.538236    0.600904    0.696853
      5          7           0       -0.058952   -0.373838   -0.269492
      6          6           0        1.223718   -0.134657   -0.908978
      7          6           0        2.422864    0.154963    0.018744
      8          6           0        2.665596   -0.968025    1.028932
      9          6           0        3.668227    0.413999   -0.837513
     10          6           0       -0.666542   -1.698749   -0.272946
     11          6           0       -0.704285   -2.451475    1.058054
     12          6           0       -2.063057   -1.474458   -0.852612
     13          8           0       -3.098387   -1.564719   -0.227971
     14          1           0       -2.621100    1.703803   -0.801920
     15          1           0       -1.248836    1.419285   -1.880861
     16          1           0       -1.721121    3.079736   -1.466768
     17          1           0        0.306387    2.378286   -0.184581
     18          1           0       -2.172423    2.667114    1.593597
     19          1           0       -0.500183    2.944453    2.111956
     20          1           0       -1.237995    3.997287    0.892202
     21          1           0        0.106432    0.638262    1.592574
     22          1           0       -1.524699    0.272645    1.042282
     23          1           0        1.459777   -1.015740   -1.517745
     24          1           0        1.137036    0.707512   -1.614078
     25          1           0        2.205376    1.075484    0.578730
     26          1           0        2.836284   -1.924575    0.517417
     27          1           0        3.548012   -0.758098    1.644160
     28          1           0        1.811377   -1.093929    1.699758
     29          1           0        3.499474    1.224571   -1.556323
     30          1           0        4.525695    0.690561   -0.214265
     31          1           0        3.945876   -0.483743   -1.405138
     32          1           0       -0.113965   -2.294918   -1.010258
     33          1           0       -1.229547   -1.876225    1.824815
     34          1           0       -1.241002   -3.398406    0.938089
     35          1           0        0.308137   -2.665484    1.408887
     36          1           0       -2.052542   -1.112791   -1.904414
 ---------------------------------------------------------------------

 SCF Done:  E(UB3LYP) =  -563.192240848     A.U. after   33 cycles
 SCF Done:  E(UB3LYP) =  -563.192240848     a.u. after    1 cycles

 The electronic state is 2-A.
 Alpha  occ. eigenvalues --  -19.01353 -14.20579 -10.14356 -10.11027 -10.09370
 Alpha  occ. eigenvalues --  -10.09203 -10.07417 -10.07120 -10.06218 -10.06157
 Alpha  occ. eigenvalues --  -10.05682 -10.05670 -10.05577  -0.94305  -0.82970
 Alpha  occ. eigenvalues --   -0.70637  -0.70328  -0.65708  -0.60054  -0.58681
 Alpha  occ. eigenvalues --   -0.58421  -0.57486  -0.52322  -0.47548  -0.45859
 Alpha  occ. eigenvalues --   -0.44509  -0.39991  -0.39416  -0.37141  -0.35936
 Alpha  occ. eigenvalues --   -0.35388  -0.34632  -0.33454  -0.33084  -0.30771
 Alpha  occ. eigenvalues --   -0.30389  -0.29163  -0.28957  -0.28684  -0.28128
 Alpha  occ. eigenvalues --   -0.27983  -0.27520  -0.26493  -0.25745  -0.24594
 Alpha  occ. eigenvalues --   -0.23927  -0.23638  -0.23342  -0.22599  -0.22399
 Alpha  occ. eigenvalues --   -0.15795  -0.10352   0.04395
 Alpha virt. eigenvalues --    0.06350   0.06720   0.07296   0.07538   0.08993
 Alpha virt. eigenvalues --    0.09277   0.09351   0.09595   0.10047   0.11316
 Alpha virt. eigenvalues --    0.11597   0.11885   0.12288   0.12567   0.12745

  Beta  occ. eigenvalues --  -19.01255 -14.20554 -10.14251 -10.11022 -10.09355
  Beta  occ. eigenvalues --  -10.09190 -10.07410 -10.07109 -10.06207 -10.06131
  Beta  occ. eigenvalues --  -10.05670 -10.05632 -10.05550  -0.94115  -0.82930
  Beta  occ. eigenvalues --   -0.70612  -0.70289  -0.65663  -0.60014  -0.58641
  Beta  occ. eigenvalues --   -0.58357  -0.57401  -0.52200  -0.47490  -0.45737
  Beta  occ. eigenvalues --   -0.44436  -0.39935  -0.39332  -0.37100  -0.35870
  Beta  occ. eigenvalues --   -0.35327  -0.34597  -0.33378  -0.33037  -0.30737
  Beta  occ. eigenvalues --   -0.30353  -0.29086  -0.28908  -0.28645  -0.28090
  Beta  occ. eigenvalues --   -0.27735  -0.27390  -0.26406  -0.25665  -0.24559
  Beta  occ. eigenvalues --   -0.23872  -0.23607  -0.23312  -0.22565  -0.22354
  Beta  occ. eigenvalues --   -0.15723  -0.10282
  Beta virt. eigenvalues --    0.06546   0.07350   0.07512   0.07936   0.07971
  Beta virt. eigenvalues --    0.09299   0.09645   0.09828   0.09863   0.10530
  Beta virt. eigenvalues --    0.11564   0.11890   0.12193   0.12425   0.12815

 Mulliken charges and spin densities:
               1          2
     1  C    0.034168  -0.641573
     2  C   -0.749606   1.295180
     3  C    0.227470  -0.894300
     4  C    0.232710  -1.015712
     5  N    0.211886   0.142530
     6  C    1.103930  -1.850203
     7  C   -1.848709   2.493581
     8  C    0.763662  -1.404279
     9  C    0.867695  -1.528807
    10  C   -0.536639   0.688393
    11  C    0.239830  -0.818922
    12  C    0.031762  -0.168006
    13  O   -0.214784   0.031340
    14  H    0.064189   0.080171
    15  H    0.156296  -0.024384
    16  H   -0.171671   0.333202
    17  H   -0.093440   0.250513
    18  H    0.015285   0.116650
    19  H   -0.216086   0.353048
    20  H   -0.175278   0.324287
    21  H    0.205722  -0.070735
    22  H    0.234309  -0.063962
    23  H    0.121181   0.032052
    24  H    0.140983  -0.005438
    25  H   -0.012083   0.177488
    26  H   -0.008699   0.157066
    27  H   -0.386694   0.545844
    28  H   -0.111250   0.236741
    29  H   -0.289854   0.423944
    30  H   -0.326792   0.479151
    31  H   -0.213264   0.343347
    32  H   -0.435728   0.576663
    33  H    0.002897   0.168958
    34  H    0.070915   0.087190
    35  H    0.151102  -0.033933
    36  H   -0.085414   0.182915
 Sum of Mulliken charges =  -1.00000   1.00000

 Dipole moment (field-independent basis, Debye):
    X=             -2.9380    Y=             -1.4603    Z=             -0.0776  Tot=              3.2818
 Quadrupole moment (field-independent basis, Debye-Ang):
   XX=           -158.3103   YY=           -134.9234   ZZ=           -120.3528
   XY=             -4.5086   XZ=             -1.5318   YZ=             -1.9739

 Summary of Natural Population Analysis:

                                       Natural Population
                Natural  -----------------------------------------------
    Atom  No    Charge         Core      Valence    Rydberg      Total
 -----------------------------------------------------------------------
      C    1   -0.28652      0.99965     2.28036    0.00651     3.28652
      C    2   -0.12146      0.99961     2.11293    0.00891     3.12146
      C    3   -0.28335      0.99965     2.27754    0.00616     3.28335
      C    4   -0.08361      0.99958     2.07238    0.01165     3.08361
      N    5   -0.28569      0.99969     2.77062    0.01537     3.78569
      C    6   -0.07286      0.99958     2.06172    0.01157     3.07286
      C    7   -0.12433      0.99961     2.11556    0.00916     3.12433
      C    8   -0.28592      0.99964     2.27956    0.00672     3.28592
      C    9   -0.28326      0.99965     2.27768    0.00593     3.28326
      C   10   -0.04253      0.99956     2.03042    0.01255     3.04253
      C   11   -0.29490      0.99964     2.28946    0.00580     3.29490
      C   12    0.23510      0.99971     1.74367    0.02153     2.76490
      O   13   -0.27706      0.99988     3.27045    0.00673     4.27706
      H   14    0.09771      0.00000     0.40143    0.00086     0.40229
      H   15    0.10263      0.00000     0.39606    0.00131     0.39737
      H   16    0.09748      0.00000     0.40182    0.00071     0.40252
      H   17    0.09414      0.00000     0.40352    0.00234     0.40586
      H   18    0.09490      0.00000     0.40424    0.00086     0.40510
      H   19    0.10038      0.00000     0.39862    0.00100     0.39962
      H   20    0.09996      0.00000     0.39916    0.00087     0.40004
      H   21    0.08875      0.00000     0.40981    0.00144     0.41125
      H   22    0.10100      0.00000     0.39774    0.00126     0.39900
      H   23    0.09447      0.00000     0.40380    0.00173     0.40553
      H   24    0.09021      0.00000     0.40823    0.00156     0.40979
      H   25    0.09407      0.00000     0.40352    0.00242     0.40593
      H   26    0.09462      0.00000     0.40429    0.00109     0.40538
      H   27    0.10105      0.00000     0.39794    0.00101     0.39895
      H   28    0.10016      0.00000     0.39849    0.00134     0.39984
      H   29    0.09978      0.00000     0.39896    0.00126     0.40022
      H   30    0.10194      0.00000     0.39672    0.00133     0.39806
      H   31    0.09533      0.00000     0.40350    0.00118     0.40467
      H   32    0.10316      0.00000     0.39532    0.00152     0.39684
      H   33    0.10318      0.00000     0.39592    0.00090     0.39682
      H   34    0.10180      0.00000     0.39735    0.00085     0.39820
      H   35    0.10134      0.00000     0.39754    0.00112     0.39866
      H   36    0.04834      0.00000     0.44881    0.00285     0.45166
 =======================================================================
   * Total *   -0.00000     12.99545    38.84512    0.15942    52.00000

 Normal termination of Gaussian 16 at Sun Dec 13 16:57:01 2020.
