 Gaussian 16, Revision A.03,

 -----------------------------------------------------------
 # opt freq B3LYP/6-31G(d) empiricaldispersion=gd3bj scf=xqc
 -----------------------------------------------------------

 -------------------------------
 CID_111086111_JID_6592_neutraal
 -------------------------------
 Symbolic Z-matrix:
 Charge =  0 Multiplicity = 1

 SCF Done:  E(RB3LYP) =  -747.769734534     A.U. after   14 cycles
 SCF Done:  E(RB3LYP) =  -747.773855300     A.U. after   13 cycles
 SCF Done:  E(RB3LYP) =  -747.769685038     A.U. after   12 cycles
 SCF Done:  E(RB3LYP) =  -747.778679637     A.U. after   13 cycles
 SCF Done:  E(RB3LYP) =  -747.782280126     A.U. after   15 cycles
 SCF Done:  E(RB3LYP) =  -747.782537987     A.U. after   13 cycles
 SCF Done:  E(RB3LYP) =  -747.783203944     A.U. after   12 cycles
 SCF Done:  E(RB3LYP) =  -747.783286255     A.U. after   12 cycles
 SCF Done:  E(RB3LYP) =  -747.783765149     A.U. after   12 cycles
 SCF Done:  E(RB3LYP) =  -747.784303544     A.U. after   12 cycles
 SCF Done:  E(RB3LYP) =  -747.792861708     A.U. after    8 cycles
 SCF Done:  E(RB3LYP) =  -747.792864194     A.U. after   10 cycles
 SCF Done:  E(RB3LYP) =  -747.792865493     A.U. after    8 cycles
 SCF Done:  E(RB3LYP) =  -747.792865817     A.U. after    7 cycles
 SCF Done:  E(RB3LYP) =  -747.792865904     A.U. after    6 cycles
 SCF Done:  E(RB3LYP) =  -747.792865925     A.U. after    6 cycles
 Optimization completed.
    -- Stationary point found.
 Normal termination of Gaussian 16 at Fri Dec 11 00:11:48 2020.

 --------------------------------------------------------------------
 #N Geom=AllCheck Guess=TCheck SCRF=Check GenChk RB3LYP/6-31G(d) Freq
 --------------------------------------------------------------------

 Structure from the checkpoint file:  "JID_6592.chk"
 -------------------------------
 CID_111086111_JID_6592_neutraal
 -------------------------------
 Charge =  0 Multiplicity = 1

 SCF Done:  E(RB3LYP) =  -747.792865925     A.U. after    1 cycles

  Exact polarizability: 145.988   9.930 148.976   8.229  -0.386 130.129
 Approx polarizability: 193.143  22.085 208.871  21.976   3.197 193.113

                      1                      2                      3
                      A                      A                      A
 Frequencies --     21.9094                33.0016                37.8468
 Red. masses --      4.8488                 4.5778                 4.1476
 Frc consts  --      0.0014                 0.0029                 0.0035
 IR Inten    --      1.1161                 0.1893                 0.6639

                      4                      5                      6
                      A                      A                      A
 Frequencies --     45.6950                67.4543                83.3485
 Red. masses --      3.4221                 3.5632                 2.9913
 Frc consts  --      0.0042                 0.0096                 0.0122
 IR Inten    --      0.5760                 1.1693                 0.5891

                      7                      8                      9
                      A                      A                      A
 Frequencies --    103.7597               108.0671               135.5476
 Red. masses --      2.3321                 3.1916                 1.1978
 Frc consts  --      0.0148                 0.0220                 0.0130
 IR Inten    --      0.0690                 0.2422                 0.4016

                     10                     11                     12
                      A                      A                      A
 Frequencies --    141.6145               177.9982               187.3495
 Red. masses --      2.7853                 3.5013                 3.0837
 Frc consts  --      0.0329                 0.0654                 0.0638
 IR Inten    --      1.8889                 2.8695                 1.8474

                     13                     14                     15
                      A                      A                      A
 Frequencies --    211.6974               233.0156               240.3007
 Red. masses --      2.2678                 1.3497                 1.5296
 Frc consts  --      0.0599                 0.0432                 0.0520
 IR Inten    --      5.6398                 0.9820                 0.7535

                     16                     17                     18
                      A                      A                      A
 Frequencies --    273.1380               280.4522               310.8507
 Red. masses --      2.3484                 1.7364                 2.9428
 Frc consts  --      0.1032                 0.0805                 0.1675
 IR Inten    --     10.1174                 2.0656                16.6230

                     19                     20                     21
                      A                      A                      A
 Frequencies --    318.6853               347.3683               379.3780
 Red. masses --      2.2342                 2.9147                 2.4557
 Frc consts  --      0.1337                 0.2072                 0.2082
 IR Inten    --      4.3517                 2.4861                 4.3825

                     22                     23                     24
                      A                      A                      A
 Frequencies --    382.2020               424.0342               437.6131
 Red. masses --      2.2337                 2.7018                 1.7020
 Frc consts  --      0.1923                 0.2862                 0.1920
 IR Inten    --      5.2661                 7.0616                15.2471

                     25                     26                     27
                      A                      A                      A
 Frequencies --    481.0631               498.9984               559.7329
 Red. masses --      1.5460                 2.8912                 2.8147
 Frc consts  --      0.2108                 0.4242                 0.5196
 IR Inten    --     21.9224                19.9763                 4.3255

                     28                     29                     30
                      A                      A                      A
 Frequencies --    603.2381               610.1083               662.9673
 Red. masses --      3.4964                 4.6067                 1.8996
 Frc consts  --      0.7496                 1.0103                 0.4919
 IR Inten    --      4.4986                10.2171               120.3779

                     31                     32                     33
                      A                      A                      A
 Frequencies --    691.9595               717.4762               781.3112
 Red. masses --      2.1545                 3.0138                 1.8295
 Frc consts  --      0.6078                 0.9141                 0.6580
 IR Inten    --      2.1911                 4.1430                62.8922

                     34                     35                     36
                      A                      A                      A
 Frequencies --    788.8631               808.5032               816.9848
 Red. masses --      2.2854                 1.1417                 1.1728
 Frc consts  --      0.8380                 0.4397                 0.4612
 IR Inten    --     61.7449                 7.6759                 0.5885

                     37                     38                     39
                      A                      A                      A
 Frequencies --    838.7903               882.2803               936.2254
 Red. masses --      2.7323                 3.1245                 2.3471
 Frc consts  --      1.1326                 1.4330                 1.2121
 IR Inten    --      3.0437                12.3078                 7.0816

                     40                     41                     42
                      A                      A                      A
 Frequencies --    954.2482               957.3144               975.3298
 Red. masses --      1.9993                 2.1520                 2.3234
 Frc consts  --      1.0726                 1.1620                 1.3022
 IR Inten    --      1.2875                 5.1825                 2.0162

                     43                     44                     45
                      A                      A                      A
 Frequencies --   1012.3783              1040.2506              1071.6651
 Red. masses --      2.1549                 3.2156                 2.4766
 Frc consts  --      1.3013                 2.0501                 1.6758
 IR Inten    --      4.4489                22.6953                 7.3838

                     46                     47                     48
                      A                      A                      A
 Frequencies --   1092.9611              1103.8442              1106.2378
 Red. masses --      2.0221                 2.0333                 1.9138
 Frc consts  --      1.4232                 1.4597                 1.3799
 IR Inten    --     33.2715                17.6317                 9.3114

                     49                     50                     51
                      A                      A                      A
 Frequencies --   1124.3496              1133.7291              1139.9993
 Red. masses --      2.9125                 1.7796                 1.6229
 Frc consts  --      2.1693                 1.3477                 1.2426
 IR Inten    --      8.6035                25.8112                16.5901

                     52                     53                     54
                      A                      A                      A
 Frequencies --   1185.5880              1186.6342              1200.9300
 Red. masses --      1.6149                 1.2913                 2.2991
 Frc consts  --      1.3374                 1.0713                 1.9536
 IR Inten    --     83.4149                 3.0307                34.9179

                     55                     56                     57
                      A                      A                      A
 Frequencies --   1219.2173              1225.4581              1244.1371
 Red. masses --      1.4491                 1.3360                 1.9640
 Frc consts  --      1.2692                 1.1821                 1.7912
 IR Inten    --      0.8439                 6.0772                13.1761

                     58                     59                     60
                      A                      A                      A
 Frequencies --   1256.5406              1259.6005              1283.1327
 Red. masses --      2.0019                 2.5318                 1.2473
 Frc consts  --      1.8623                 2.3667                 1.2099
 IR Inten    --    178.2583                26.6902                 7.2380

                     61                     62                     63
                      A                      A                      A
 Frequencies --   1329.4111              1337.0987              1354.2142
 Red. masses --      1.1659                 1.2941                 1.2993
 Frc consts  --      1.2140                 1.3631                 1.4039
 IR Inten    --     16.4896                49.6857                21.4006

                     64                     65                     66
                      A                      A                      A
 Frequencies --   1390.1923              1392.6934              1397.0706
 Red. masses --      1.4982                 1.5692                 1.4152
 Frc consts  --      1.7060                 1.7933                 1.6274
 IR Inten    --     75.9174                17.5891                35.7412

                     67                     68                     69
                      A                      A                      A
 Frequencies --   1414.1830              1418.1959              1428.8587
 Red. masses --      1.3660                 1.4313                 1.3498
 Frc consts  --      1.6095                 1.6961                 1.6237
 IR Inten    --     12.5621                29.0776                12.3009

                     70                     71                     72
                      A                      A                      A
 Frequencies --   1436.3105              1445.9730              1462.3706
 Red. masses --      1.3209                 1.2555                 1.9652
 Frc consts  --      1.6056                 1.5467                 2.4761
 IR Inten    --     28.0002                 9.4863                80.4844

                     73                     74                     75
                      A                      A                      A
 Frequencies --   1490.7469              1499.7033              1512.0217
 Red. masses --      1.1904                 1.0856                 1.0690
 Frc consts  --      1.5587                 1.4386                 1.4400
 IR Inten    --      5.1687                 1.7615                14.1279

                     76                     77                     78
                      A                      A                      A
 Frequencies --   1512.2351              1517.7090              1518.5476
 Red. masses --      1.0874                 1.0481                 1.0898
 Frc consts  --      1.4652                 1.4224                 1.4806
 IR Inten    --      8.4513                 9.6872                14.4581

                     79                     80                     81
                      A                      A                      A
 Frequencies --   1520.5534              1524.3366              1525.4973
 Red. masses --      1.0706                 1.0433                 1.0491
 Frc consts  --      1.4585                 1.4283                 1.4384
 IR Inten    --      0.1770                 8.3389                 3.5504

                     82                     83                     84
                      A                      A                      A
 Frequencies --   1532.7907              1536.9200              1542.1068
 Red. masses --      1.0745                 1.0496                 1.0678
 Frc consts  --      1.4873                 1.4607                 1.4962
 IR Inten    --      7.4662                 0.2583                 8.1535

                     85                     86                     87
                      A                      A                      A
 Frequencies --   1555.6849              1644.4289              1723.9839
 Red. masses --      1.1158                 1.2903                 4.4491
 Frc consts  --      1.5911                 2.0557                 7.7910
 IR Inten    --     12.4514               103.1470               378.5745

                     88                     89                     90
                      A                      A                      A
 Frequencies --   1825.5035              2983.9575              3000.1154
 Red. masses --     10.8443                 1.0572                 1.0736
 Frc consts  --     21.2920                 5.5461                 5.6935
 IR Inten    --    194.9067                40.1742                79.5668

                     91                     92                     93
                      A                      A                      A
 Frequencies --   3015.1944              3047.0573              3050.8609
 Red. masses --      1.1013                 1.0492                 1.0528
 Frc consts  --      5.8993                 5.7395                 5.7735
 IR Inten    --     33.1565                12.5436                43.6817

                     94                     95                     96
                      A                      A                      A
 Frequencies --   3051.5558              3051.7192              3055.5972
 Red. masses --      1.0600                 1.0692                 1.0369
 Frc consts  --      5.8158                 5.8667                 5.7042
 IR Inten    --     48.4158                 5.6507                28.1604

                     97                     98                     99
                      A                      A                      A
 Frequencies --   3071.9458              3074.6447              3086.4095
 Red. masses --      1.0621                 1.0295                 1.0986
 Frc consts  --      5.9054                 5.7341                 6.1659
 IR Inten    --     25.6639                31.2522                24.8354

                    100                    101                    102
                      A                      A                      A
 Frequencies --   3090.1113              3107.7455              3114.7804
 Red. masses --      1.1028                 1.1009                 1.1031
 Frc consts  --      6.2045                 6.2643                 6.3056
 IR Inten    --     33.2771                24.9949                24.3989

                    103                    104                    105
                      A                      A                      A
 Frequencies --   3121.8324              3136.9128              3138.3861
 Red. masses --      1.1029                 1.0965                 1.0933
 Frc consts  --      6.3328                 6.3570                 6.3445
 IR Inten    --     36.3770                14.2625                21.8457

                    106                    107                    108
                      A                      A                      A
 Frequencies --   3142.0563              3147.4529              3148.6151
 Red. masses --      1.1014                 1.0962                 1.1073
 Frc consts  --      6.4068                 6.3981                 6.4678
 IR Inten    --     19.8907                16.6325                23.2120

                    109                    110                    111
                      A                      A                      A
 Frequencies --   3180.1650              3522.0214              3635.8312
 Red. masses --      1.1071                 1.0481                 1.0970
 Frc consts  --      6.5970                 7.6602                 8.5440
 IR Inten    --     16.6842                 7.9763                 9.9719

 - Thermochemistry -
 -------------------
 Temperature   298.150 Kelvin.  Pressure   1.00000 Atm.
 Atom     1 has atomic number  6 and mass  12.00000

 Molecular mass:   229.17903 amu.
 Principal axes and moments of inertia in atomic units:
                           1         2         3
     Eigenvalues --  2725.257495140.566356186.44224
           X            0.99994   0.00785  -0.00703
           Y           -0.00786   0.99997  -0.00116
           Z            0.00702   0.00121   0.99997
 This molecule is an asymmetric top.
 Rotational symmetry number  1.
 Warning -- assumption of classical behavior for rotation
           may cause significant error
 Rotational temperatures (Kelvin)      0.03178     0.01685     0.01400
 Rotational constants (GHZ):           0.66223     0.35108     0.29173
 Zero-point vibrational energy     916331.6 (Joules/Mol)
                                  219.00852 (Kcal/Mol)
 Warning -- explicit consideration of  29 degrees of freedom as
           vibrations may cause significant error
 Vibrational temperatures:     31.52    47.48    54.45    65.74    97.05
          (Kelvin)            119.92   149.29   155.48   195.02   203.75
                              256.10   269.55   304.59   335.26   345.74
                              392.98   403.51   447.24   458.52   499.79
                              545.84   549.90   610.09   629.63   692.14
                              717.95   805.33   867.93   877.81   953.86
                              995.58  1032.29  1124.13  1135.00  1163.26
                             1175.46  1206.83  1269.40  1347.02  1372.95
                             1377.36  1403.28  1456.59  1496.69  1541.89
                             1572.53  1588.19  1591.63  1617.69  1631.18
                             1640.20  1705.80  1707.30  1727.87  1754.18
                             1763.16  1790.04  1807.88  1812.28  1846.14
                             1912.73  1923.79  1948.41  2000.18  2003.78
                             2010.07  2034.69  2040.47  2055.81  2066.53
                             2080.43  2104.03  2144.85  2157.74  2175.46
                             2175.77  2183.64  2184.85  2187.74  2193.18
                             2194.85  2205.34  2211.29  2218.75  2238.28
                             2365.97  2480.43  2626.49  4293.25  4316.50
                             4338.19  4384.04  4389.51  4390.51  4390.74
                             4396.32  4419.84  4423.73  4440.65  4445.98
                             4471.35  4481.47  4491.62  4513.32  4515.44
                             4520.72  4528.48  4530.15  4575.55  5067.40
                             5231.15

 Zero-point correction=                           0.349012 (Hartree/Particle)
 Thermal correction to Energy=                    0.368122
 Thermal correction to Enthalpy=                  0.369066
 Thermal correction to Gibbs Free Energy=         0.299932
 Sum of electronic and zero-point Energies=           -747.443854
 Sum of electronic and thermal Energies=              -747.424744
 Sum of electronic and thermal Enthalpies=            -747.423800
 Sum of electronic and thermal Free Energies=         -747.492933

                     E (Thermal)             CV                S
                      KCal/Mol        Cal/Mol-Kelvin    Cal/Mol-Kelvin
 Total                  231.000             69.045            145.505
 Electronic               0.000              0.000              0.000
 Translational            0.889              2.981             42.190
 Rotational               0.889              2.981             32.827
 Vibrational            229.223             63.084             70.487
 Vibration     1          0.593              1.985              6.453
 Vibration     2          0.594              1.983              5.640
 Vibration     3          0.594              1.982              5.369
 Vibration     4          0.595              1.979              4.996
 Vibration     5          0.598              1.970              4.226
 Vibration     6          0.600              1.961              3.810
 Vibration     7          0.605              1.946              3.382
 Vibration     8          0.606              1.943              3.303
 Vibration     9          0.613              1.918              2.866
 Vibration    10          0.615              1.912              2.782
 Vibration    11          0.628              1.869              2.349
 Vibration    12          0.632              1.857              2.254
 Vibration    13          0.643              1.823              2.029
 Vibration    14          0.654              1.790              1.856
 Vibration    15          0.657              1.779              1.801
 Vibration    16          0.676              1.723              1.576
 Vibration    17          0.680              1.710              1.531
 Vibration    18          0.700              1.653              1.358
 Vibration    19          0.705              1.638              1.317
 Vibration    20          0.725              1.581              1.178
 Vibration    21          0.749              1.514              1.042
 Vibration    22          0.752              1.508              1.030
 Vibration    23          0.786              1.418              0.878
 Vibration    24          0.798              1.388              0.834
 Vibration    25          0.837              1.292              0.707
 Vibration    26          0.854              1.252              0.661
 Vibration    27          0.915              1.118              0.524
 Vibration    28          0.962              1.025              0.444
 Vibration    29          0.969              1.010              0.433

                           ! Non-Optimized Parameters !
 Normal termination of Gaussian 16 at Fri Dec 11 00:26:17 2020.

 ----------------------------------------------------------------------
 # B3LYP/6-311++G(d,p) empiricaldispersion=gd3bj scf=xqc pop=npa geom=c
 heck
 ----------------------------------------------------------------------

 ---------------------------------------
 CID_111086111_JID_6592_Energie_neutraal
 ---------------------------------------
 Structure from the checkpoint file:  "JID_6592.chk"
 Charge =  0 Multiplicity = 1

 SCF Done:  E(RB3LYP) =  -748.014668947     A.U. after   14 cycles
 Normal termination of Gaussian 16 at Fri Dec 11 00:33:32 2020.

 ----------------------------------------------------------------------
 # B3LYP/6-311++G(d,p) empiricaldispersion=gd3bj scf=xqc pop=npa geom=c
 heck
 ----------------------------------------------------------------------

 -------------------------------------
 CID_111086111_JID_6592_Energie_kation
 -------------------------------------
 Structure from the checkpoint file:  "JID_6592.chk"
 Charge =  1 Multiplicity = 2

 SCF Done:  E(UB3LYP) =  -747.729582160     A.U. after   23 cycles
 Normal termination of Gaussian 16 at Fri Dec 11 00:50:23 2020.
 Gaussian 16:  ES64L-G16RevA.03 25-Dec-2016

 ----------------------------------------------------------------------
 # B3LYP/6-311++G(d,p) empiricaldispersion=gd3bj scf=xqc pop=npa geom=c
 heck
 ----------------------------------------------------------------------

 ------------------------------------
 CID_111086111_JID_6592_Energie_anion
 ------------------------------------
 Structure from the checkpoint file:  "JID_6592.chk"
 Charge = -1 Multiplicity = 2

                         Standard orientation:
 ---------------------------------------------------------------------
 Center     Atomic      Atomic             Coordinates (Angstroms)
 Number     Number       Type             X           Y           Z
 ---------------------------------------------------------------------
      1          6           0        3.361634   -0.307622   -1.840250
      2          6           0        2.352529    0.709803   -1.307411
      3          7           0        2.049517    0.525531    0.113383
      4          6           0        2.119598    1.702258    0.979012
      5          6           0        1.014818    2.719110    0.675876
      6          6           0        1.795647   -0.746562    0.623904
      7          7           0        1.083111   -1.675474    0.092948
      8          6           0        0.126601   -1.340558   -0.945114
      9          6           0       -1.129403   -2.210602   -0.807708
     10          6           0       -1.772865   -2.150647    0.585668
     11          6           0       -1.970178   -0.727105    1.129454
     12          6           0       -2.779515    0.145186    0.197814
     13          8           0       -3.765227   -0.200224   -0.417311
     14          8           0       -2.268168    1.400846    0.122924
     15          6           0       -2.977802    2.300785   -0.740511
     16          7           0        2.382336   -0.989959    1.872412
     17          1           0        4.306938   -0.239515   -1.290152
     18          1           0        3.563907   -0.118158   -2.900063
     19          1           0        2.982167   -1.328268   -1.739385
     20          1           0        2.774033    1.716242   -1.401994
     21          1           0        1.448484    0.694346   -1.928476
     22          1           0        2.030529    1.355919    2.009893
     23          1           0        3.105611    2.182366    0.878392
     24          1           0        0.026701    2.263028    0.790275
     25          1           0        1.090636    3.576233    1.355642
     26          1           0        1.093549    3.099609   -0.349083
     27          1           0       -0.164434   -0.279390   -0.902610
     28          1           0        0.555769   -1.505709   -1.946538
     29          1           0       -1.857465   -1.891803   -1.564110
     30          1           0       -0.871582   -3.253742   -1.026644
     31          1           0       -2.741587   -2.660975    0.556014
     32          1           0       -1.135120   -2.686322    1.295631
     33          1           0       -2.514750   -0.772335    2.082177
     34          1           0       -1.010660   -0.247424    1.333949
     35          1           0       -4.004503    2.439644   -0.391512
     36          1           0       -2.427082    3.240920   -0.699859
     37          1           0       -3.002111    1.911112   -1.761538
     38          1           0        3.364833   -0.742385    1.932734
     39          1           0        2.202168   -1.943333    2.166749
 ---------------------------------------------------------------------

 SCF Done:  E(UB3LYP) =  -748.002799176     A.U. after   31 cycles

 The electronic state is 2-A.
 Alpha  occ. eigenvalues --  -19.08143 -19.02489 -14.22587 -14.21623 -14.17282
 Alpha  occ. eigenvalues --  -10.21239 -10.16319 -10.13412 -10.10445 -10.09923
 Alpha  occ. eigenvalues --  -10.09040 -10.08963 -10.07700 -10.06836 -10.06298
 Alpha  occ. eigenvalues --  -10.05734  -1.01999  -0.93333  -0.88163  -0.79829
 Alpha  occ. eigenvalues --   -0.76966  -0.71221  -0.66980  -0.65971  -0.63482
 Alpha  occ. eigenvalues --   -0.61898  -0.56516  -0.54374  -0.52712  -0.49705
 Alpha  occ. eigenvalues --   -0.46806  -0.44558  -0.42116  -0.41573  -0.40543
 Alpha  occ. eigenvalues --   -0.40127  -0.39310  -0.38683  -0.37388  -0.37201
 Alpha  occ. eigenvalues --   -0.34921  -0.34209  -0.33699  -0.32499  -0.31116
 Alpha  occ. eigenvalues --   -0.30463  -0.29895  -0.29553  -0.28613  -0.27961
 Alpha  occ. eigenvalues --   -0.27559  -0.26728  -0.26090  -0.25310  -0.24908
 Alpha  occ. eigenvalues --   -0.24475  -0.24197  -0.23016  -0.22199  -0.19330
 Alpha  occ. eigenvalues --   -0.15392  -0.14651  -0.12076   0.04120
 Alpha virt. eigenvalues --    0.05857   0.06621   0.07223   0.07671   0.08550
 Alpha virt. eigenvalues --    0.08785   0.09171   0.09367   0.09476   0.10443
 Alpha virt. eigenvalues --    0.10920   0.11147   0.11643   0.11880   0.12327

  Beta  occ. eigenvalues --  -19.08140 -19.02484 -14.22586 -14.21590 -14.17271
  Beta  occ. eigenvalues --  -10.21235 -10.16319 -10.13379 -10.10425 -10.09897
  Beta  occ. eigenvalues --  -10.09034 -10.08957 -10.07698 -10.06834 -10.06269
  Beta  occ. eigenvalues --  -10.05709  -1.01990  -0.93324  -0.88146  -0.79803
  Beta  occ. eigenvalues --   -0.76933  -0.71208  -0.66941  -0.65945  -0.63443
  Beta  occ. eigenvalues --   -0.61867  -0.56487  -0.54317  -0.52653  -0.49677
  Beta  occ. eigenvalues --   -0.46781  -0.44508  -0.42074  -0.41551  -0.40523
  Beta  occ. eigenvalues --   -0.40093  -0.39285  -0.38655  -0.37370  -0.37169
  Beta  occ. eigenvalues --   -0.34899  -0.34180  -0.33669  -0.32480  -0.31094
  Beta  occ. eigenvalues --   -0.30439  -0.29861  -0.29517  -0.28592  -0.27926
  Beta  occ. eigenvalues --   -0.27523  -0.26688  -0.26060  -0.25283  -0.24896
  Beta  occ. eigenvalues --   -0.24458  -0.24184  -0.23000  -0.22184  -0.19323
  Beta  occ. eigenvalues --   -0.15354  -0.14611  -0.12065
  Beta virt. eigenvalues --    0.06213   0.06840   0.07098   0.07635   0.08212
  Beta virt. eigenvalues --    0.08674   0.09055   0.09549   0.09680   0.09772
  Beta virt. eigenvalues --    0.10888   0.11119   0.11485   0.11964   0.12006

 Mulliken charges and spin densities:
               1          2
     1  C    0.569503  -1.067258
     2  C    0.012670  -0.173443
     3  N    0.049574   0.088604
     4  C    0.521288  -0.628165
     5  C   -0.109291  -0.444694
     6  C    0.087829  -0.647500
     7  N   -0.026265  -0.000922
     8  C    0.003610  -0.132503
     9  C   -0.149233  -0.300175
    10  C   -0.460513  -0.182035
    11  C    0.536605  -0.411388
    12  C   -0.776636   0.373047
    13  O   -0.227163   0.007791
    14  O   -0.035004   0.027727
    15  C    0.538435  -0.799535
    16  N   -0.457268   0.240745
    17  H   -0.181175   0.327969
    18  H   -0.137010   0.282828
    19  H    0.044394   0.129465
    20  H   -0.485214   0.647043
    21  H    0.039210   0.109599
    22  H    0.050323   0.103408
    23  H   -0.401660   0.581260
    24  H    0.097032   0.098023
    25  H   -0.351244   0.487495
    26  H    0.056139   0.093407
    27  H    0.179906  -0.074419
    28  H    0.079292   0.086199
    29  H    0.106555   0.043494
    30  H    0.136491   0.008298
    31  H    0.152134   0.019966
    32  H    0.138830   0.017171
    33  H   -0.049955   0.247153
    34  H    0.206594   0.058536
    35  H   -0.117907   0.282910
    36  H   -0.346664   0.494981
    37  H   -0.092528   0.268369
    38  H   -0.268139   0.539161
    39  H    0.066456   0.197391
 Sum of Mulliken charges =  -1.00000   1.00000

 Dipole moment (field-independent basis, Debye):
    X=             -4.3255    Y=             -3.9522    Z=              0.0805  Tot=              5.8598
 Quadrupole moment (field-independent basis, Debye-Ang):
   XX=           -182.7786   YY=           -151.9895   ZZ=           -137.2727
   XY=             -2.6569   XZ=             -5.6805   YZ=              1.3429

 Summary of Natural Population Analysis:

                                       Natural Population
                Natural  -----------------------------------------------
    Atom  No    Charge         Core      Valence    Rydberg      Total
 -----------------------------------------------------------------------
      C    1   -0.29203      0.99966     2.28738    0.00499     3.29203
      C    2   -0.08118      0.99961     2.07075    0.01082     3.08118
      N    3   -0.28370      0.99965     2.76807    0.01598     3.78370
      C    4   -0.08078      0.99961     2.07050    0.01067     3.08078
      C    5   -0.29239      0.99965     2.28745    0.00529     3.29239
      C    6    0.31670      0.99956     1.66528    0.01847     2.68330
      N    7   -0.31248      0.99963     2.80164    0.01121     3.81248
      C    8   -0.10481      0.99961     2.09359    0.01161     3.10481
      C    9   -0.18959      0.99963     2.18228    0.00768     3.18959
      C   10   -0.18839      0.99963     2.18076    0.00800     3.18839
      C   11   -0.23983      0.99957     2.23220    0.00806     3.23983
      C   12    0.40999      0.99969     1.56386    0.02647     2.59001
      O   13   -0.30999      0.99987     3.30468    0.00545     4.30999
      O   14   -0.27825      0.99986     3.26964    0.00874     4.27825
      C   15   -0.10659      0.99959     2.09760    0.00940     3.10659
      N   16   -0.40785      0.99971     2.89907    0.00907     3.90785
      H   17    0.10014      0.00000     0.39839    0.00146     0.39986
      H   18    0.09952      0.00000     0.39957    0.00091     0.40048
      H   19    0.10265      0.00000     0.39604    0.00131     0.39735
      H   20    0.09957      0.00000     0.39886    0.00157     0.40043
      H   21    0.08941      0.00000     0.40866    0.00193     0.41059
      H   22    0.10497      0.00000     0.39317    0.00186     0.39503
      H   23    0.08870      0.00000     0.40896    0.00233     0.41130
      H   24    0.10438      0.00000     0.39353    0.00209     0.39562
      H   25    0.09856      0.00000     0.40030    0.00114     0.40144
      H   26    0.09631      0.00000     0.40221    0.00148     0.40369
      H   27    0.08452      0.00000     0.41229    0.00318     0.41548
      H   28    0.09075      0.00000     0.40802    0.00123     0.40925
      H   29    0.09808      0.00000     0.40085    0.00107     0.40192
      H   30    0.09714      0.00000     0.40177    0.00109     0.40286
      H   31    0.09915      0.00000     0.39979    0.00106     0.40085
      H   32    0.10483      0.00000     0.39398    0.00119     0.39517
      H   33    0.11275      0.00000     0.38635    0.00089     0.38725
      H   34    0.11406      0.00000     0.38401    0.00193     0.38594
      H   35    0.09020      0.00000     0.40874    0.00106     0.40980
      H   36    0.09551      0.00000     0.40323    0.00126     0.40449
      H   37    0.09237      0.00000     0.40653    0.00110     0.40763
      H   38    0.18743      0.00000     0.30925    0.00332     0.31257
      H   39    0.19014      0.00000     0.30781    0.00204     0.30986
 =======================================================================
   * Total *   -0.00000     15.99452    46.79706    0.20842    63.00000

 Normal termination of Gaussian 16 at Fri Dec 11 01:12:38 2020.
