 Gaussian 16, Revision A.03,

 -----------------------------------------------------------
 # opt freq B3LYP/6-31G(d) empiricaldispersion=gd3bj scf=xqc
 -----------------------------------------------------------

 ------------------------------
 CID_79176153_JID_9330_neutraal
 ------------------------------
 Symbolic Z-matrix:
 Charge =  0 Multiplicity = 1

 SCF Done:  E(RB3LYP) =  -786.682745995     A.U. after   14 cycles
 SCF Done:  E(RB3LYP) =  -786.687712148     A.U. after   12 cycles
 SCF Done:  E(RB3LYP) =  -786.687030408     A.U. after   12 cycles
 SCF Done:  E(RB3LYP) =  -786.688921292     A.U. after   11 cycles
 SCF Done:  E(RB3LYP) =  -786.688718583     A.U. after   12 cycles
 SCF Done:  E(RB3LYP) =  -786.689515570     A.U. after   12 cycles
 SCF Done:  E(RB3LYP) =  -786.689759731     A.U. after   11 cycles
 SCF Done:  E(RB3LYP) =  -786.689833245     A.U. after   11 cycles
 SCF Done:  E(RB3LYP) =  -786.689858952     A.U. after    9 cycles
 SCF Done:  E(RB3LYP) =  -786.689865740     A.U. after    9 cycles
 SCF Done:  E(RB3LYP) =  -786.689872378     A.U. after    8 cycles
 SCF Done:  E(RB3LYP) =  -786.689872545     A.U. after    7 cycles
 SCF Done:  E(RB3LYP) =  -786.689872623     A.U. after    7 cycles
 SCF Done:  E(RB3LYP) =  -786.689872665     A.U. after    7 cycles
 SCF Done:  E(RB3LYP) =  -786.689872678     A.U. after    6 cycles
 Optimization completed.
    -- Stationary point found.
 Normal termination of Gaussian 16 at Sun Dec 13 16:26:28 2020.

 --------------------------------------------------------------------
 #N Geom=AllCheck Guess=TCheck SCRF=Check GenChk RB3LYP/6-31G(d) Freq
 --------------------------------------------------------------------

 Structure from the checkpoint file:  "JID_9330.chk"
 ------------------------------
 CID_79176153_JID_9330_neutraal
 ------------------------------
 Charge =  0 Multiplicity = 1

 SCF Done:  E(RB3LYP) =  -786.689872678     A.U. after    1 cycles

  Exact polarizability: 267.563 -10.985 194.557   0.769  12.798 119.371
 Approx polarizability: 368.729 -16.002 307.086   0.737  31.489 194.453

                      1                      2                      3
                      A                      A                      A
 Frequencies --     13.1306                26.8345                32.7143
 Red. masses --      3.9428                 3.9158                 3.1399
 Frc consts  --      0.0004                 0.0017                 0.0020
 IR Inten    --      0.3379                 1.1795                 0.0595

                      4                      5                      6
                      A                      A                      A
 Frequencies --     66.4994               112.9117               120.5047
 Red. masses --      4.2440                 4.1988                 3.6294
 Frc consts  --      0.0111                 0.0315                 0.0311
 IR Inten    --      0.3546                 5.0351                 2.3094

                      7                      8                      9
                      A                      A                      A
 Frequencies --    171.3986               194.3016               202.9142
 Red. masses --      1.0822                 2.9767                 2.1272
 Frc consts  --      0.0187                 0.0662                 0.0516
 IR Inten    --      3.4442                 2.5401                 0.1099

                     10                     11                     12
                      A                      A                      A
 Frequencies --    224.5864               242.0098               257.9532
 Red. masses --      4.1401                 1.4826                 1.3936
 Frc consts  --      0.1230                 0.0512                 0.0546
 IR Inten    --      0.5154                 3.1970                14.6986

                     13                     14                     15
                      A                      A                      A
 Frequencies --    261.7167               274.5287               286.2869
 Red. masses --      1.3215                 1.6846                 2.4436
 Frc consts  --      0.0533                 0.0748                 0.1180
 IR Inten    --     19.1272                 1.1472                 6.9094

                     16                     17                     18
                      A                      A                      A
 Frequencies --    303.3478               345.7682               363.9686
 Red. masses --      2.8445                 2.8984                 3.7669
 Frc consts  --      0.1542                 0.2042                 0.2940
 IR Inten    --      4.4236                 1.5821                 5.5397

                     19                     20                     21
                      A                      A                      A
 Frequencies --    369.8244               394.3215               399.2713
 Red. masses --      3.1717                 3.0367                 2.4536
 Frc consts  --      0.2556                 0.2782                 0.2305
 IR Inten    --      1.0013                 6.6383                 4.4069

                     22                     23                     24
                      A                      A                      A
 Frequencies --    431.2767               440.6193               446.9656
 Red. masses --      1.5702                 1.7606                 2.9424
 Frc consts  --      0.1721                 0.2014                 0.3463
 IR Inten    --      1.8720                 1.7342                 2.7998

                     25                     26                     27
                      A                      A                      A
 Frequencies --    486.5926               488.7701               509.7693
 Red. masses --      2.0138                 2.0221                 2.7329
 Frc consts  --      0.2809                 0.2846                 0.4184
 IR Inten    --     82.0156                41.0612                10.2421

                     28                     29                     30
                      A                      A                      A
 Frequencies --    539.2467               564.2488               570.4773
 Red. masses --      4.3489                 3.5789                 2.6511
 Frc consts  --      0.7451                 0.6713                 0.5083
 IR Inten    --      4.1378                13.1128                10.3598

                     31                     32                     33
                      A                      A                      A
 Frequencies --    600.5455               612.1910               660.5227
 Red. masses --      5.4486                 3.8888                 5.4852
 Frc consts  --      1.1578                 0.8587                 1.4100
 IR Inten    --     12.3368                 6.9501                27.0700

                     34                     35                     36
                      A                      A                      A
 Frequencies --    706.3234               729.7004               753.6619
 Red. masses --      4.3109                 2.1980                 4.4868
 Frc consts  --      1.2671                 0.6896                 1.5015
 IR Inten    --     30.0015               147.5368                23.8108

                     37                     38                     39
                      A                      A                      A
 Frequencies --    762.6685               770.2680               793.5389
 Red. masses --      2.8173                 1.3271                 3.4390
 Frc consts  --      0.9655                 0.4639                 1.2759
 IR Inten    --     79.5085                69.7028                19.4080

                     40                     41                     42
                      A                      A                      A
 Frequencies --    834.6362               849.3561               855.3065
 Red. masses --      2.8609                 2.5626                 1.4755
 Frc consts  --      1.1742                 1.0892                 0.6360
 IR Inten    --      3.6053                 1.1625                26.8180

                     43                     44                     45
                      A                      A                      A
 Frequencies --    873.3408               881.4342               909.9199
 Red. masses --      3.2867                 1.9813                 1.4103
 Frc consts  --      1.4770                 0.9070                 0.6880
 IR Inten    --      2.6142                 0.2013                 8.9837

                     46                     47                     48
                      A                      A                      A
 Frequencies --    935.4807               950.0789               952.2479
 Red. masses --      1.8109                 1.7310                 1.3720
 Frc consts  --      0.9337                 0.9206                 0.7330
 IR Inten    --      0.2013                 1.1293                 1.1063

                     49                     50                     51
                      A                      A                      A
 Frequencies --    971.3977               977.7880               983.5091
 Red. masses --      1.2315                 1.2106                 3.5275
 Frc consts  --      0.6846                 0.6819                 2.0103
 IR Inten    --      0.1555                 0.2525                 4.4491

                     52                     53                     54
                      A                      A                      A
 Frequencies --   1037.7100              1056.1375              1066.1166
 Red. masses --      1.6167                 1.4295                 1.3703
 Frc consts  --      1.0257                 0.9395                 0.9177
 IR Inten    --     11.7382                 1.9162                 0.3401

                     55                     56                     57
                      A                      A                      A
 Frequencies --   1072.3384              1081.5645              1114.5073
 Red. masses --      1.5080                 2.9952                 2.2330
 Frc consts  --      1.0217                 2.0644                 1.6342
 IR Inten    --      2.5477                 7.7753                14.5222

                     58                     59                     60
                      A                      A                      A
 Frequencies --   1123.9176              1161.6402              1190.7137
 Red. masses --      1.6499                 1.7297                 1.8411
 Frc consts  --      1.2279                 1.3752                 1.5379
 IR Inten    --      5.6502                 1.4831                13.0307

                     61                     62                     63
                      A                      A                      A
 Frequencies --   1199.9825              1234.4392              1240.9985
 Red. masses --      1.0997                 2.4591                 2.4688
 Frc consts  --      0.9330                 2.2079                 2.2401
 IR Inten    --      0.2717                 2.5183                 5.0702

                     64                     65                     66
                      A                      A                      A
 Frequencies --   1270.0773              1272.2604              1290.3036
 Red. masses --      1.7040                 2.8336                 2.8326
 Frc consts  --      1.6195                 2.7023                 2.7786
 IR Inten    --     26.7794                 8.1175                78.2973

                     67                     68                     69
                      A                      A                      A
 Frequencies --   1313.6361              1332.5579              1340.9182
 Red. masses --      2.5482                 2.2455                 6.7256
 Frc consts  --      2.5908                 2.3493                 7.1250
 IR Inten    --     86.4465                10.5505                 7.8122

                     70                     71                     72
                      A                      A                      A
 Frequencies --   1354.0651              1384.2899              1414.1137
 Red. masses --      1.7596                 4.9643                 2.2834
 Frc consts  --      1.9008                 5.6048                 2.6903
 IR Inten    --     11.1296                41.4907                90.4095

                     73                     74                     75
                      A                      A                      A
 Frequencies --   1428.4907              1429.5124              1441.3292
 Red. masses --      1.2249                 1.2209                 1.2769
 Frc consts  --      1.4727                 1.4699                 1.5629
 IR Inten    --      5.9022                 1.1679                 0.3795

                     76                     77                     78
                      A                      A                      A
 Frequencies --   1461.2313              1487.3734              1510.5933
 Red. masses --      1.2185                 2.2989                 1.0468
 Frc consts  --      1.5329                 2.9965                 1.4074
 IR Inten    --      6.8084               218.4837                 7.1462

                     79                     80                     81
                      A                      A                      A
 Frequencies --   1514.1507              1518.0758              1520.2920
 Red. masses --      1.0654                 1.1894                 1.2390
 Frc consts  --      1.4391                 1.6150                 1.6873
 IR Inten    --      0.5648                 4.9443                 9.4954

                     82                     83                     84
                      A                      A                      A
 Frequencies --   1524.2245              1528.8263              1534.4390
 Red. masses --      1.0588                 1.4577                 1.1133
 Frc consts  --      1.4493                 2.0075                 1.5445
 IR Inten    --      1.3859                36.6222                27.2482

                     85                     86                     87
                      A                      A                      A
 Frequencies --   1546.0607              1549.8852              1561.1030
 Red. masses --      1.7721                 1.3728                 1.1947
 Frc consts  --      2.4957                 1.9429                 1.7154
 IR Inten    --    297.7524               160.2536                 4.9655

                     88                     89                     90
                      A                      A                      A
 Frequencies --   1569.7742              1626.9244              1640.7011
 Red. masses --      1.8798                 6.4928                 4.2810
 Frc consts  --      2.7292                10.1255                 6.7897
 IR Inten    --     38.8036                 7.7542                48.0876

                     91                     92                     93
                      A                      A                      A
 Frequencies --   1664.6483              1675.0977              1697.8523
 Red. masses --      4.6282                 3.2404                 1.3986
 Frc consts  --      7.5563                 5.3571                 2.3755
 IR Inten    --     75.4449                93.0941                29.2388

                     94                     95                     96
                      A                      A                      A
 Frequencies --   3028.6071              3036.6468              3045.5640
 Red. masses --      1.0454                 1.0414                 1.0372
 Frc consts  --      5.6497                 5.6580                 5.6681
 IR Inten    --     34.5840                29.9019                30.8047

                     97                     98                     99
                      A                      A                      A
 Frequencies --   3051.8381              3085.4073              3092.7320
 Red. masses --      1.0392                 1.0917                 1.0960
 Frc consts  --      5.7024                 6.1233                 6.1767
 IR Inten    --     27.4874                15.9492                33.4001

                    100                    101                    102
                      A                      A                      A
 Frequencies --   3109.1204              3115.7368              3132.3104
 Red. masses --      1.1016                 1.1007                 1.1001
 Frc consts  --      6.2743                 6.2956                 6.3595
 IR Inten    --     32.6219                54.3701                15.8613

                    103                    104                    105
                      A                      A                      A
 Frequencies --   3135.0761              3138.2347              3138.5222
 Red. masses --      1.1005                 1.0896                 1.1004
 Frc consts  --      6.3730                 6.3222                 6.3866
 IR Inten    --      9.0638                57.2675                28.6508

                    106                    107                    108
                      A                      A                      A
 Frequencies --   3142.2316              3173.3734              3183.7411
 Red. masses --      1.1005                 1.0904                 1.0850
 Frc consts  --      6.4019                 6.4696                 6.4800
 IR Inten    --     23.2989                15.6400                 0.1269

                    109                    110                    111
                      A                      A                      A
 Frequencies --   3197.5731              3209.4916              3240.3213
 Red. masses --      1.0899                 1.0951                 1.0930
 Frc consts  --      6.5658                 6.6463                 6.7618
 IR Inten    --     26.6653                43.3021                 7.0595

                    112                    113                    114
                      A                      A                      A
 Frequencies --   3514.8251              3609.4557              3690.8224
 Red. masses --      1.0486                 1.0959                 1.0745
 Frc consts  --      7.6322                 8.4120                 8.6240
 IR Inten    --      2.3512                 4.3418                39.5526

 - Thermochemistry -
 -------------------
 Temperature   298.150 Kelvin.  Pressure   1.00000 Atm.
 Atom     1 has atomic number  6 and mass  12.00000

 Molecular mass:   255.17355 amu.
 Principal axes and moments of inertia in atomic units:
                           1         2         3
     Eigenvalues --  2637.765948460.36014**********
           X            0.99995   0.00792  -0.00563
           Y           -0.00788   0.99994   0.00758
           Z            0.00569  -0.00753   0.99996
 This molecule is an asymmetric top.
 Rotational symmetry number  1.
 Warning -- assumption of classical behavior for rotation
           may cause significant error
 Rotational temperatures (Kelvin)      0.03284     0.01024     0.00862
 Rotational constants (GHZ):           0.68419     0.21332     0.17956
 Zero-point vibrational energy     906537.2 (Joules/Mol)
                                  216.66759 (Kcal/Mol)
 Warning -- explicit consideration of  32 degrees of freedom as
           vibrations may cause significant error
 Vibrational temperatures:     18.89    38.61    47.07    95.68   162.45
          (Kelvin)            173.38   246.60   279.56   291.95   323.13
                              348.20   371.14   376.55   394.99   411.90
                              436.45   497.48   523.67   532.09   567.34
                              574.46   620.51   633.95   643.08   700.10
                              703.23   733.44   775.86   811.83   820.79
                              864.05   880.81   950.34  1016.24  1049.88
                             1084.35  1097.31  1108.24  1141.73  1200.86
                             1222.03  1230.60  1256.54  1268.19  1309.17
                             1345.95  1366.95  1370.07  1397.62  1406.82
                             1415.05  1493.03  1519.55  1533.90  1542.86
                             1556.13  1603.53  1617.07  1671.34  1713.17
                             1726.51  1776.08  1785.52  1827.36  1830.50
                             1856.46  1890.03  1917.25  1929.28  1948.20
                             1991.68  2034.59  2055.28  2056.75  2073.75
                             2102.39  2140.00  2173.41  2178.53  2184.17
                             2187.36  2193.02  2199.64  2207.72  2224.44
                             2229.94  2246.08  2258.55  2340.78  2360.60
                             2395.06  2410.09  2442.83  4357.49  4369.06
                             4381.89  4390.91  4439.21  4449.75  4473.33
                             4482.85  4506.70  4510.68  4515.22  4515.63
                             4520.97  4565.78  4580.69  4600.59  4617.74
                             4662.10  5057.05  5193.20  5310.27

 Zero-point correction=                           0.345282 (Hartree/Particle)
 Thermal correction to Energy=                    0.363814
 Thermal correction to Enthalpy=                  0.364758
 Thermal correction to Gibbs Free Energy=         0.297712
 Sum of electronic and zero-point Energies=           -786.344591
 Sum of electronic and thermal Energies=              -786.326058
 Sum of electronic and thermal Enthalpies=            -786.325114
 Sum of electronic and thermal Free Energies=         -786.392161

                     E (Thermal)             CV                S
                      KCal/Mol        Cal/Mol-Kelvin    Cal/Mol-Kelvin
 Total                  228.297             73.266            141.111
 Electronic               0.000              0.000              0.000
 Translational            0.889              2.981             42.510
 Rotational               0.889              2.981             33.772
 Vibrational            226.519             67.304             64.829
 Vibration     1          0.593              1.987              7.470
 Vibration     2          0.593              1.984              6.051
 Vibration     3          0.594              1.983              5.658
 Vibration     4          0.598              1.970              4.254
 Vibration     5          0.607              1.939              3.218
 Vibration     6          0.609              1.932              3.092
 Vibration     7          0.626              1.878              2.420
 Vibration     8          0.635              1.848              2.186
 Vibration     9          0.639              1.836              2.107
 Vibration    10          0.649              1.804              1.922
 Vibration    11          0.658              1.776              1.788
 Vibration    12          0.667              1.749              1.676
 Vibration    13          0.669              1.743              1.650
 Vibration    14          0.677              1.720              1.568
 Vibration    15          0.684              1.699              1.496
 Vibration    16          0.695              1.667              1.398
 Vibration    17          0.724              1.584              1.185
 Vibration    18          0.738              1.546              1.105
 Vibration    19          0.742              1.534              1.081
 Vibration    20          0.761              1.482              0.984
 Vibration    21          0.765              1.472              0.965
 Vibration    22          0.792              1.402              0.854
 Vibration    23          0.801              1.382              0.825
 Vibration    24          0.806              1.368              0.805
 Vibration    25          0.843              1.280              0.693
 Vibration    26          0.845              1.275              0.687
 Vibration    27          0.865              1.228              0.634
 Vibration    28          0.894              1.163              0.567
 Vibration    29          0.920              1.109              0.515
 Vibration    30          0.927              1.095              0.503
 Vibration    31          0.959              1.031              0.449
 Vibration    32          0.971              1.006              0.429

 Optimization completed.
    -- Stationary point found.
 Normal termination of Gaussian 16 at Sun Dec 13 16:49:11 2020.

 ----------------------------------------------------------------------
 # B3LYP/6-311++G(d,p) empiricaldispersion=gd3bj scf=xqc pop=npa geom=c
 heck
 ----------------------------------------------------------------------

 --------------------------------------
 CID_79176153_JID_9330_Energie_neutraal
 --------------------------------------
 Structure from the checkpoint file:  "JID_9330.chk"
 Charge =  0 Multiplicity = 1

 SCF Done:  E(RB3LYP) =  -786.903788576     A.U. after   15 cycles
 Normal termination of Gaussian 16 at Sun Dec 13 16:59:20 2020.

 ----------------------------------------------------------------------
 # B3LYP/6-311++G(d,p) empiricaldispersion=gd3bj scf=xqc pop=npa geom=c
 heck
 ----------------------------------------------------------------------

 ------------------------------------
 CID_79176153_JID_9330_Energie_kation
 ------------------------------------
 Structure from the checkpoint file:  "JID_9330.chk"
 Charge =  1 Multiplicity = 2

 SCF Done:  E(UB3LYP) =  -786.659738526     A.U. after   23 cycles
 Normal termination of Gaussian 16 at Sun Dec 13 17:22:06 2020.
 Gaussian 16:  ES64L-G16RevA.03 25-Dec-2016

 ----------------------------------------------------------------------
 # B3LYP/6-311++G(d,p) empiricaldispersion=gd3bj scf=xqc pop=npa geom=c
 heck
 ----------------------------------------------------------------------

 -----------------------------------
 CID_79176153_JID_9330_Energie_anion
 -----------------------------------
 Structure from the checkpoint file:  "JID_9330.chk"
 Charge = -1 Multiplicity = 2

                         Standard orientation:
 ---------------------------------------------------------------------
 Center     Atomic      Atomic             Coordinates (Angstroms)
 Number     Number       Type             X           Y           Z
 ---------------------------------------------------------------------
      1          6           0        4.587948   -1.644759   -0.650700
      2          6           0        3.500813   -0.656514   -0.328255
      3          6           0        2.210510   -0.803332   -0.816163
      4          6           0        1.213536    0.130515   -0.469006
      5          7           0        1.469207    1.174233    0.321029
      6          6           0        2.718464    1.323927    0.774473
      7          6           0        3.774199    0.455409    0.498845
      8          7           0        5.048543    0.624522    1.078597
      9          7           0       -0.074199   -0.039537   -0.973547
     10          6           0       -1.222193    0.676133   -0.557188
     11          6           0       -1.184976    2.072526   -0.719386
     12          6           0       -2.274003    2.868470   -0.404068
     13          6           0       -3.444222    2.265945    0.058853
     14          6           0       -3.480409    0.887712    0.221356
     15          6           0       -2.381538    0.047878   -0.048156
     16          6           0       -2.581144   -1.451135    0.295041
     17          6           0       -2.903974   -1.556470    1.805857
     18          6           0       -3.765476   -2.010097   -0.526231
     19          6           0       -1.385412   -2.394972    0.049893
     20          1           0        4.196669   -2.500799   -1.207210
     21          1           0        5.063599   -2.010879    0.267204
     22          1           0        5.380687   -1.189010   -1.261391
     23          1           0        1.969957   -1.645270   -1.461315
     24          1           0        2.889878    2.192557    1.412068
     25          1           0        5.164217    1.540508    1.499646
     26          1           0        5.813602    0.452294    0.434174
     27          1           0       -0.243056   -0.951986   -1.358383
     28          1           0       -0.273374    2.511061   -1.105256
     29          1           0       -2.217727    3.945030   -0.538035
     30          1           0       -4.320848    2.862545    0.294828
     31          1           0       -4.397360    0.443624    0.594638
     32          1           0       -3.789883   -0.978087    2.080025
     33          1           0       -3.086566   -2.601949    2.082090
     34          1           0       -2.064679   -1.184540    2.403379
     35          1           0       -3.559255   -1.939510   -1.600318
     36          1           0       -3.933939   -3.065416   -0.279579
     37          1           0       -4.695710   -1.469605   -0.330717
     38          1           0       -1.178282   -2.543360   -1.017649
     39          1           0       -0.473316   -2.064821    0.553195
     40          1           0       -1.642211   -3.384316    0.445070
 ---------------------------------------------------------------------

 SCF Done:  E(UB3LYP) =  -786.893945421     A.U. after   33 cycles
 SCF Done:  E(UB3LYP) =  -786.893945420     a.u. after    1 cycles

 The electronic state is 2-A.
 Alpha  occ. eigenvalues --  -14.23662 -14.21886 -14.20331 -10.14405 -10.12740
 Alpha  occ. eigenvalues --  -10.11306 -10.11013 -10.10213 -10.09821 -10.09659
 Alpha  occ. eigenvalues --  -10.08663 -10.08601 -10.08540 -10.08086 -10.07905
 Alpha  occ. eigenvalues --  -10.07788 -10.07661 -10.07613 -10.07568  -0.87879
 Alpha  occ. eigenvalues --   -0.83123  -0.80495  -0.76662  -0.73415  -0.71373
 Alpha  occ. eigenvalues --   -0.66551  -0.65437  -0.62576  -0.61516  -0.60531
 Alpha  occ. eigenvalues --   -0.60356  -0.54226  -0.53428  -0.52676  -0.49227
 Alpha  occ. eigenvalues --   -0.47596  -0.44213  -0.43160  -0.41548  -0.40896
 Alpha  occ. eigenvalues --   -0.39213  -0.37965  -0.36930  -0.36248  -0.35635
 Alpha  occ. eigenvalues --   -0.35081  -0.34177  -0.33634  -0.33062  -0.32101
 Alpha  occ. eigenvalues --   -0.31844  -0.30912  -0.30431  -0.29342  -0.29153
 Alpha  occ. eigenvalues --   -0.28612  -0.27983  -0.27704  -0.27263  -0.25643
 Alpha  occ. eigenvalues --   -0.24863  -0.24717  -0.23532  -0.20206  -0.17600
 Alpha  occ. eigenvalues --   -0.17163  -0.15743  -0.14796  -0.09529   0.03781
 Alpha virt. eigenvalues --    0.05042   0.06136   0.06546   0.06865   0.07153
 Alpha virt. eigenvalues --    0.07466   0.07735   0.07877   0.08354   0.08997
 Alpha virt. eigenvalues --    0.09211   0.09893   0.10383   0.10501   0.10849

  Beta  occ. eigenvalues --  -14.23659 -14.21831 -14.20325 -10.14406 -10.12736
  Beta  occ. eigenvalues --  -10.11304 -10.11010 -10.10202 -10.09820 -10.09656
  Beta  occ. eigenvalues --  -10.08662 -10.08596 -10.08536 -10.08084 -10.07889
  Beta  occ. eigenvalues --  -10.07764 -10.07638 -10.07599 -10.07523  -0.87869
  Beta  occ. eigenvalues --   -0.83089  -0.80444  -0.76653  -0.73404  -0.71339
  Beta  occ. eigenvalues --   -0.66531  -0.65425  -0.62543  -0.61459  -0.60493
  Beta  occ. eigenvalues --   -0.60318  -0.54192  -0.53400  -0.52654  -0.49198
  Beta  occ. eigenvalues --   -0.47568  -0.44189  -0.43133  -0.41510  -0.40827
  Beta  occ. eigenvalues --   -0.39190  -0.37950  -0.36904  -0.36215  -0.35608
  Beta  occ. eigenvalues --   -0.35060  -0.34145  -0.33602  -0.33040  -0.32059
  Beta  occ. eigenvalues --   -0.31821  -0.30883  -0.30411  -0.29315  -0.29120
  Beta  occ. eigenvalues --   -0.28589  -0.27964  -0.27674  -0.27243  -0.25617
  Beta  occ. eigenvalues --   -0.24844  -0.24698  -0.23511  -0.20181  -0.17567
  Beta  occ. eigenvalues --   -0.17152  -0.15735  -0.14774  -0.09500
  Beta virt. eigenvalues --    0.05505   0.06389   0.06485   0.06647   0.07139
  Beta virt. eigenvalues --    0.07352   0.07836   0.07859   0.08042   0.08699
  Beta virt. eigenvalues --    0.09167   0.09737   0.10008   0.10575   0.10842

 Mulliken charges and spin densities:
               1          2
     1  C    3.413772  -3.814348
     2  C   -0.807736   1.784713
     3  C    1.320286  -1.174336
     4  C   -0.329483  -0.427963
     5  N   -0.012305   0.033014
     6  C    0.617561  -0.307393
     7  C   -3.064465   1.459551
     8  N   -0.282450  -0.028564
     9  N    0.316661  -0.027495
    10  C   -0.323269   0.128140
    11  C   -0.043315  -0.152316
    12  C   -0.410556   0.164540
    13  C    0.081726  -0.528256
    14  C   -0.468959  -0.109742
    15  C    1.047796  -0.340957
    16  C   -0.637148   1.360088
    17  C   -0.076874  -0.591012
    18  C    0.107208  -0.700419
    19  C   -0.363807  -0.381564
    20  H   -0.229920   0.369688
    21  H   -0.117226   0.296303
    22  H   -0.391098   0.578895
    23  H   -0.406143   0.548761
    24  H   -0.007614   0.176052
    25  H   -0.229220   0.468161
    26  H   -0.257501   0.510244
    27  H    0.483124  -0.170863
    28  H    0.119052   0.048704
    29  H    0.131847   0.018989
    30  H    0.039556   0.107474
    31  H    0.121514  -0.006934
    32  H   -0.028788   0.175180
    33  H   -0.028451   0.179269
    34  H    0.084128   0.067360
    35  H    0.012807   0.140120
    36  H   -0.126899   0.286474
    37  H   -0.161369   0.305634
    38  H   -0.233044   0.365535
    39  H    0.258040  -0.072910
    40  H   -0.117441   0.262185
 Sum of Mulliken charges =  -1.00000   1.00000

 Dipole moment (field-independent basis, Debye):
    X=             -7.8001    Y=              2.6461    Z=              0.2160  Tot=              8.2395
 Quadrupole moment (field-independent basis, Debye-Ang):
   XX=           -238.3432   YY=           -159.5079   ZZ=           -148.7110
   XY=             -6.3231   XZ=              0.0696   YZ=             -3.7281

 Summary of Natural Population Analysis:

                                       Natural Population
                Natural  -----------------------------------------------
    Atom  No    Charge         Core      Valence    Rydberg      Total
 -----------------------------------------------------------------------
      C    1   -0.29904      0.99964     2.29315    0.00625     3.29904
      C    2   -0.00456      0.99949     1.99510    0.00997     3.00456
      C    3   -0.12998      0.99948     2.12199    0.00851     3.12998
      C    4    0.18866      0.99952     1.79595    0.01587     2.81134
      N    5   -0.25641      0.99967     2.74489    0.01185     3.75641
      C    6    0.01517      0.99953     1.97092    0.01437     2.98483
      C    7    0.04890      0.99942     1.94014    0.01154     2.95110
      N    8   -0.40061      0.99973     2.89013    0.01075     3.90061
      N    9   -0.32089      0.99966     2.80602    0.01520     3.82089
      C   10    0.10872      0.99946     1.88205    0.00977     2.89128
      C   11   -0.07211      0.99956     2.06668    0.00587     3.07211
      C   12   -0.11653      0.99959     2.10357    0.01337     3.11653
      C   13   -0.11074      0.99956     2.10150    0.00967     3.11074
      C   14   -0.10096      0.99953     2.08985    0.01158     3.10096
      C   15   -0.03296      0.99947     2.01724    0.01625     3.03296
      C   16   -0.05171      0.99957     2.04057    0.01157     3.05171
      C   17   -0.27958      0.99963     2.27316    0.00678     3.27958
      C   18   -0.28071      0.99963     2.27404    0.00705     3.28071
      C   19   -0.28693      0.99963     2.27950    0.00781     3.28693
      H   20    0.10460      0.00000     0.39419    0.00120     0.39540
      H   21    0.10964      0.00000     0.38908    0.00128     0.39036
      H   22    0.10793      0.00000     0.38983    0.00225     0.39207
      H   23    0.10098      0.00000     0.39763    0.00139     0.39902
      H   24    0.08612      0.00000     0.41245    0.00143     0.41388
      H   25    0.18332      0.00000     0.31415    0.00253     0.31668
      H   26    0.18859      0.00000     0.30635    0.00506     0.31141
      H   27    0.19445      0.00000     0.30213    0.00343     0.30555
      H   28    0.10683      0.00000     0.39161    0.00156     0.39317
      H   29    0.09856      0.00000     0.40060    0.00085     0.40144
      H   30    0.09815      0.00000     0.40105    0.00080     0.40185
      H   31    0.09813      0.00000     0.40039    0.00148     0.40187
      H   32    0.09930      0.00000     0.39984    0.00086     0.40070
      H   33    0.09826      0.00000     0.40095    0.00079     0.40174
      H   34    0.10343      0.00000     0.39572    0.00085     0.39657
      H   35    0.10102      0.00000     0.39803    0.00095     0.39898
      H   36    0.09953      0.00000     0.39947    0.00100     0.40047
      H   37    0.09920      0.00000     0.39982    0.00098     0.40080
      H   38    0.09391      0.00000     0.40484    0.00126     0.40609
      H   39    0.10741      0.00000     0.39149    0.00110     0.39259
      H   40    0.10305      0.00000     0.39602    0.00093     0.39695
 =======================================================================
   * Total *    0.00013     18.99177    49.77208    0.23603    68.99987

 Normal termination of Gaussian 16 at Sun Dec 13 17:55:24 2020.
