 Gaussian 16, Revision A.03,

 -----------------------------------------------------------
 # opt freq B3LYP/6-31G(d) empiricaldispersion=gd3bj scf=xqc
 -----------------------------------------------------------

 ------------------------------
 CID_65876549_JID_9295_neutraal
 ------------------------------
 Symbolic Z-matrix:
 Charge =  0 Multiplicity = 1

 SCF Done:  E(RB3LYP) =  -808.938262415     A.U. after   14 cycles
 SCF Done:  E(RB3LYP) =  -808.944243157     A.U. after   12 cycles
 SCF Done:  E(RB3LYP) =  -808.944795893     A.U. after   12 cycles
 SCF Done:  E(RB3LYP) =  -808.945193551     A.U. after   11 cycles
 SCF Done:  E(RB3LYP) =  -808.945312183     A.U. after   11 cycles
 SCF Done:  E(RB3LYP) =  -808.945389708     A.U. after   11 cycles
 SCF Done:  E(RB3LYP) =  -808.945439807     A.U. after   10 cycles
 SCF Done:  E(RB3LYP) =  -808.945490099     A.U. after   10 cycles
 SCF Done:  E(RB3LYP) =  -808.945554300     A.U. after   10 cycles
 SCF Done:  E(RB3LYP) =  -808.945628601     A.U. after   10 cycles
 SCF Done:  E(RB3LYP) =  -808.946137219     A.U. after    9 cycles
 SCF Done:  E(RB3LYP) =  -808.946138230     A.U. after    9 cycles
 SCF Done:  E(RB3LYP) =  -808.946138436     A.U. after    7 cycles
 SCF Done:  E(RB3LYP) =  -808.946138472     A.U. after    6 cycles
 Optimization completed.
    -- Stationary point found.
 Normal termination of Gaussian 16 at Sun Dec 13 21:02:00 2020.

 --------------------------------------------------------------------
 #N Geom=AllCheck Guess=TCheck SCRF=Check GenChk RB3LYP/6-31G(d) Freq
 --------------------------------------------------------------------

 Structure from the checkpoint file:  "JID_9295.chk"
 ------------------------------
 CID_65876549_JID_9295_neutraal
 ------------------------------
 Charge =  0 Multiplicity = 1

 SCF Done:  E(RB3LYP) =  -808.946138472     A.U. after    1 cycles

  Exact polarizability: 188.947  -7.145 170.225  -7.898  -8.431 147.778
 Approx polarizability: 241.276 -17.426 258.951 -22.495 -13.006 241.380

                      1                      2                      3
                      A                      A                      A
 Frequencies --     22.8941                48.0693                68.9989
 Red. masses --      3.6699                 3.8041                 2.9096
 Frc consts  --      0.0011                 0.0052                 0.0082
 IR Inten    --      0.2020                 0.2888                 0.0889

                      4                      5                      6
                      A                      A                      A
 Frequencies --     80.9757                93.3251               116.0427
 Red. masses --      2.2591                 1.1906                 1.1627
 Frc consts  --      0.0087                 0.0061                 0.0092
 IR Inten    --      0.6466                 0.0839                 0.3112

                      7                      8                      9
                      A                      A                      A
 Frequencies --    151.3626               158.8004               173.4764
 Red. masses --      3.6288                 3.9218                 2.9219
 Frc consts  --      0.0490                 0.0583                 0.0518
 IR Inten    --      0.7221                 1.6204                 7.6735

                     10                     11                     12
                      A                      A                      A
 Frequencies --    210.3055               218.7225               265.7799
 Red. masses --      3.9582                 1.8842                 2.6416
 Frc consts  --      0.1031                 0.0531                 0.1099
 IR Inten    --      0.7828                 0.4840                 2.3316

                     13                     14                     15
                      A                      A                      A
 Frequencies --    268.5996               303.0662               312.9484
 Red. masses --      2.6595                 2.8649                 3.4197
 Frc consts  --      0.1130                 0.1550                 0.1973
 IR Inten    --      7.7124                10.7852                 3.9851

                     16                     17                     18
                      A                      A                      A
 Frequencies --    329.2138               347.2629               371.3697
 Red. masses --      2.8835                 1.3343                 2.7070
 Frc consts  --      0.1841                 0.0948                 0.2200
 IR Inten    --      3.6405                65.4299                16.8923

                     19                     20                     21
                      A                      A                      A
 Frequencies --    399.7678               470.3551               478.0210
 Red. masses --      2.3010                 2.5853                 2.5444
 Frc consts  --      0.2167                 0.3370                 0.3426
 IR Inten    --      1.0564                 7.8358                 0.9647

                     22                     23                     24
                      A                      A                      A
 Frequencies --    494.5020               500.1063               522.4746
 Red. masses --      2.1671                 4.0298                 3.8798
 Frc consts  --      0.3122                 0.5938                 0.6240
 IR Inten    --      0.0981                 3.1744                 1.4316

                     25                     26                     27
                      A                      A                      A
 Frequencies --    606.1521               630.0802               645.0783
 Red. masses --      3.0086                 2.7522                 3.6454
 Frc consts  --      0.6513                 0.6438                 0.8938
 IR Inten    --      1.1485                 0.2091                 5.1500

                     28                     29                     30
                      A                      A                      A
 Frequencies --    674.0459               689.2300               721.1578
 Red. masses --      5.2891                 3.3761                 3.7127
 Frc consts  --      1.4158                 0.9449                 1.1376
 IR Inten    --      1.5409                 8.6858                 4.0515

                     31                     32                     33
                      A                      A                      A
 Frequencies --    741.1723               780.5708               794.5782
 Red. masses --      3.8605                 2.1831                 2.4107
 Frc consts  --      1.2495                 0.7837                 0.8968
 IR Inten    --      0.7272                 4.6067                 6.4191

                     34                     35                     36
                      A                      A                      A
 Frequencies --    800.3053               818.5359               828.4164
 Red. masses --      1.9328                 3.0276                 2.8560
 Frc consts  --      0.7294                 1.1951                 1.1548
 IR Inten    --     13.6631                 2.3377                 0.1366

                     37                     38                     39
                      A                      A                      A
 Frequencies --    839.2560               850.5789               885.0199
 Red. masses --      3.4395                 2.0830                 1.9291
 Frc consts  --      1.4274                 0.8879                 0.8902
 IR Inten    --     15.4945                 4.6425                 3.7622

                     40                     41                     42
                      A                      A                      A
 Frequencies --    911.6934               924.1952               930.5324
 Red. masses --      2.5847                 2.3083                 2.1207
 Frc consts  --      1.2658                 1.1616                 1.0819
 IR Inten    --      0.1115                 4.7708                 5.4216

                     43                     44                     45
                      A                      A                      A
 Frequencies --    938.6996               953.1700               967.1405
 Red. masses --      2.3120                 2.0486                 1.9679
 Frc consts  --      1.2003                 1.0966                 1.0845
 IR Inten    --      2.8533                 2.8055                 4.1548

                     46                     47                     48
                      A                      A                      A
 Frequencies --    986.0471               998.4064              1005.0821
 Red. masses --      2.0775                 1.8144                 1.5649
 Frc consts  --      1.1901                 1.0656                 0.9314
 IR Inten    --      8.1582                 3.4352                 2.5416

                     49                     50                     51
                      A                      A                      A
 Frequencies --   1034.8979              1039.7795              1054.8159
 Red. masses --      1.9388                 2.2315                 1.7016
 Frc consts  --      1.2234                 1.4214                 1.1155
 IR Inten    --      1.2511                 9.5002                26.8880

                     52                     53                     54
                      A                      A                      A
 Frequencies --   1067.7936              1076.9157              1077.5763
 Red. masses --      2.1920                 1.8665                 1.5177
 Frc consts  --      1.4726                 1.2754                 1.0383
 IR Inten    --     11.1449                 1.5039                 2.9433

                     55                     56                     57
                      A                      A                      A
 Frequencies --   1081.2222              1101.9589              1107.9777
 Red. masses --      2.4492                 1.9514                 1.7423
 Frc consts  --      1.6869                 1.3961                 1.2602
 IR Inten    --      1.1632                 1.3479                24.7354

                     58                     59                     60
                      A                      A                      A
 Frequencies --   1114.5452              1134.0859              1159.1199
 Red. masses --      1.6333                 1.1904                 1.3040
 Frc consts  --      1.1954                 0.9021                 1.0322
 IR Inten    --      0.4199                 9.0653                 3.9712

                     61                     62                     63
                      A                      A                      A
 Frequencies --   1164.0412              1179.9217              1184.1017
 Red. masses --      1.3270                 1.6153                 1.4561
 Frc consts  --      1.0594                 1.3250                 1.2029
 IR Inten    --      3.8435                 5.9880                20.1298

                     64                     65                     66
                      A                      A                      A
 Frequencies --   1204.4472              1211.8599              1218.1386
 Red. masses --      2.1942                 1.4945                 1.7267
 Frc consts  --      1.8754                 1.2932                 1.5096
 IR Inten    --      6.8970                 2.1421                16.8659

                     67                     68                     69
                      A                      A                      A
 Frequencies --   1236.1273              1261.1994              1282.9921
 Red. masses --      1.9056                 1.5823                 1.4647
 Frc consts  --      1.7155                 1.4829                 1.4206
 IR Inten    --      3.5459                 1.0388                 4.0100

                     70                     71                     72
                      A                      A                      A
 Frequencies --   1292.3024              1307.4264              1308.5991
 Red. masses --      1.4422                 1.3471                 1.4833
 Frc consts  --      1.4190                 1.3567                 1.4965
 IR Inten    --      0.3444                 3.6606                 1.6108

                     73                     74                     75
                      A                      A                      A
 Frequencies --   1317.0211              1319.1952              1327.5170
 Red. masses --      2.9808                 1.4999                 1.5947
 Frc consts  --      3.0463                 1.5379                 1.6558
 IR Inten    --     19.8663                 8.4377                11.8864

                     76                     77                     78
                      A                      A                      A
 Frequencies --   1337.7187              1351.4398              1354.1203
 Red. masses --      1.3811                 1.4005                 1.3278
 Frc consts  --      1.4561                 1.5071                 1.4345
 IR Inten    --      4.8950                 0.2681                 0.8253

                     79                     80                     81
                      A                      A                      A
 Frequencies --   1360.0273              1373.0723              1385.2904
 Red. masses --      1.4759                 1.6244                 1.5187
 Frc consts  --      1.6084                 1.8044                 1.7172
 IR Inten    --      1.2835                 0.7285                16.9042

                     82                     83                     84
                      A                      A                      A
 Frequencies --   1392.2610              1407.1887              1425.8417
 Red. masses --      1.4970                 1.5647                 2.3736
 Frc consts  --      1.7097                 1.8255                 2.8431
 IR Inten    --      0.5594                31.4879                26.2274

                     85                     86                     87
                      A                      A                      A
 Frequencies --   1437.0449              1472.9737              1496.8709
 Red. masses --      1.6717                 1.2818                 2.1633
 Frc consts  --      2.0340                 1.6386                 2.8558
 IR Inten    --      5.3880                 4.5334                16.6522

                     88                     89                     90
                      A                      A                      A
 Frequencies --   1505.8644              1510.3354              1514.3937
 Red. masses --      2.9076                 1.0655                 1.0449
 Frc consts  --      3.8847                 1.4321                 1.4119
 IR Inten    --     27.8984                 8.6062                 5.4078

                     91                     92                     93
                      A                      A                      A
 Frequencies --   1515.9642              1516.3486              1518.3537
 Red. masses --      1.2107                 1.1132                 1.0859
 Frc consts  --      1.6394                 1.5081                 1.4749
 IR Inten    --      4.6645                 3.4599                 2.0419

                     94                     95                     96
                      A                      A                      A
 Frequencies --   1521.2770              1531.2255              1538.6596
 Red. masses --      1.0814                 1.2699                 1.1073
 Frc consts  --      1.4745                 1.7543                 1.5445
 IR Inten    --      2.5871                 1.0333                 3.4576

                     97                     98                     99
                      A                      A                      A
 Frequencies --   1552.5980              1563.0079              1604.9920
 Red. masses --      1.4157                 1.1003                 5.4632
 Frc consts  --      2.0107                 1.5837                 8.2916
 IR Inten    --     10.3853                 4.7007                32.7224

                    100                    101                    102
                      A                      A                      A
 Frequencies --   3030.0882              3047.5064              3049.2469
 Red. masses --      1.0809                 1.0381                 1.0679
 Frc consts  --      5.8474                 5.6801                 5.8500
 IR Inten    --     17.0744                39.4129                53.4350

                    103                    104                    105
                      A                      A                      A
 Frequencies --   3051.9461              3062.1431              3064.7752
 Red. masses --      1.0626                 1.0519                 1.0520
 Frc consts  --      5.8314                 5.8111                 5.8218
 IR Inten    --     25.3850                24.1516                 7.6854

                    106                    107                    108
                      A                      A                      A
 Frequencies --   3066.6811              3067.9801              3084.9146
 Red. masses --      1.0664                 1.0641                 1.0948
 Frc consts  --      5.9087                 5.9011                 6.1387
 IR Inten    --     38.7356                47.9773                23.7402

                    109                    110                    111
                      A                      A                      A
 Frequencies --   3087.6066              3095.9681              3097.1862
 Red. masses --      1.0996                 1.0871                 1.1011
 Frc consts  --      6.1765                 6.1391                 6.2234
 IR Inten    --     10.6653                47.6055                21.8141

                    112                    113                    114
                      A                      A                      A
 Frequencies --   3099.0590              3104.3212              3107.7970
 Red. masses --      1.0904                 1.0993                 1.0892
 Frc consts  --      6.1701                 6.2415                 6.1979
 IR Inten    --     17.6590                11.7189                49.6573

                    115                    116                    117
                      A                      A                      A
 Frequencies --   3111.5871              3121.0402              3127.1912
 Red. masses --      1.0967                 1.0766                 1.0896
 Frc consts  --      6.2561                 6.1788                 6.2784
 IR Inten    --     69.2895                13.4414                51.3919

                    118                    119                    120
                      A                      A                      A
 Frequencies --   3137.0424              3143.0061              3159.9292
 Red. masses --      1.0957                 1.0999                 1.1057
 Frc consts  --      6.3529                 6.4018                 6.5048
 IR Inten    --     18.7698                11.5356                22.6041

                    121                    122                    123
                      A                      A                      A
 Frequencies --   3176.4018              3263.2107              3763.8800
 Red. masses --      1.1041                 1.0968                 1.0659
 Frc consts  --      6.5634                 6.8813                 8.8966
 IR Inten    --      9.4385                 3.3900                 6.3937

 - Thermochemistry -
 -------------------
 Temperature   298.150 Kelvin.  Pressure   1.00000 Atm.
 Atom     1 has atomic number  6 and mass  12.00000

 Molecular mass:   260.18886 amu.
 Principal axes and moments of inertia in atomic units:
                           1         2         3
     Eigenvalues --  2637.839257277.436178158.68332
           X            0.99999   0.00403   0.00138
           Y           -0.00398   0.99921  -0.03957
           Z           -0.00154   0.03957   0.99922
 This molecule is an asymmetric top.
 Rotational symmetry number  1.
 Warning -- assumption of classical behavior for rotation
           may cause significant error
 Rotational temperatures (Kelvin)      0.03284     0.01190     0.01062
 Rotational constants (GHZ):           0.68417     0.24799     0.22120
 Zero-point vibrational energy    1007845.1 (Joules/Mol)
                                  240.88076 (Kcal/Mol)
 Warning -- explicit consideration of  25 degrees of freedom as
           vibrations may cause significant error
 Vibrational temperatures:     32.94    69.16    99.27   116.51   134.27
          (Kelvin)            166.96   217.78   228.48   249.59   302.58
                              314.69   382.40   386.45   436.04   450.26
                              473.67   499.63   534.32   575.18   676.74
                              687.77   711.48   719.54   751.72   872.12
                              906.54   928.12   969.80   991.65  1037.59
                             1066.38  1123.07  1143.22  1151.46  1177.69
                             1191.91  1207.50  1223.79  1273.35  1311.72
                             1329.71  1338.83  1350.58  1371.40  1391.50
                             1418.70  1436.48  1446.09  1488.99  1496.01
                             1517.64  1536.32  1549.44  1550.39  1555.64
                             1585.47  1594.13  1603.58  1631.70  1667.72
                             1674.80  1697.64  1703.66  1732.93  1743.60
                             1752.63  1778.51  1814.58  1845.94  1859.33
                             1881.10  1882.78  1894.90  1898.03  1910.00
                             1924.68  1944.42  1948.28  1956.78  1975.54
                             1993.12  2003.15  2024.63  2051.47  2067.59
                             2119.28  2153.66  2166.60  2173.04  2178.87
                             2181.13  2181.69  2184.57  2188.78  2203.09
                             2213.79  2233.84  2248.82  2309.23  4359.62
                             4384.68  4387.19  4391.07  4405.74  4409.53
                             4412.27  4414.14  4438.50  4442.38  4454.41
                             4456.16  4458.85  4466.43  4471.43  4476.88
                             4490.48  4499.33  4513.50  4522.08  4546.43
                             4570.13  4695.03  5415.38

 Zero-point correction=                           0.383868 (Hartree/Particle)
 Thermal correction to Energy=                    0.401209
 Thermal correction to Enthalpy=                  0.402153
 Thermal correction to Gibbs Free Energy=         0.338435
 Sum of electronic and zero-point Energies=           -808.562271
 Sum of electronic and thermal Energies=              -808.544930
 Sum of electronic and thermal Enthalpies=            -808.543985
 Sum of electronic and thermal Free Energies=         -808.607704

                     E (Thermal)             CV                S
                      KCal/Mol        Cal/Mol-Kelvin    Cal/Mol-Kelvin
 Total                  251.762             69.528            134.107
 Electronic               0.000              0.000              0.000
 Translational            0.889              2.981             42.568
 Rotational               0.889              2.981             33.415
 Vibrational            249.985             63.567             58.123
 Vibration     1          0.593              1.985              6.366
 Vibration     2          0.595              1.978              4.895
 Vibration     3          0.598              1.969              4.182
 Vibration     4          0.600              1.962              3.867
 Vibration     5          0.602              1.954              3.589
 Vibration     6          0.608              1.936              3.165
 Vibration     7          0.619              1.901              2.655
 Vibration     8          0.621              1.893              2.564
 Vibration     9          0.627              1.875              2.397
 Vibration    10          0.642              1.825              2.041
 Vibration    11          0.646              1.813              1.970
 Vibration    12          0.672              1.736              1.623
 Vibration    13          0.673              1.731              1.605
 Vibration    14          0.695              1.668              1.400
 Vibration    15          0.701              1.649              1.347
 Vibration    16          0.712              1.617              1.264
 Vibration    17          0.725              1.581              1.179
 Vibration    18          0.743              1.531              1.074
 Vibration    19          0.766              1.471              0.964
 Vibration    20          0.827              1.316              0.737
 Vibration    21          0.835              1.299              0.715
 Vibration    22          0.850              1.262              0.672
 Vibration    23          0.856              1.250              0.658
 Vibration    24          0.877              1.200              0.604
 Vibration    25          0.965              1.019              0.439

 Optimization completed.
    -- Stationary point found.
 Normal termination of Gaussian 16 at Sun Dec 13 21:30:28 2020.

 ----------------------------------------------------------------------
 # B3LYP/6-311++G(d,p) empiricaldispersion=gd3bj scf=xqc pop=npa geom=c
 heck
 ----------------------------------------------------------------------

 --------------------------------------
 CID_65876549_JID_9295_Energie_neutraal
 --------------------------------------
 Structure from the checkpoint file:  "JID_9295.chk"
 Charge =  0 Multiplicity = 1

 SCF Done:  E(RB3LYP) =  -809.165915086     A.U. after   14 cycles
 Normal termination of Gaussian 16 at Sun Dec 13 21:43:05 2020.

 ----------------------------------------------------------------------
 # B3LYP/6-311++G(d,p) empiricaldispersion=gd3bj scf=xqc pop=npa geom=c
 heck
 ----------------------------------------------------------------------

 ------------------------------------
 CID_65876549_JID_9295_Energie_kation
 ------------------------------------
 Structure from the checkpoint file:  "JID_9295.chk"
 Charge =  1 Multiplicity = 2

 SCF Done:  E(UB3LYP) =  -808.860057231     A.U. after   33 cycles
 SCF Done:  E(UB3LYP) =  -808.863923039     a.u. after   13 cycles
 Normal termination of Gaussian 16 at Mon Dec 14 02:28:13 2020.
 Gaussian 16:  ES64L-G16RevA.03 25-Dec-2016

 ----------------------------------------------------------------------
 # B3LYP/6-311++G(d,p) empiricaldispersion=gd3bj scf=xqc pop=npa geom=c
 heck
 ----------------------------------------------------------------------

 -----------------------------------
 CID_65876549_JID_9295_Energie_anion
 -----------------------------------
 Structure from the checkpoint file:  "JID_9295.chk"
 Charge = -1 Multiplicity = 2

                         Standard orientation:
 ---------------------------------------------------------------------
 Center     Atomic      Atomic             Coordinates (Angstroms)
 Number     Number       Type             X           Y           Z
 ---------------------------------------------------------------------
      1          6           0       -4.035487    2.669848   -0.138966
      2          6           0       -3.342259    1.342674   -0.143098
      3          7           0       -3.617208    0.434090    0.795647
      4          7           0       -2.831568   -0.633562    0.500532
      5          6           0       -2.055842   -0.423425   -0.607804
      6          6           0       -2.376457    0.850565   -1.050140
      7          6           0       -1.065586   -1.399246   -1.156065
      8          6           0        0.403154   -1.270477   -0.686818
      9          6           0        0.646702   -1.595073    0.826141
     10          6           0        1.459669   -0.386731    1.332720
     11          6           0        0.704368    0.748202    0.609607
     12          6           0        0.973002    0.182527   -0.800260
     13          6           0        2.515118    0.100934   -0.814652
     14          6           0        2.847519   -0.410601    0.638178
     15          6           0        3.910914    0.556562    1.196705
     16          6           0        3.735510    1.880952    0.432501
     17          6           0        3.248578    1.459664   -0.970567
     18          8           0        1.061447   -2.210136   -1.546689
     19          6           0       -2.944279   -1.806280    1.342941
     20          1           0       -4.739160    2.717990    0.696197
     21          1           0       -3.320806    3.495458   -0.036409
     22          1           0       -4.591489    2.834320   -1.069764
     23          1           0       -1.960708    1.351215   -1.913184
     24          1           0       -1.376790   -2.431784   -0.962203
     25          1           0       -1.045196   -1.288867   -2.245230
     26          1           0       -0.296190   -1.667531    1.374583
     27          1           0        1.162793   -2.555627    0.936956
     28          1           0        1.515002   -0.315632    2.423088
     29          1           0        1.124589    1.744048    0.760896
     30          1           0       -0.354419    0.785270    0.872146
     31          1           0        0.557594    0.743052   -1.641753
     32          1           0        2.851839   -0.580955   -1.599008
     33          1           0        3.240996   -1.435320    0.645298
     34          1           0        3.834725    0.679110    2.283336
     35          1           0        4.907689    0.146136    0.991349
     36          1           0        2.993932    2.514293    0.929761
     37          1           0        4.663810    2.460994    0.390457
     38          1           0        2.609156    2.219828   -1.433585
     39          1           0        4.111574    1.327275   -1.633343
     40          1           0        1.957198   -2.346821   -1.204954
     41          1           0       -2.415060   -1.664502    2.291575
     42          1           0       -4.001247   -1.982022    1.552971
     43          1           0       -2.527717   -2.673107    0.828538
 ---------------------------------------------------------------------

 SCF Done:  E(UB3LYP) =  -809.153783022     A.U. after   33 cycles
 SCF Done:  E(UB3LYP) =  -809.153783022     a.u. after    1 cycles

 The electronic state is 2-A.
 Alpha  occ. eigenvalues --  -19.02591 -14.29663 -14.23178 -10.13890 -10.12203
 Alpha  occ. eigenvalues --  -10.12152 -10.10623 -10.09076 -10.08588 -10.07560
 Alpha  occ. eigenvalues --  -10.07543 -10.07212 -10.07140 -10.06959 -10.06870
 Alpha  occ. eigenvalues --  -10.06786 -10.06765 -10.06541 -10.06533  -0.95595
 Alpha  occ. eigenvalues --   -0.93191  -0.78328  -0.76016  -0.72392  -0.70529
 Alpha  occ. eigenvalues --   -0.65465  -0.64877  -0.64329  -0.60486  -0.59336
 Alpha  occ. eigenvalues --   -0.58637  -0.56576  -0.50632  -0.48722  -0.48569
 Alpha  occ. eigenvalues --   -0.45981  -0.44962  -0.43816  -0.42036  -0.40577
 Alpha  occ. eigenvalues --   -0.40240  -0.39279  -0.37567  -0.36861  -0.36035
 Alpha  occ. eigenvalues --   -0.34181  -0.33916  -0.33529  -0.33266  -0.32313
 Alpha  occ. eigenvalues --   -0.31530  -0.30952  -0.30240  -0.29973  -0.29149
 Alpha  occ. eigenvalues --   -0.28297  -0.27011  -0.26439  -0.25644  -0.24958
 Alpha  occ. eigenvalues --   -0.24116  -0.23679  -0.23064  -0.22157  -0.21450
 Alpha  occ. eigenvalues --   -0.21096  -0.20447  -0.20227  -0.17148  -0.15421
 Alpha  occ. eigenvalues --   -0.15033   0.04095
 Alpha virt. eigenvalues --    0.05874   0.06156   0.07254   0.07550   0.07874
 Alpha virt. eigenvalues --    0.08547   0.08836   0.09085   0.09567   0.09900
 Alpha virt. eigenvalues --    0.10244   0.10488   0.11058   0.11128   0.11902

  Beta  occ. eigenvalues --  -19.02571 -14.29660 -14.23172 -10.13890 -10.12202
  Beta  occ. eigenvalues --  -10.12118 -10.10623 -10.09067 -10.08578 -10.07553
  Beta  occ. eigenvalues --  -10.07538 -10.07203 -10.07122 -10.06938 -10.06865
  Beta  occ. eigenvalues --  -10.06772 -10.06751 -10.06525 -10.06522  -0.95589
  Beta  occ. eigenvalues --   -0.93155  -0.78306  -0.76005  -0.72374  -0.70508
  Beta  occ. eigenvalues --   -0.65442  -0.64856  -0.64302  -0.60448  -0.59300
  Beta  occ. eigenvalues --   -0.58603  -0.56546  -0.50609  -0.48681  -0.48538
  Beta  occ. eigenvalues --   -0.45943  -0.44932  -0.43776  -0.42001  -0.40545
  Beta  occ. eigenvalues --   -0.40204  -0.39241  -0.37537  -0.36836  -0.36011
  Beta  occ. eigenvalues --   -0.34162  -0.33900  -0.33503  -0.33248  -0.32291
  Beta  occ. eigenvalues --   -0.31503  -0.30932  -0.30211  -0.29954  -0.29128
  Beta  occ. eigenvalues --   -0.28282  -0.26991  -0.26419  -0.25619  -0.24927
  Beta  occ. eigenvalues --   -0.24091  -0.23653  -0.23034  -0.22125  -0.21418
  Beta  occ. eigenvalues --   -0.21067  -0.20421  -0.20207  -0.17128  -0.15409
  Beta  occ. eigenvalues --   -0.15026
  Beta virt. eigenvalues --    0.05906   0.06660   0.06815   0.07644   0.08034
  Beta virt. eigenvalues --    0.08239   0.08714   0.09189   0.09352   0.09803
  Beta virt. eigenvalues --    0.10211   0.10534   0.10702   0.11251   0.11317

 Mulliken charges and spin densities:
               1          2
     1  C   -0.068029  -0.623548
     2  C   -0.067689  -0.172977
     3  N   -0.114015   0.158738
     4  N    0.066551  -0.023463
     5  C   -0.217404   0.331431
     6  C   -0.318987   0.404685
     7  C    0.374269  -0.642708
     8  C   -1.025495   0.215337
     9  C    0.417918  -0.959687
    10  C   -0.190826   0.409312
    11  C   -0.143066  -0.551857
    12  C   -0.067114   0.440719
    13  C    0.272746  -0.480100
    14  C   -0.230779   0.383480
    15  C    0.638383  -1.128944
    16  C   -0.137681  -0.163805
    17  C   -0.168961  -0.384686
    18  O   -0.114923  -0.000308
    19  C    0.634860  -0.939731
    20  H    0.100560   0.046558
    21  H    0.019905   0.128114
    22  H    0.048756   0.095661
    23  H   -0.061342   0.204622
    24  H    0.113104   0.047967
    25  H    0.128238   0.091868
    26  H    0.555445  -0.483564
    27  H   -0.390404   0.599398
    28  H   -0.349346   0.598831
    29  H    0.277318  -0.120750
    30  H    0.401235  -0.223087
    31  H    0.403048  -0.134967
    32  H   -0.163835   0.358430
    33  H   -0.381758   0.583854
    34  H    0.083484   0.049183
    35  H   -0.336815   0.492261
    36  H   -0.032035   0.149083
    37  H   -0.121299   0.302683
    38  H   -0.050034   0.185299
    39  H   -0.250764   0.401768
    40  H    0.083987   0.193400
    41  H   -0.242894   0.456828
    42  H   -0.102911   0.287310
    43  H   -0.271401   0.417364
 Sum of Mulliken charges =  -1.00000   1.00000

 Dipole moment (field-independent basis, Debye):
    X=             -4.6374    Y=              3.2281    Z=             -1.4211  Tot=              5.8263
 Quadrupole moment (field-independent basis, Debye-Ang):
   XX=           -211.6799   YY=           -164.9283   ZZ=           -156.6141
   XY=              1.3045   XZ=              7.0313   YZ=              2.2779

 Summary of Natural Population Analysis:

                                       Natural Population
                Natural  -----------------------------------------------
    Atom  No    Charge         Core      Valence    Rydberg      Total
 -----------------------------------------------------------------------
      C    1   -0.29717      0.99963     2.29302    0.00452     3.29717
      C    2    0.07337      0.99960     1.91371    0.01332     2.92663
      N    3   -0.16530      0.99970     2.65451    0.01108     3.66530
      N    4   -0.11214      0.99962     2.60037    0.01215     3.61214
      C    5    0.09571      0.99951     1.89260    0.01218     2.90429
      C    6   -0.16254      0.99944     2.15584    0.00725     3.16254
      C    7   -0.21392      0.99953     2.20345    0.01093     3.21392
      C    8    0.14414      0.99949     1.83896    0.01741     2.85586
      C    9   -0.20016      0.99957     2.19078    0.00982     3.20016
      C   10   -0.10930      0.99958     2.09715    0.01256     3.10930
      C   11   -0.19557      0.99961     2.18716    0.00880     3.19557
      C   12   -0.11625      0.99953     2.10449    0.01223     3.11625
      C   13   -0.11092      0.99958     2.09901    0.01233     3.11092
      C   14   -0.10917      0.99959     2.09692    0.01266     3.10917
      C   15   -0.18979      0.99962     2.18116    0.00901     3.18979
      C   16   -0.19105      0.99964     2.18408    0.00733     3.19105
      C   17   -0.19067      0.99962     2.18243    0.00862     3.19067
      O   18   -0.37836      0.99988     3.37247    0.00600     4.37836
      C   19   -0.17419      0.99963     2.16658    0.00798     3.17419
      H   20    0.10773      0.00000     0.39116    0.00111     0.39227
      H   21    0.10282      0.00000     0.39600    0.00118     0.39718
      H   22    0.10111      0.00000     0.39773    0.00117     0.39889
      H   23    0.10779      0.00000     0.39136    0.00084     0.39221
      H   24    0.11058      0.00000     0.38815    0.00127     0.38942
      H   25    0.11450      0.00000     0.38431    0.00119     0.38550
      H   26    0.10170      0.00000     0.39625    0.00205     0.39830
      H   27    0.10527      0.00000     0.39293    0.00180     0.39473
      H   28    0.10242      0.00000     0.39663    0.00095     0.39758
      H   29    0.10074      0.00000     0.39803    0.00123     0.39926
      H   30    0.10560      0.00000     0.39243    0.00197     0.39440
      H   31    0.10382      0.00000     0.39484    0.00134     0.39618
      H   32    0.10528      0.00000     0.39327    0.00145     0.39472
      H   33    0.10249      0.00000     0.39492    0.00259     0.39751
      H   34    0.09876      0.00000     0.40013    0.00111     0.40124
      H   35    0.10016      0.00000     0.39828    0.00155     0.39984
      H   36    0.09132      0.00000     0.40732    0.00136     0.40868
      H   37    0.09931      0.00000     0.39970    0.00099     0.40069
      H   38    0.09821      0.00000     0.40082    0.00097     0.40179
      H   39    0.10087      0.00000     0.39783    0.00130     0.39913
      H   40    0.23402      0.00000     0.26250    0.00348     0.26598
      H   41    0.10077      0.00000     0.39787    0.00135     0.39923
      H   42    0.10527      0.00000     0.39352    0.00121     0.39473
      H   43    0.10277      0.00000     0.39603    0.00120     0.39723
 =======================================================================
   * Total *   -0.00000     18.99239    51.77674    0.23087    71.00000

 Normal termination of Gaussian 16 at Mon Dec 14 03:06:58 2020.
