 Gaussian 16, Revision A.03,

 -----------------------------------------------------------
 # opt freq B3LYP/6-31G(d) empiricaldispersion=gd3bj scf=xqc
 -----------------------------------------------------------

 ------------------------------
 CID_61427151_JID_8423_neutraal
 ------------------------------
 Symbolic Z-matrix:
 Charge =  0 Multiplicity = 1

 SCF Done:  E(RB3LYP) =  -1165.59245508     A.U. after   14 cycles
 SCF Done:  E(RB3LYP) =  -1165.59746213     A.U. after   14 cycles
 SCF Done:  E(RB3LYP) =  -1165.59750655     A.U. after   13 cycles
 SCF Done:  E(RB3LYP) =  -1165.59879070     A.U. after   13 cycles
 SCF Done:  E(RB3LYP) =  -1165.59931362     A.U. after   13 cycles
 SCF Done:  E(RB3LYP) =  -1165.59708769     A.U. after   12 cycles
 SCF Done:  E(RB3LYP) =  -1165.59924294     A.U. after   13 cycles
 SCF Done:  E(RB3LYP) =  -1165.59954572     A.U. after   10 cycles
 SCF Done:  E(RB3LYP) =  -1165.59965720     A.U. after   12 cycles
 SCF Done:  E(RB3LYP) =  -1165.59970600     A.U. after   11 cycles
 SCF Done:  E(RB3LYP) =  -1165.59987414     A.U. after   11 cycles
 SCF Done:  E(RB3LYP) =  -1165.59989023     A.U. after   11 cycles
 SCF Done:  E(RB3LYP) =  -1165.59989077     A.U. after   10 cycles
 SCF Done:  E(RB3LYP) =  -1165.59989099     A.U. after    9 cycles
 SCF Done:  E(RB3LYP) =  -1165.59989062     A.U. after    9 cycles
 SCF Done:  E(RB3LYP) =  -1165.59989100     A.U. after    9 cycles
 Optimization completed.
    -- Stationary point found.
 Normal termination of Gaussian 16 at Fri Dec 11 21:05:28 2020.

 --------------------------------------------------------------------
 #N Geom=AllCheck Guess=TCheck SCRF=Check GenChk RB3LYP/6-31G(d) Freq
 --------------------------------------------------------------------

 Structure from the checkpoint file:  "JID_8423.chk"
 ------------------------------
 CID_61427151_JID_8423_neutraal
 ------------------------------
 Charge =  0 Multiplicity = 1

 SCF Done:  E(RB3LYP) =  -1165.59989100     A.U. after    1 cycles

  Exact polarizability: 206.421  13.205 210.814 -14.302  -0.940 111.721
 Approx polarizability: 296.316  32.644 325.869 -33.180  -5.593 179.131

                      1                      2                      3
                      A                      A                      A
 Frequencies --     20.0577                31.1609                36.1776
 Red. masses --      3.5018                 4.6583                 6.0462
 Frc consts  --      0.0008                 0.0027                 0.0047
 IR Inten    --      0.3849                 0.2492                 0.5817

                      4                      5                      6
                      A                      A                      A
 Frequencies --     46.4009                58.2648                84.7800
 Red. masses --      3.6304                 4.3696                 4.5177
 Frc consts  --      0.0046                 0.0087                 0.0191
 IR Inten    --      0.4236                 0.9250                 2.3359

                      7                      8                      9
                      A                      A                      A
 Frequencies --    102.4915               125.9522               145.2241
 Red. masses --      2.2637                 2.8306                 3.7713
 Frc consts  --      0.0140                 0.0265                 0.0469
 IR Inten    --      1.0604                 1.0135                 4.1337

                     10                     11                     12
                      A                      A                      A
 Frequencies --    152.7800               170.2911               187.9849
 Red. masses --      3.6226                 1.5729                 4.1806
 Frc consts  --      0.0498                 0.0269                 0.0870
 IR Inten    --      1.6335                 0.2422                 2.9963

                     13                     14                     15
                      A                      A                      A
 Frequencies --    222.4078               241.0894               275.0068
 Red. masses --      1.7151                 1.7696                 4.2479
 Frc consts  --      0.0500                 0.0606                 0.1893
 IR Inten    --      3.7813                 0.1766                 2.0871

                     16                     17                     18
                      A                      A                      A
 Frequencies --    291.7678               310.9029               340.7960
 Red. masses --      3.3705                 3.3419                 2.3001
 Frc consts  --      0.1691                 0.1903                 0.1574
 IR Inten    --      1.0566                 1.2115                 4.7926

                     19                     20                     21
                      A                      A                      A
 Frequencies --    372.4535               402.1654               418.1349
 Red. masses --      2.7584                 2.6342                 3.1002
 Frc consts  --      0.2255                 0.2510                 0.3194
 IR Inten    --      4.8255                 2.8159                 9.6051

                     22                     23                     24
                      A                      A                      A
 Frequencies --    435.5793               454.9649               470.5737
 Red. masses --      3.0071                 2.5391                 1.9246
 Frc consts  --      0.3361                 0.3097                 0.2511
 IR Inten    --     15.0958                 0.3194                72.0563

                     25                     26                     27
                      A                      A                      A
 Frequencies --    485.2194               500.2735               521.9755
 Red. masses --      3.2559                 2.1678                 4.2874
 Frc consts  --      0.4516                 0.3197                 0.6883
 IR Inten    --     13.8880                44.3964                38.1815

                     28                     29                     30
                      A                      A                      A
 Frequencies --    531.3656               579.1692               602.6610
 Red. masses --      4.6095                 3.0202                 4.5892
 Frc consts  --      0.7668                 0.5969                 0.9821
 IR Inten    --      5.4719                 5.6849                 3.5901

                     31                     32                     33
                      A                      A                      A
 Frequencies --    688.6453               700.5711               709.5261
 Red. masses --      1.8493                 1.9985                 3.0339
 Frc consts  --      0.5167                 0.5779                 0.8999
 IR Inten    --      0.9802                 4.3780                 1.2931

                     34                     35                     36
                      A                      A                      A
 Frequencies --    719.6763               791.0583               815.6874
 Red. masses --      2.3999                 3.0051                 1.4065
 Frc consts  --      0.7324                 1.1080                 0.5514
 IR Inten    --     15.7526                13.3790                15.9374

                     37                     38                     39
                      A                      A                      A
 Frequencies --    818.2709               846.4713               905.0479
 Red. masses --      1.4014                 3.3047                 2.3786
 Frc consts  --      0.5529                 1.3951                 1.1479
 IR Inten    --      7.8628                38.0235                36.3881

                     40                     41                     42
                      A                      A                      A
 Frequencies --    924.8142               932.0877               957.9973
 Red. masses --      1.4922                 1.5210                 4.0279
 Frc consts  --      0.7519                 0.7786                 2.1780
 IR Inten    --     14.6432                 1.7133                29.3016

                     43                     44                     45
                      A                      A                      A
 Frequencies --    983.2011               988.8617               997.5774
 Red. masses --      1.4033                 1.9492                 2.3702
 Frc consts  --      0.7992                 1.1230                 1.3898
 IR Inten    --      1.4585                 1.9218                35.9287

                     46                     47                     48
                      A                      A                      A
 Frequencies --   1025.6067              1039.6455              1071.0233
 Red. masses --      6.1872                 2.9586                 2.7383
 Frc consts  --      3.8345                 1.8841                 1.8507
 IR Inten    --      0.4925                23.0529                62.0754

                     49                     50                     51
                      A                      A                      A
 Frequencies --   1085.9307              1104.4238              1108.0069
 Red. masses --      2.5781                 2.4591                 1.5788
 Frc consts  --      1.7912                 1.7673                 1.1420
 IR Inten    --     18.9796                22.5054                18.0194

                     52                     53                     54
                      A                      A                      A
 Frequencies --   1123.4067              1159.5557              1160.0031
 Red. masses --      1.8112                 1.7286                 2.0887
 Frc consts  --      1.3467                 1.3694                 1.6559
 IR Inten    --     14.5324                37.7895                93.3479

                     55                     56                     57
                      A                      A                      A
 Frequencies --   1181.0273              1189.5749              1193.0325
 Red. masses --      1.8184                 1.3010                 1.1282
 Frc consts  --      1.4944                 1.0847                 0.9461
 IR Inten    --     23.0119                 4.2296                 1.2155

                     58                     59                     60
                      A                      A                      A
 Frequencies --   1205.9563              1241.7752              1256.3507
 Red. masses --      2.3399                 1.8386                 2.0715
 Frc consts  --      2.0050                 1.6704                 1.9264
 IR Inten    --     27.3603                81.9270                 4.8302

                     61                     62                     63
                      A                      A                      A
 Frequencies --   1259.5159              1310.9641              1317.8547
 Red. masses --      3.0173                 1.3268                 1.4029
 Frc consts  --      2.8202                 1.3435                 1.4356
 IR Inten    --     93.0304                 3.8281                14.9661

                     64                     65                     66
                      A                      A                      A
 Frequencies --   1324.4249              1347.1932              1351.1682
 Red. masses --      1.4404                 1.6616                 1.5473
 Frc consts  --      1.4886                 1.7768                 1.6643
 IR Inten    --      5.4191                86.7222               100.1303

                     67                     68                     69
                      A                      A                      A
 Frequencies --   1361.2721              1368.0141              1379.6002
 Red. masses --      1.2976                 2.6987                 1.3368
 Frc consts  --      1.4167                 2.9757                 1.4991
 IR Inten    --     10.3385                45.0852                17.4446

                     70                     71                     72
                      A                      A                      A
 Frequencies --   1389.4414              1428.0685              1441.8252
 Red. masses --      4.6169                 1.2977                 1.3525
 Frc consts  --      5.2515                 1.5592                 1.6565
 IR Inten    --    114.8415                24.2988                 8.4337

                     73                     74                     75
                      A                      A                      A
 Frequencies --   1451.3938              1478.0898              1486.2901
 Red. masses --      1.3382                 3.2526                 1.1786
 Frc consts  --      1.6609                 4.1868                 1.5340
 IR Inten    --      9.3747                79.4610                 3.1363

                     76                     77                     78
                      A                      A                      A
 Frequencies --   1501.3667              1507.8441              1517.8907
 Red. masses --      1.1218                 1.1010                 1.1079
 Frc consts  --      1.4898                 1.4748                 1.5040
 IR Inten    --      2.2224                 6.0214                 0.9429

                     79                     80                     81
                      A                      A                      A
 Frequencies --   1520.9853              1523.5904              1529.4639
 Red. masses --      1.0745                 1.1171                 1.0990
 Frc consts  --      1.4646                 1.5278                 1.5146
 IR Inten    --      4.3929                 3.8524                19.3327

                     82                     83                     84
                      A                      A                      A
 Frequencies --   1535.6253              1537.6909              1542.6932
 Red. masses --      1.5862                 1.1558                 1.1544
 Frc consts  --      2.2038                 1.6101                 1.6187
 IR Inten    --     33.1098                11.8602                 2.4764

                     85                     86                     87
                      A                      A                      A
 Frequencies --   1545.5797              1639.7581              1662.4730
 Red. masses --      1.0847                 5.5411                 6.0003
 Frc consts  --      1.5267                 8.7781                 9.7709
 IR Inten    --      8.0023                27.3396                10.6488

                     88                     89                     90
                      A                      A                      A
 Frequencies --   1667.8642              2911.4897              2942.0318
 Red. masses --      1.2364                 1.0736                 1.0711
 Frc consts  --      2.0264                 5.3617                 5.4623
 IR Inten    --    133.7923                65.6462                57.9190

                     91                     92                     93
                      A                      A                      A
 Frequencies --   2964.0480              2998.9231              3012.6830
 Red. masses --      1.0605                 1.0410                 1.0650
 Frc consts  --      5.4896                 5.5163                 5.6951
 IR Inten    --     99.4527                63.0460                44.5968

                     94                     95                     96
                      A                      A                      A
 Frequencies --   3051.2432              3054.4273              3080.1011
 Red. masses --      1.1023                 1.0640                 1.0869
 Frc consts  --      6.0465                 5.8488                 6.0754
 IR Inten    --     58.9273                40.2092                14.7581

                     97                     98                     99
                      A                      A                      A
 Frequencies --   3095.4100              3104.0502              3106.1053
 Red. masses --      1.0968                 1.0894                 1.0761
 Frc consts  --      6.1919                 6.1842                 6.1168
 IR Inten    --     46.1739                 9.2718                19.1036

                    100                    101                    102
                      A                      A                      A
 Frequencies --   3116.6675              3141.1378              3150.5923
 Red. masses --      1.0993                 1.0974                 1.1016
 Frc consts  --      6.2911                 6.3798                 6.4428
 IR Inten    --     53.5312                33.5068                16.3083

                    103                    104                    105
                      A                      A                      A
 Frequencies --   3196.7697              3213.9126              3229.2553
 Red. masses --      1.0875                 1.0934                 1.0934
 Frc consts  --      6.5476                 6.6543                 6.7180
 IR Inten    --      9.0035                10.3842                 3.8200

                    106                    107                    108
                      A                      A                      A
 Frequencies --   3258.9933              3507.2835              3671.5567
 Red. masses --      1.0906                 1.0518                 1.0995
 Frc consts  --      6.8245                 7.6229                 8.7329
 IR Inten    --      2.7986               196.0417                73.8195

 - Thermochemistry -
 -------------------
 Temperature   298.150 Kelvin.  Pressure   1.00000 Atm.
 Atom     1 has atomic number  6 and mass  12.00000

 Molecular mass:   268.12455 amu.
 Principal axes and moments of inertia in atomic units:
                           1         2         3
     Eigenvalues --  4016.343656944.911129987.78078
           X            0.99973  -0.02319  -0.00254
           Y            0.02321   0.99970   0.00798
           Z            0.00235  -0.00803   0.99996
 This molecule is an asymmetric top.
 Rotational symmetry number  1.
 Warning -- assumption of classical behavior for rotation
           may cause significant error
 Rotational temperatures (Kelvin)      0.02157     0.01247     0.00867
 Rotational constants (GHZ):           0.44935     0.25987     0.18069
 Zero-point vibrational energy     851008.5 (Joules/Mol)
                                  203.39591 (Kcal/Mol)
 Warning -- explicit consideration of  30 degrees of freedom as
           vibrations may cause significant error
 Vibrational temperatures:     28.86    44.83    52.05    66.76    83.83
          (Kelvin)            121.98   147.46   181.22   208.95   219.82
                              245.01   270.47   320.00   346.87   395.67
                              419.79   447.32   490.33   535.88   578.63
                              601.60   626.70   654.59   677.05   698.12
                              719.78   751.01   764.52   833.30   867.09
                              990.81  1007.97  1020.85  1035.45  1138.16
                             1173.59  1177.31  1217.88  1302.16  1330.60
                             1341.07  1378.34  1414.61  1422.75  1435.29
                             1475.62  1495.82  1540.96  1562.41  1589.02
                             1594.17  1616.33  1668.34  1668.99  1699.23
                             1711.53  1716.51  1735.10  1786.64  1807.61
                             1812.16  1886.18  1896.10  1905.55  1938.31
                             1944.03  1958.57  1968.27  1984.94  1999.10
                             2054.67  2074.46  2088.23  2126.64  2138.44
                             2160.13  2169.45  2183.91  2188.36  2192.11
                             2200.56  2209.42  2212.39  2219.59  2223.74
                             2359.25  2391.93  2399.68  4188.98  4232.93
                             4264.60  4314.78  4334.58  4390.06  4394.64
                             4431.58  4453.60  4466.04  4468.99  4484.19
                             4519.40  4533.00  4599.44  4624.10  4646.18
                             4688.96  5046.20  5282.55

 Zero-point correction=                           0.324132 (Hartree/Particle)
 Thermal correction to Energy=                    0.343078
 Thermal correction to Enthalpy=                  0.344022
 Thermal correction to Gibbs Free Energy=         0.274509
 Sum of electronic and zero-point Energies=          -1165.275759
 Sum of electronic and thermal Energies=             -1165.256813
 Sum of electronic and thermal Enthalpies=           -1165.255869
 Sum of electronic and thermal Free Energies=        -1165.325382

                     E (Thermal)             CV                S
                      KCal/Mol        Cal/Mol-Kelvin    Cal/Mol-Kelvin
 Total                  215.284             70.064            146.302
 Electronic               0.000              0.000              0.000
 Translational            0.889              2.981             42.658
 Rotational               0.889              2.981             33.987
 Vibrational            213.507             64.102             69.656
 Vibration     1          0.593              1.986              6.628
 Vibration     2          0.594              1.983              5.754
 Vibration     3          0.594              1.982              5.458
 Vibration     4          0.595              1.979              4.965
 Vibration     5          0.596              1.974              4.515
 Vibration     6          0.601              1.960              3.777
 Vibration     7          0.605              1.947              3.406
 Vibration     8          0.611              1.927              3.007
 Vibration     9          0.617              1.908              2.734
 Vibration    10          0.619              1.900              2.637
 Vibration    11          0.625              1.879              2.432
 Vibration    12          0.633              1.856              2.248
 Vibration    13          0.648              1.807              1.939
 Vibration    14          0.658              1.777              1.795
 Vibration    15          0.677              1.720              1.565
 Vibration    16          0.687              1.689              1.464
 Vibration    17          0.700              1.653              1.358
 Vibration    18          0.720              1.594              1.208
 Vibration    19          0.744              1.529              1.070
 Vibration    20          0.768              1.465              0.955
 Vibration    21          0.781              1.431              0.898
 Vibration    22          0.796              1.393              0.841
 Vibration    23          0.813              1.350              0.781
 Vibration    24          0.828              1.315              0.736
 Vibration    25          0.841              1.283              0.696
 Vibration    26          0.856              1.249              0.657
 Vibration    27          0.877              1.201              0.605
 Vibration    28          0.886              1.181              0.584
 Vibration    29          0.936              1.076              0.487
 Vibration    30          0.961              1.026              0.445

 Optimization completed.
    -- Stationary point found.
 Normal termination of Gaussian 16 at Fri Dec 11 21:23:09 2020.

 ----------------------------------------------------------------------
 # B3LYP/6-311++G(d,p) empiricaldispersion=gd3bj scf=xqc pop=npa geom=c
 heck
 ----------------------------------------------------------------------

 --------------------------------------
 CID_61427151_JID_8423_Energie_neutraal
 --------------------------------------
 Structure from the checkpoint file:  "JID_8423.chk"
 Charge =  0 Multiplicity = 1

 SCF Done:  E(RB3LYP) =  -1165.84398081     A.U. after   16 cycles
 Normal termination of Gaussian 16 at Fri Dec 11 21:30:40 2020.

 ----------------------------------------------------------------------
 # B3LYP/6-311++G(d,p) empiricaldispersion=gd3bj scf=xqc pop=npa geom=c
 heck
 ----------------------------------------------------------------------

 ------------------------------------
 CID_61427151_JID_8423_Energie_kation
 ------------------------------------
 Structure from the checkpoint file:  "JID_8423.chk"
 Charge =  1 Multiplicity = 2

 SCF Done:  E(UB3LYP) =  -1165.56368708     A.U. after   28 cycles
 Normal termination of Gaussian 16 at Fri Dec 11 21:48:09 2020.
 Gaussian 16:  ES64L-G16RevA.03 25-Dec-2016

 ----------------------------------------------------------------------
 # B3LYP/6-311++G(d,p) empiricaldispersion=gd3bj scf=xqc pop=npa geom=c
 heck
 ----------------------------------------------------------------------

 -----------------------------------
 CID_61427151_JID_8423_Energie_anion
 -----------------------------------
 Structure from the checkpoint file:  "JID_8423.chk"
 Charge = -1 Multiplicity = 2

                         Standard orientation:
 ---------------------------------------------------------------------
 Center     Atomic      Atomic             Coordinates (Angstroms)
 Number     Number       Type             X           Y           Z
 ---------------------------------------------------------------------
      1          6           0        0.754475    0.969332    1.926089
      2          7           0        1.355005    0.733113    0.614362
      3          6           0        2.579618   -0.064084    0.741977
      4          6           0        3.067506   -0.638417   -0.595811
      5          8           0        4.012434   -1.675208   -0.410322
      6          6           0        5.317470   -1.219186   -0.108732
      7          6           0        1.635077    1.984467   -0.108886
      8          6           0        0.497131    2.998279   -0.272417
      9          8           0       -0.530444    2.635784   -1.198020
     10          6           0       -1.474960    1.764678   -0.687483
     11          6           0       -2.621840    2.247794   -0.057493
     12          6           0       -3.537785    1.337991    0.480799
     13          6           0       -3.292657   -0.032099    0.428236
     14          6           0       -2.129890   -0.510632   -0.192115
     15          6           0       -1.255044    0.397812   -0.796972
     16          6           0       -1.749182   -1.946124   -0.123228
     17         16           0       -2.841331   -3.205712   -0.107102
     18          7           0       -0.412171   -2.137661   -0.060663
     19          1           0        0.634833    0.011838    2.440948
     20          1           0       -0.239602    1.407212    1.813196
     21          1           0        1.365473    1.632427    2.566171
     22          1           0        3.386237    0.514744    1.231374
     23          1           0        2.362317   -0.919137    1.391829
     24          1           0        2.218835   -1.088288   -1.122999
     25          1           0        3.488493    0.143907   -1.245487
     26          1           0        5.679254   -0.508897   -0.869028
     27          1           0        5.379406   -0.735146    0.876748
     28          1           0        5.966668   -2.098154   -0.107317
     29          1           0        2.458526    2.531757    0.395694
     30          1           0        1.987837    1.731334   -1.112995
     31          1           0        0.051739    3.266031    0.693617
     32          1           0        0.944415    3.904597   -0.691568
     33          1           0       -2.785281    3.319327    0.003959
     34          1           0       -4.437237    1.705472    0.965936
     35          1           0       -3.975943   -0.743917    0.877844
     36          1           0       -0.375607    0.061619   -1.327200
     37          1           0        0.215280   -1.355301    0.102909
     38          1           0       -0.059622   -3.081668    0.017048
 ---------------------------------------------------------------------

 SCF Done:  E(UB3LYP) =  -1165.85494462     A.U. after   30 cycles

 The electronic state is 2-A.
 Alpha  occ. eigenvalues --  -88.64319 -19.04924 -19.03468 -14.23111 -14.20101
 Alpha  occ. eigenvalues --  -10.13765 -10.13634 -10.13623 -10.11682 -10.11493
 Alpha  occ. eigenvalues --  -10.10422 -10.10214 -10.09529 -10.05351 -10.04746
 Alpha  occ. eigenvalues --  -10.04622 -10.04287 -10.04031  -7.73093  -5.69444
 Alpha  occ. eigenvalues --   -5.69002  -5.68652  -0.96137  -0.95121  -0.84625
 Alpha  occ. eigenvalues --   -0.80557  -0.73098  -0.68368  -0.66569  -0.63725
 Alpha  occ. eigenvalues --   -0.62181  -0.61644  -0.58637  -0.57280  -0.53824
 Alpha  occ. eigenvalues --   -0.50507  -0.49581  -0.48142  -0.44492  -0.42577
 Alpha  occ. eigenvalues --   -0.41903  -0.41351  -0.40715  -0.39506  -0.38243
 Alpha  occ. eigenvalues --   -0.37277  -0.37072  -0.36112  -0.34970  -0.34198
 Alpha  occ. eigenvalues --   -0.32986  -0.32379  -0.31830  -0.30412  -0.29975
 Alpha  occ. eigenvalues --   -0.29186  -0.28910  -0.27661  -0.26346  -0.25480
 Alpha  occ. eigenvalues --   -0.24730  -0.23855  -0.23701  -0.21800  -0.21338
 Alpha  occ. eigenvalues --   -0.18840  -0.17433  -0.15188  -0.13378  -0.12400
 Alpha  occ. eigenvalues --   -0.09250  -0.06804   0.03400
 Alpha virt. eigenvalues --    0.04779   0.06441   0.07254   0.08094   0.08825
 Alpha virt. eigenvalues --    0.08939   0.09470   0.10318   0.10666   0.10933
 Alpha virt. eigenvalues --    0.11132   0.11606   0.12047   0.12369   0.12873

  Beta  occ. eigenvalues --  -88.64272 -19.04921 -19.03467 -14.23108 -14.19980
  Beta  occ. eigenvalues --  -10.13765 -10.13617 -10.13606 -10.11678 -10.11487
  Beta  occ. eigenvalues --  -10.10482 -10.10213 -10.09103 -10.05364 -10.04647
  Beta  occ. eigenvalues --  -10.04401 -10.04205 -10.03872  -7.73051  -5.69431
  Beta  occ. eigenvalues --   -5.68845  -5.68624  -0.96131  -0.95125  -0.84618
  Beta  occ. eigenvalues --   -0.80102  -0.72866  -0.68344  -0.66537  -0.63273
  Beta  occ. eigenvalues --   -0.62006  -0.61594  -0.58295  -0.57128  -0.53774
  Beta  occ. eigenvalues --   -0.50302  -0.49291  -0.48046  -0.44329  -0.42510
  Beta  occ. eigenvalues --   -0.41829  -0.41260  -0.40688  -0.39445  -0.38146
  Beta  occ. eigenvalues --   -0.37216  -0.37008  -0.36061  -0.34813  -0.34165
  Beta  occ. eigenvalues --   -0.32918  -0.32240  -0.31765  -0.30222  -0.29916
  Beta  occ. eigenvalues --   -0.29147  -0.28880  -0.27632  -0.26092  -0.25094
  Beta  occ. eigenvalues --   -0.24110  -0.23672  -0.23498  -0.21100  -0.20884
  Beta  occ. eigenvalues --   -0.18817  -0.17372  -0.14978  -0.12374  -0.11919
  Beta  occ. eigenvalues --   -0.08275  -0.06602
  Beta virt. eigenvalues --    0.05202   0.06481   0.07303   0.08083   0.08343
  Beta virt. eigenvalues --    0.08773   0.08969   0.09532   0.10319   0.10684
  Beta virt. eigenvalues --    0.10954   0.11217   0.11652   0.12034   0.12398

 Mulliken charges and spin densities:
               1          2
     1  C   -0.362715  -0.049092
     2  N    0.210513   0.004260
     3  C   -0.346919  -0.036916
     4  C   -0.442677   0.045459
     5  O   -0.120291   0.024803
     6  C    0.357761  -0.630881
     7  C   -0.200002  -0.100664
     8  C   -0.368764  -0.071791
     9  O   -0.080108   0.001831
    10  C   -0.503385  -0.086396
    11  C    0.035354   0.129275
    12  C   -0.284113   0.023229
    13  C   -0.658661   0.043583
    14  C    1.902224   0.040518
    15  C   -0.344111   0.165222
    16  C   -0.764499   0.215785
    17  S   -1.018478   0.139221
    18  N   -0.259494   0.077460
    19  H    0.135068  -0.003686
    20  H    0.152576  -0.007012
    21  H    0.078895   0.052334
    22  H    0.068021   0.029956
    23  H    0.184438   0.010065
    24  H    0.089338   0.123508
    25  H    0.146591  -0.025013
    26  H   -0.181587   0.297293
    27  H   -0.148999   0.279313
    28  H    0.027772   0.131341
    29  H   -0.041266   0.138818
    30  H    0.176225   0.026339
    31  H    0.129607   0.009712
    32  H    0.126441   0.039510
    33  H    0.134938  -0.014327
    34  H    0.140365   0.002461
    35  H    0.111003  -0.001892
    36  H    0.120738   0.035409
    37  H    0.569788  -0.061512
    38  H    0.228413   0.002478
 Sum of Mulliken charges =  -1.00000   1.00000

 Dipole moment (field-independent basis, Debye):
    X=              6.0503    Y=              6.8993    Z=              2.4269  Tot=              9.4918
 Quadrupole moment (field-independent basis, Debye-Ang):
   XX=           -187.2239   YY=           -165.0237   ZZ=           -134.4573
   XY=            -16.5814   XZ=             -3.7688   YZ=              0.5635

 Summary of Natural Population Analysis:

                                       Natural Population
                Natural  -----------------------------------------------
    Atom  No    Charge         Core      Valence    Rydberg      Total
 -----------------------------------------------------------------------
      C    1   -0.18217      0.99965     2.17437    0.00815     3.18217
      N    2   -0.28623      0.99972     2.77479    0.01172     3.78623
      C    3   -0.09870      0.99961     2.08856    0.01053     3.09870
      C    4   -0.01448      0.99958     2.00199    0.01291     3.01448
      O    5   -0.29613      0.99989     3.28657    0.00966     4.29613
      C    6   -0.09969      0.99962     2.09051    0.00957     3.09969
      C    7   -0.09909      0.99961     2.08774    0.01175     3.09909
      C    8   -0.01298      0.99955     2.00027    0.01316     3.01298
      O    9   -0.29641      0.99986     3.28679    0.00976     4.29641
      C   10    0.12833      0.99934     1.85956    0.01278     2.87167
      C   11   -0.08765      0.99951     2.07950    0.00864     3.08765
      C   12   -0.11290      0.99958     2.10472    0.00860     3.11290
      C   13   -0.07071      0.99953     2.06325    0.00793     3.07071
      C   14   -0.03528      0.99945     2.02355    0.01228     3.03528
      C   15   -0.07921      0.99946     2.07014    0.00960     3.07921
      C   16    0.12304      0.99959     1.85807    0.01930     2.87696
      S   17   -0.13055      4.99956     3.11685    0.01414     8.13055
      N   18   -0.37530      0.99967     2.86545    0.01018     3.87530
      H   19    0.09898      0.00000     0.40022    0.00080     0.40102
      H   20    0.10671      0.00000     0.39223    0.00106     0.39329
      H   21    0.07875      0.00000     0.42018    0.00107     0.42125
      H   22    0.08064      0.00000     0.41760    0.00177     0.41936
      H   23    0.09971      0.00000     0.39904    0.00124     0.40029
      H   24    0.09686      0.00000     0.40133    0.00181     0.40314
      H   25    0.07687      0.00000     0.42158    0.00156     0.42313
      H   26    0.07843      0.00000     0.42009    0.00147     0.42157
      H   27    0.07904      0.00000     0.41964    0.00132     0.42096
      H   28    0.08990      0.00000     0.40921    0.00089     0.41010
      H   29    0.08252      0.00000     0.41571    0.00177     0.41748
      H   30    0.09925      0.00000     0.39934    0.00141     0.40075
      H   31    0.08518      0.00000     0.41356    0.00125     0.41482
      H   32    0.08933      0.00000     0.40967    0.00100     0.41067
      H   33    0.09459      0.00000     0.40409    0.00132     0.40541
      H   34    0.09285      0.00000     0.40614    0.00101     0.40715
      H   35    0.10865      0.00000     0.39023    0.00113     0.39135
      H   36    0.10266      0.00000     0.39515    0.00219     0.39734
      H   37    0.19407      0.00000     0.30347    0.00246     0.30593
      H   38    0.19112      0.00000     0.30709    0.00179     0.30888
 =======================================================================
   * Total *    0.00000     21.99277    49.77828    0.22896    72.00000

 Normal termination of Gaussian 16 at Fri Dec 11 22:07:06 2020.
