 Gaussian 16, Revision A.03,

 -----------------------------------------------------------
 # opt freq B3LYP/6-31G(d) empiricaldispersion=gd3bj scf=xqc
 -----------------------------------------------------------

 -------------------------------
 CID_149918415_JID_8055_neutraal
 -------------------------------
 Symbolic Z-matrix:
 Charge =  0 Multiplicity = 1

 SCF Done:  E(RB3LYP) =  -888.236769919     A.U. after   19 cycles
 SCF Done:  E(RB3LYP) =  -888.243710085     A.U. after   14 cycles
 SCF Done:  E(RB3LYP) =  -888.243125747     A.U. after   15 cycles
 SCF Done:  E(RB3LYP) =  -888.245886885     A.U. after   13 cycles
 SCF Done:  E(RB3LYP) =  -888.246763036     A.U. after   14 cycles
 SCF Done:  E(RB3LYP) =  -888.247452714     A.U. after   14 cycles
 SCF Done:  E(RB3LYP) =  -888.248323638     A.U. after   16 cycles
 SCF Done:  E(RB3LYP) =  -888.248975578     A.U. after   15 cycles
 SCF Done:  E(RB3LYP) =  -888.249579375     A.U. after   15 cycles
 SCF Done:  E(RB3LYP) =  -888.249685379     A.U. after   13 cycles
 SCF Done:  E(RB3LYP) =  -888.249955655     A.U. after   10 cycles
 SCF Done:  E(RB3LYP) =  -888.249955931     A.U. after    9 cycles
 SCF Done:  E(RB3LYP) =  -888.249955994     A.U. after    9 cycles
 SCF Done:  E(RB3LYP) =  -888.249956024     A.U. after    8 cycles
 SCF Done:  E(RB3LYP) =  -888.249956034     A.U. after    7 cycles
 Optimization completed.
    -- Stationary point found.
 Normal termination of Gaussian 16 at Fri Dec 11 18:55:59 2020.

 --------------------------------------------------------------------
 #N Geom=AllCheck Guess=TCheck SCRF=Check GenChk RB3LYP/6-31G(d) Freq
 --------------------------------------------------------------------

 Structure from the checkpoint file:  "JID_8055.chk"
 -------------------------------
 CID_149918415_JID_8055_neutraal
 -------------------------------
 Charge =  0 Multiplicity = 1

 SCF Done:  E(RB3LYP) =  -888.249956034     A.U. after    1 cycles

  Exact polarizability: 235.916  -2.082 149.228  -0.844   5.245  89.286
 Approx polarizability: 346.078   5.647 232.898   3.603  14.269 143.346

                      1                      2                      3
                      A                      A                      A
 Frequencies --     18.6025                27.3322                31.6045
 Red. masses --      9.6621                10.6229                 3.8492
 Frc consts  --      0.0020                 0.0047                 0.0023
 IR Inten    --      0.0152                 0.1331                 2.4985

                      4                      5                      6
                      A                      A                      A
 Frequencies --     56.8761                61.9666                79.5525
 Red. masses --      5.7437                 3.1517                 1.3177
 Frc consts  --      0.0109                 0.0071                 0.0049
 IR Inten    --      7.5068                 0.5791                 0.1111

                      7                      8                      9
                      A                      A                      A
 Frequencies --     89.4310               103.2335               150.9566
 Red. masses --      3.9888                 3.9849                 4.5506
 Frc consts  --      0.0188                 0.0250                 0.0611
 IR Inten    --      0.2033                 0.6274                 2.0939

                     10                     11                     12
                      A                      A                      A
 Frequencies --    169.5515               185.7539               200.8738
 Red. masses --      3.5061                 2.9698                 2.1987
 Frc consts  --      0.0594                 0.0604                 0.0523
 IR Inten    --      0.8649                 2.6270                 0.6690

                     13                     14                     15
                      A                      A                      A
 Frequencies --    215.3933               227.8860               258.4323
 Red. masses --      5.4570                 2.0370                 6.4612
 Frc consts  --      0.1492                 0.0623                 0.2542
 IR Inten    --      0.7295                 0.6164                 2.7306

                     16                     17                     18
                      A                      A                      A
 Frequencies --    283.4931               327.1223               368.6039
 Red. masses --      3.8982                 3.3993                 4.8541
 Frc consts  --      0.1846                 0.2143                 0.3886
 IR Inten    --      0.2155                 2.3055                 0.8785

                     19                     20                     21
                      A                      A                      A
 Frequencies --    375.6833               419.5570               460.7903
 Red. masses --      5.8452                 4.1152                 4.6118
 Frc consts  --      0.4861                 0.4268                 0.5769
 IR Inten    --     12.3783                 3.2635                 0.9519

                     22                     23                     24
                      A                      A                      A
 Frequencies --    474.1027               509.5111               510.7556
 Red. masses --      3.6039                 2.9848                 6.7416
 Frc consts  --      0.4773                 0.4565                 1.0362
 IR Inten    --      5.1626                 4.6663                13.8287

                     25                     26                     27
                      A                      A                      A
 Frequencies --    548.1521               561.1560               575.6995
 Red. masses --      3.9315                 2.8862                 2.0822
 Frc consts  --      0.6960                 0.5355                 0.4066
 IR Inten    --     24.0157                24.8291                50.8062

                     28                     29                     30
                      A                      A                      A
 Frequencies --    615.8991               646.1376               660.6737
 Red. masses --      3.7529                 2.3781                 3.7652
 Frc consts  --      0.8388                 0.5850                 0.9683
 IR Inten    --     15.1320                62.9330                24.6654

                     31                     32                     33
                      A                      A                      A
 Frequencies --    706.9002               709.4729               761.2743
 Red. masses --      4.3104                 4.7939                 6.9575
 Frc consts  --      1.2691                 1.4217                 2.3757
 IR Inten    --     10.2265                 1.2717                19.5340

                     34                     35                     36
                      A                      A                      A
 Frequencies --    765.7652               823.3471               825.6463
 Red. masses --      6.5127                 1.2555                 1.2933
 Frc consts  --      2.2501                 0.5014                 0.5195
 IR Inten    --     21.0665                 4.1698                13.3255

                     37                     38                     39
                      A                      A                      A
 Frequencies --    849.7613               859.2159               902.6121
 Red. masses --      1.5270                 3.5708                 5.9326
 Frc consts  --      0.6497                 1.5532                 2.8477
 IR Inten    --     39.1198                 1.3436                17.3706

                     40                     41                     42
                      A                      A                      A
 Frequencies --    910.6418               938.4683               956.0620
 Red. masses --      3.2876                 3.3008                 1.2632
 Frc consts  --      1.6063                 1.7128                 0.6803
 IR Inten    --     46.3859                 9.8938                 2.6777

                     43                     44                     45
                      A                      A                      A
 Frequencies --   1001.4661              1072.3906              1114.5737
 Red. masses --      3.4961                 3.5773                 2.1236
 Frc consts  --      2.0659                 2.4239                 1.5543
 IR Inten    --     77.2999                45.1839                30.5025

                     46                     47                     48
                      A                      A                      A
 Frequencies --   1127.1865              1151.7398              1171.1431
 Red. masses --      1.9195                 1.6096                 1.3284
 Frc consts  --      1.4369                 1.2580                 1.0735
 IR Inten    --      9.0463                73.2583                31.8412

                     49                     50                     51
                      A                      A                      A
 Frequencies --   1188.2321              1194.6029              1211.2534
 Red. masses --      1.8112                 2.0427                 2.2323
 Frc consts  --      1.5067                 1.7175                 1.9296
 IR Inten    --     67.9644                29.0685                91.8479

                     52                     53                     54
                      A                      A                      A
 Frequencies --   1216.4445              1244.3736              1308.8283
 Red. masses --      6.6910                 2.1426                 1.6701
 Frc consts  --      5.8335                 1.9547                 1.6856
 IR Inten    --     16.3885                99.0759               147.0946

                     55                     56                     57
                      A                      A                      A
 Frequencies --   1329.0756              1335.0456              1377.9707
 Red. masses --      4.0491                 1.1640                 4.4636
 Frc consts  --      4.2141                 1.2223                 4.9936
 IR Inten    --    116.7745                26.6097                18.3617

                     58                     59                     60
                      A                      A                      A
 Frequencies --   1403.1066              1416.9855              1442.7341
 Red. masses --      3.2271                 1.3699                 1.2944
 Frc consts  --      3.7432                 1.6205                 1.5874
 IR Inten    --    385.4031                16.2299                26.1773

                     61                     62                     63
                      A                      A                      A
 Frequencies --   1462.2501              1475.2431              1491.4571
 Red. masses --      1.4034                 2.0041                 1.9806
 Frc consts  --      1.7679                 2.5698                 2.5958
 IR Inten    --     63.8611                22.7424                11.8747

                     64                     65                     66
                      A                      A                      A
 Frequencies --   1504.5646              1516.8563              1525.2132
 Red. masses --      1.4187                 1.0564                 1.1517
 Frc consts  --      1.8922                 1.4321                 1.5786
 IR Inten    --     39.0711                 4.4148                33.3469

                     67                     68                     69
                      A                      A                      A
 Frequencies --   1532.1394              1547.4226              1549.5183
 Red. masses --      1.0561                 1.0596                 1.1005
 Frc consts  --      1.4607                 1.4948                 1.5567
 IR Inten    --      1.4000                21.8238                 8.8369

                     70                     71                     72
                      A                      A                      A
 Frequencies --   1560.8121              1654.2204              1665.4503
 Red. masses --      2.9751                 7.6101                 6.4460
 Frc consts  --      4.2703                12.2696                10.5342
 IR Inten    --    401.5069                25.2889                40.0374

                     73                     74                     75
                      A                      A                      A
 Frequencies --   1804.7377              2199.6225              3055.9938
 Red. masses --      6.5752                13.9921                 1.0670
 Frc consts  --     12.6179                39.8867                 5.8711
 IR Inten    --    658.2381               513.4906                34.4046

                     76                     77                     78
                      A                      A                      A
 Frequencies --   3058.4755              3063.5335              3118.6382
 Red. masses --      1.0340                 1.0361                 1.1020
 Frc consts  --      5.6985                 5.7291                 6.3150
 IR Inten    --     39.5569                13.2217                 8.8689

                     79                     80                     81
                      A                      A                      A
 Frequencies --   3118.7842              3133.0122              3143.7947
 Red. masses --      1.1005                 1.1016                 1.1051
 Frc consts  --      6.3068                 6.3708                 6.4352
 IR Inten    --     28.4643                25.6124                21.9253

                     82                     83                     84
                      A                      A                      A
 Frequencies --   3148.1429              3221.4180              3234.5036
 Red. masses --      1.1034                 1.0882                 1.0945
 Frc consts  --      6.4428                 6.6533                 6.7463
 IR Inten    --     35.6772                 2.8709                 1.5605

                     85                     86                     87
                      A                      A                      A
 Frequencies --   3265.9673              3608.5424              3613.9386
 Red. masses --      1.0892                 1.0751                 1.0761
 Frc consts  --      6.8453                 8.2486                 8.2807
 IR Inten    --      1.7128                48.2966                34.5525

 - Thermochemistry -
 -------------------
 Temperature   298.150 Kelvin.  Pressure   1.00000 Atm.
 Atom     1 has atomic number  6 and mass  12.00000

 Molecular mass:   251.10184 amu.
 Principal axes and moments of inertia in atomic units:
                           1         2         3
     Eigenvalues --  2635.125148075.93835**********
           X            0.99959  -0.02781   0.00723
           Y            0.02787   0.99957  -0.00954
           Z           -0.00696   0.00974   0.99993
 This molecule is an asymmetric top.
 Rotational symmetry number  1.
 Warning -- assumption of classical behavior for rotation
           may cause significant error
 Rotational temperatures (Kelvin)      0.03287     0.01072     0.00864
 Rotational constants (GHZ):           0.68488     0.22347     0.18002
 Zero-point vibrational energy     632856.6 (Joules/Mol)
                                  151.25635 (Kcal/Mol)
 Warning -- explicit consideration of  28 degrees of freedom as
           vibrations may cause significant error
 Vibrational temperatures:     26.76    39.32    45.47    81.83    89.16
          (Kelvin)            114.46   128.67   148.53   217.19   243.95
                              267.26   289.01   309.90   327.88   371.83
                              407.88   470.66   530.34   540.52   603.65
                              662.97   682.13   733.07   734.86   788.67
                              807.38   828.30   886.14   929.65   950.56
                             1017.07  1020.77  1095.30  1101.77  1184.61
                             1187.92  1222.62  1236.22  1298.66  1310.21
                             1350.25  1375.56  1440.89  1542.93  1603.62
                             1621.77  1657.10  1685.01  1709.60  1718.77
                             1742.72  1750.19  1790.38  1883.11  1912.24
                             1920.83  1982.59  2018.76  2038.73  2075.77
                             2103.85  2122.55  2145.87  2164.73  2182.42
                             2194.44  2204.41  2226.40  2229.41  2245.66
                             2380.05  2396.21  2596.62  3164.77  4396.89
                             4400.46  4407.74  4487.02  4487.23  4507.71
                             4523.22  4529.48  4634.90  4653.73  4699.00
                             5191.89  5199.65

 Zero-point correction=                           0.241042 (Hartree/Particle)
 Thermal correction to Energy=                    0.259246
 Thermal correction to Enthalpy=                  0.260190
 Thermal correction to Gibbs Free Energy=         0.191717
 Sum of electronic and zero-point Energies=           -888.008914
 Sum of electronic and thermal Energies=              -887.990710
 Sum of electronic and thermal Enthalpies=            -887.989766
 Sum of electronic and thermal Free Energies=         -888.058239

                     E (Thermal)             CV                S
                      KCal/Mol        Cal/Mol-Kelvin    Cal/Mol-Kelvin
 Total                  162.679             65.239            144.113
 Electronic               0.000              0.000              0.000
 Translational            0.889              2.981             42.462
 Rotational               0.889              2.981             33.722
 Vibrational            160.902             59.277             67.928
 Vibration     1          0.593              1.986              6.778
 Vibration     2          0.593              1.984              6.014
 Vibration     3          0.594              1.983              5.726
 Vibration     4          0.596              1.975              4.563
 Vibration     5          0.597              1.972              4.394
 Vibration     6          0.600              1.963              3.902
 Vibration     7          0.602              1.957              3.672
 Vibration     8          0.605              1.947              3.392
 Vibration     9          0.618              1.902              2.660
 Vibration    10          0.625              1.880              2.440
 Vibration    11          0.632              1.859              2.270
 Vibration    12          0.638              1.839              2.125
 Vibration    13          0.645              1.818              1.997
 Vibration    14          0.651              1.798              1.896
 Vibration    15          0.667              1.749              1.672
 Vibration    16          0.682              1.704              1.513
 Vibration    17          0.711              1.621              1.274
 Vibration    18          0.741              1.537              1.086
 Vibration    19          0.747              1.522              1.056
 Vibration    20          0.782              1.428              0.893
 Vibration    21          0.819              1.337              0.764
 Vibration    22          0.831              1.308              0.726
 Vibration    23          0.865              1.229              0.635
 Vibration    24          0.866              1.226              0.632
 Vibration    25          0.903              1.144              0.548
 Vibration    26          0.917              1.115              0.522
 Vibration    27          0.932              1.084              0.493
 Vibration    28          0.975              0.998              0.423

 Optimization completed.
    -- Stationary point found.
 Normal termination of Gaussian 16 at Fri Dec 11 19:06:18 2020.

 ----------------------------------------------------------------------
 # B3LYP/6-311++G(d,p) empiricaldispersion=gd3bj scf=xqc pop=npa geom=c
 heck
 ----------------------------------------------------------------------

 ---------------------------------------
 CID_149918415_JID_8055_Energie_neutraal
 ---------------------------------------
 Structure from the checkpoint file:  "JID_8055.chk"
 Charge =  0 Multiplicity = 1

 SCF Done:  E(RB3LYP) =  -888.505386665     A.U. after   18 cycles
 Normal termination of Gaussian 16 at Fri Dec 11 19:12:00 2020.

 ----------------------------------------------------------------------
 # B3LYP/6-311++G(d,p) empiricaldispersion=gd3bj scf=xqc pop=npa geom=c
 heck
 ----------------------------------------------------------------------

 -------------------------------------
 CID_149918415_JID_8055_Energie_kation
 -------------------------------------
 Structure from the checkpoint file:  "JID_8055.chk"
 Charge =  1 Multiplicity = 2

 SCF Done:  E(UB3LYP) =  -888.232039435     A.U. after   28 cycles
 Normal termination of Gaussian 16 at Fri Dec 11 19:24:35 2020.
 Gaussian 16:  ES64L-G16RevA.03 25-Dec-2016

 ----------------------------------------------------------------------
 # B3LYP/6-311++G(d,p) empiricaldispersion=gd3bj scf=xqc pop=npa geom=c
 heck
 ----------------------------------------------------------------------

 ------------------------------------
 CID_149918415_JID_8055_Energie_anion
 ------------------------------------
 Structure from the checkpoint file:  "JID_8055.chk"
 Charge = -1 Multiplicity = 2

                         Standard orientation:
 ---------------------------------------------------------------------
 Center     Atomic      Atomic             Coordinates (Angstroms)
 Number     Number       Type             X           Y           Z
 ---------------------------------------------------------------------
      1          6           0       -1.211815    3.528614   -0.494037
      2          6           0       -0.553443    3.008788    0.777427
      3          8           0        0.460018    2.035314    0.507097
      4          6           0        0.099061    0.762317    0.166757
      5          6           0        1.171408   -0.065584   -0.234077
      6          6           0        0.895271   -1.376371   -0.626573
      7          6           0       -0.400867   -1.887926   -0.572747
      8          6           0       -1.438153   -1.054297   -0.170788
      9          6           0       -1.206803    0.273479    0.187834
     10          8           0       -2.705455   -1.620854   -0.211653
     11          7           0       -3.626422   -0.918835    0.648933
     12          7           0       -4.705631   -0.818825    0.019411
     13          7           0       -5.758796   -0.688610   -0.400624
     14          7           0        2.454382    0.511616   -0.249103
     15          6           0        3.695408   -0.096878   -0.402758
     16          8           0        4.606260    0.459618   -1.003587
     17          7           0        3.845283   -1.342070    0.180200
     18          6           0        3.214414   -1.739197    1.438407
     19          1           0       -0.457167    3.955428   -1.161905
     20          1           0       -1.938066    4.310882   -0.246883
     21          1           0       -1.733917    2.732741   -1.032666
     22          1           0       -0.020317    3.812581    1.291410
     23          1           0       -1.288422    2.597289    1.480162
     24          1           0        1.710357   -2.003805   -0.967649
     25          1           0       -0.611831   -2.912096   -0.858371
     26          1           0       -2.038566    0.893522    0.488335
     27          1           0        2.478574    1.492517   -0.496344
     28          1           0        4.791948   -1.668436    0.038671
     29          1           0        2.382721   -2.434299    1.281636
     30          1           0        3.960712   -2.225898    2.072433
     31          1           0        2.828776   -0.863639    1.967935
 ---------------------------------------------------------------------

 SCF Done:  E(UB3LYP) =  -888.527373677     A.U. after   33 cycles
 SCF Done:  E(UB3LYP) =  -888.527373677     a.u. after    1 cycles

 The electronic state is 2-A.
 Alpha  occ. eigenvalues --  -19.06724 -19.02661 -18.99482 -14.25873 -14.24652
 Alpha  occ. eigenvalues --  -14.24619 -14.22106 -14.17900 -10.20726 -10.15073
 Alpha  occ. eigenvalues --  -10.13758 -10.11719 -10.11623 -10.11010 -10.09087
 Alpha  occ. eigenvalues --  -10.07371 -10.06335 -10.06037  -0.98368  -0.97863
 Alpha  occ. eigenvalues --   -0.96090  -0.91356  -0.84894  -0.82222  -0.77094
 Alpha  occ. eigenvalues --   -0.73552  -0.69288  -0.64526  -0.63225  -0.61623
 Alpha  occ. eigenvalues --   -0.56927  -0.54451  -0.50049  -0.49499  -0.45881
 Alpha  occ. eigenvalues --   -0.44253  -0.42444  -0.41072  -0.40214  -0.38790
 Alpha  occ. eigenvalues --   -0.37301  -0.37006  -0.36008  -0.35064  -0.33709
 Alpha  occ. eigenvalues --   -0.33048  -0.32726  -0.32550  -0.31833  -0.31364
 Alpha  occ. eigenvalues --   -0.30907  -0.30034  -0.29054  -0.27914  -0.27396
 Alpha  occ. eigenvalues --   -0.26595  -0.24573  -0.24379  -0.22681  -0.19735
 Alpha  occ. eigenvalues --   -0.18688  -0.16843  -0.16378  -0.14000  -0.10591
 Alpha  occ. eigenvalues --   -0.07002   0.04093
 Alpha virt. eigenvalues --    0.05253   0.06365   0.08234   0.08710   0.08950
 Alpha virt. eigenvalues --    0.09068   0.09310   0.10260   0.10650   0.11583
 Alpha virt. eigenvalues --    0.12344   0.12470   0.12639   0.13471   0.13692

  Beta  occ. eigenvalues --  -19.06724 -19.02239 -18.99477 -14.25357 -14.24654
  Beta  occ. eigenvalues --  -14.24613 -14.22072 -14.16937 -10.20723 -10.15073
  Beta  occ. eigenvalues --  -10.13753 -10.11699 -10.11606 -10.11007 -10.09087
  Beta  occ. eigenvalues --  -10.07349 -10.06327 -10.06030  -0.98362  -0.96887
  Beta  occ. eigenvalues --   -0.96082  -0.90254  -0.84885  -0.82209  -0.76491
  Beta  occ. eigenvalues --   -0.73287  -0.69255  -0.64497  -0.63111  -0.61568
  Beta  occ. eigenvalues --   -0.56874  -0.54342  -0.49843  -0.49472  -0.45753
  Beta  occ. eigenvalues --   -0.43801  -0.42399  -0.40904  -0.40120  -0.38779
  Beta  occ. eigenvalues --   -0.37272  -0.36913  -0.35821  -0.34144  -0.33649
  Beta  occ. eigenvalues --   -0.32976  -0.32451  -0.32354  -0.31729  -0.31100
  Beta  occ. eigenvalues --   -0.30709  -0.29703  -0.28806  -0.26887  -0.26233
  Beta  occ. eigenvalues --   -0.25773  -0.24193  -0.24046  -0.22472  -0.19271
  Beta  occ. eigenvalues --   -0.18342  -0.16680  -0.15434  -0.13922  -0.10420
  Beta  occ. eigenvalues --   -0.06634
  Beta virt. eigenvalues --    0.05895   0.06368   0.08204   0.08727   0.08934
  Beta virt. eigenvalues --    0.09038   0.09386   0.10276   0.10582   0.11531
  Beta virt. eigenvalues --    0.12278   0.12395   0.12569   0.13290   0.13487

 Mulliken charges and spin densities:
               1          2
     1  C   -0.406747   0.000493
     2  C   -0.163506  -0.011016
     3  O   -0.111191   0.001064
     4  C   -0.314430   0.030349
     5  C   -0.196369  -0.015641
     6  C    0.080487   0.005003
     7  C   -0.201100  -0.109677
     8  C   -0.704746  -0.153603
     9  C    0.666743   0.201871
    10  O    0.014823   0.033422
    11  N   -0.698555   0.111741
    12  N    0.276306   0.110994
    13  N   -0.201360   0.526840
    14  N   -0.246205   0.002183
    15  C    0.115018   0.012782
    16  O   -0.372426   0.003686
    17  N   -0.318443   0.003683
    18  C   -0.003006  -0.423695
    19  H    0.139721   0.000193
    20  H    0.119108  -0.000151
    21  H    0.162886  -0.000861
    22  H    0.172175   0.001853
    23  H    0.135876   0.011201
    24  H    0.223325  -0.010712
    25  H    0.145655   0.022948
    26  H    0.172900   0.017935
    27  H    0.338786  -0.002424
    28  H    0.221776   0.091463
    29  H    0.143667   0.030657
    30  H   -0.328085   0.471145
    31  H    0.136915   0.036272
 Sum of Mulliken charges =  -1.00000   1.00000

 Dipole moment (field-independent basis, Debye):
    X=              7.4869    Y=              4.5981    Z=              0.9925  Tot=              8.8420
 Quadrupole moment (field-independent basis, Debye-Ang):
   XX=           -231.1431   YY=           -112.7636   ZZ=           -120.9000
   XY=            -17.6272   XZ=              0.2433   YZ=              4.9909

 Summary of Natural Population Analysis:

                                       Natural Population
                Natural  -----------------------------------------------
    Atom  No    Charge         Core      Valence    Rydberg      Total
 -----------------------------------------------------------------------
      C    1   -0.30163      0.99966     2.29835    0.00362     3.30163
      C    2   -0.00993      0.99959     2.00082    0.00951     3.00993
      O    3   -0.28556      0.99986     3.27592    0.00978     4.28556
      C    4    0.15688      0.99937     1.83085    0.01290     2.84312
      C    5    0.03133      0.99944     1.95788    0.01135     2.96867
      C    6   -0.10727      0.99955     2.10008    0.00765     3.10727
      C    7   -0.13424      0.99952     2.12480    0.00993     3.13424
      C    8    0.17089      0.99938     1.81603    0.01370     2.82911
      C    9   -0.17280      0.99947     2.16520    0.00813     3.17280
      O   10   -0.17705      0.99986     3.16777    0.00942     4.17705
      N   11   -0.10855      0.99973     2.59199    0.01683     3.60855
      N   12    0.12697      0.99972     2.35656    0.01675     3.37303
      N   13    0.08329      0.99982     2.40336    0.01353     3.41671
      N   14   -0.32232      0.99964     2.81274    0.00994     3.82232
      C   15    0.40592      0.99971     1.57149    0.02289     2.59408
      O   16   -0.33873      0.99988     3.33347    0.00539     4.33873
      N   17   -0.33473      0.99968     2.82570    0.00934     3.83473
      C   18   -0.18505      0.99965     2.17693    0.00847     3.18505
      H   19    0.09861      0.00000     0.40041    0.00098     0.40139
      H   20    0.09940      0.00000     0.39982    0.00078     0.40060
      H   21    0.10890      0.00000     0.39022    0.00088     0.39110
      H   22    0.08760      0.00000     0.41138    0.00102     0.41240
      H   23    0.08713      0.00000     0.41108    0.00179     0.41287
      H   24    0.10588      0.00000     0.39305    0.00107     0.39412
      H   25    0.10602      0.00000     0.39275    0.00122     0.39398
      H   26    0.11772      0.00000     0.38047    0.00181     0.38228
      H   27    0.20290      0.00000     0.29557    0.00153     0.29710
      H   28    0.19274      0.00000     0.30496    0.00230     0.30726
      H   29    0.09826      0.00000     0.40054    0.00120     0.40174
      H   30    0.09614      0.00000     0.40272    0.00114     0.40386
      H   31    0.10128      0.00000     0.39769    0.00103     0.39872
 =======================================================================
   * Total *   -0.00000     17.99352    47.79061    0.21588    66.00000

 Normal termination of Gaussian 16 at Fri Dec 11 19:39:23 2020.
