 Gaussian 16, Revision A.03,

 -----------------------------------------------------------
 # opt freq B3LYP/6-31G(d) empiricaldispersion=gd3bj scf=xqc
 -----------------------------------------------------------

 -------------------------------
 CID_107756560_JID_4371_neutraal
 -------------------------------
 Symbolic Z-matrix:
 Charge =  0 Multiplicity = 1

 SCF Done:  E(RB3LYP) =  -937.773872586     A.U. after   14 cycles
 SCF Done:  E(RB3LYP) =  -937.777426448     A.U. after   13 cycles
 SCF Done:  E(RB3LYP) =  -937.776829790     A.U. after   13 cycles
 SCF Done:  E(RB3LYP) =  -937.776823438     A.U. after   13 cycles
 SCF Done:  E(RB3LYP) =  -937.773976380     A.U. after   13 cycles
 SCF Done:  E(RB3LYP) =  -937.777440789     A.U. after    9 cycles
 SCF Done:  E(RB3LYP) =  -937.778043326     A.U. after   12 cycles
 SCF Done:  E(RB3LYP) =  -937.777985897     A.U. after   13 cycles
 SCF Done:  E(RB3LYP) =  -937.778489050     A.U. after   11 cycles
 SCF Done:  E(RB3LYP) =  -937.778629910     A.U. after   11 cycles
 SCF Done:  E(RB3LYP) =  -937.778652428     A.U. after   10 cycles
 SCF Done:  E(RB3LYP) =  -937.778655003     A.U. after    9 cycles
 SCF Done:  E(RB3LYP) =  -937.778656005     A.U. after    8 cycles
 SCF Done:  E(RB3LYP) =  -937.778656126     A.U. after    7 cycles
 Optimization completed.
    -- Stationary point found.
 Normal termination of Gaussian 16 at Thu Dec 10 09:27:53 2020.

 --------------------------------------------------------------------
 #N Geom=AllCheck Guess=TCheck SCRF=Check GenChk RB3LYP/6-31G(d) Freq
 --------------------------------------------------------------------

 Structure from the checkpoint file:  "JID_4371.chk"
 -------------------------------
 CID_107756560_JID_4371_neutraal
 -------------------------------
 Charge =  0 Multiplicity = 1

 SCF Done:  E(RB3LYP) =  -937.778656126     A.U. after    1 cycles

  Exact polarizability: 172.869  -2.823 144.566 -15.210  -5.109 111.328
 Approx polarizability: 236.521  -5.350 236.504 -31.195 -16.214 181.200

                      1                      2                      3
                      A                      A                      A
 Frequencies --     33.7741                50.1689                66.3705
 Red. masses --      4.5939                 3.7486                 2.9965
 Frc consts  --      0.0031                 0.0056                 0.0078
 IR Inten    --      1.7240                 2.6503                 0.0622

                      4                      5                      6
                      A                      A                      A
 Frequencies --     87.6791               113.0485               163.3270
 Red. masses --      3.1909                 4.2708                 3.8312
 Frc consts  --      0.0145                 0.0322                 0.0602
 IR Inten    --      0.0684                 2.3833                 1.4822

                      7                      8                      9
                      A                      A                      A
 Frequencies --    205.8438               225.3171               226.8009
 Red. masses --      1.3663                 2.2880                 1.3940
 Frc consts  --      0.0341                 0.0684                 0.0422
 IR Inten    --      0.3193                 2.6452                 1.0470

                     10                     11                     12
                      A                      A                      A
 Frequencies --    234.8415               266.3440               274.6382
 Red. masses --      1.5480                 3.2197                 2.0483
 Frc consts  --      0.0503                 0.1346                 0.0910
 IR Inten    --      0.1476                 0.9985                 1.2945

                     13                     14                     15
                      A                      A                      A
 Frequencies --    313.4841               362.5512               368.8450
 Red. masses --      2.3972                 2.3459                 1.3461
 Frc consts  --      0.1388                 0.1817                 0.1079
 IR Inten    --      2.5758                 0.1850                 9.5386

                     16                     17                     18
                      A                      A                      A
 Frequencies --    369.3695               385.5873               417.1041
 Red. masses --      1.4501                 2.9847                 2.5641
 Frc consts  --      0.1166                 0.2615                 0.2628
 IR Inten    --      8.7306                 0.2278                 0.2056

                     19                     20                     21
                      A                      A                      A
 Frequencies --    430.0773               457.3721               492.5294
 Red. masses --      2.6313                 2.7799                 3.0107
 Frc consts  --      0.2868                 0.3426                 0.4303
 IR Inten    --      1.1350                28.1660                 1.9619

                     22                     23                     24
                      A                      A                      A
 Frequencies --    501.2586               535.9403               569.3368
 Red. masses --      1.4685                 5.9578                 3.8921
 Frc consts  --      0.2174                 1.0082                 0.7433
 IR Inten    --    303.0169                 8.8877                18.3640

                     25                     26                     27
                      A                      A                      A
 Frequencies --    638.2925               664.4938               718.3493
 Red. masses --      4.4174                 3.3215                 4.6397
 Frc consts  --      1.0604                 0.8641                 1.4106
 IR Inten    --      9.1577                 4.1298                 6.9753

                     28                     29                     30
                      A                      A                      A
 Frequencies --    772.5810               796.9972               814.3801
 Red. masses --      3.2441                 4.5563                 2.3869
 Frc consts  --      1.1409                 1.7052                 0.9327
 IR Inten    --      0.8803                 4.3099                 1.0955

                     31                     32                     33
                      A                      A                      A
 Frequencies --    829.9913               865.6393               908.5623
 Red. masses --      1.4466                 1.5656                 1.8724
 Frc consts  --      0.5872                 0.6912                 0.9107
 IR Inten    --     22.2000                16.1409                 1.6810

                     34                     35                     36
                      A                      A                      A
 Frequencies --    926.1981               951.0347               971.6411
 Red. masses --      2.1934                 1.2043                 1.3512
 Frc consts  --      1.1086                 0.6418                 0.7516
 IR Inten    --      2.5395                 0.3916                 0.3340

                     37                     38                     39
                      A                      A                      A
 Frequencies --    978.1825               985.0925               997.7326
 Red. masses --      1.4249                 2.8482                 1.3042
 Frc consts  --      0.8033                 1.6284                 0.7649
 IR Inten    --      0.8093                11.4101                 3.8164

                     40                     41                     42
                      A                      A                      A
 Frequencies --   1011.3892              1048.3832              1097.2046
 Red. masses --      7.5829                 1.9200                 1.6823
 Frc consts  --      4.5701                 1.2434                 1.1932
 IR Inten    --     12.1717                 9.0590                 4.2268

                     43                     44                     45
                      A                      A                      A
 Frequencies --   1106.2756              1139.7488              1152.6235
 Red. masses --      1.5543                 1.4059                 1.9764
 Frc consts  --      1.1208                 1.0760                 1.5470
 IR Inten    --      2.4261                 0.5871                 1.6903

                     46                     47                     48
                      A                      A                      A
 Frequencies --   1180.3200              1197.3807              1209.9203
 Red. masses --      1.3068                 1.6895                 1.9054
 Frc consts  --      1.0726                 1.4271                 1.6434
 IR Inten    --     19.5309                 1.6363                 5.6307

                     49                     50                     51
                      A                      A                      A
 Frequencies --   1217.4796              1269.3320              1298.2395
 Red. masses --      1.7309                 1.3023                 1.3001
 Frc consts  --      1.5116                 1.2363                 1.2910
 IR Inten    --      6.2340                10.7975                 5.3328

                     52                     53                     54
                      A                      A                      A
 Frequencies --   1327.6420              1335.1861              1357.8909
 Red. masses --      2.4647                 1.2662                 2.3154
 Frc consts  --      2.5596                 1.3300                 2.5154
 IR Inten    --     19.3643                 4.0801                 5.2639

                     55                     56                     57
                      A                      A                      A
 Frequencies --   1375.8075              1390.8637              1407.4039
 Red. masses --      2.5194                 1.3118                 1.3140
 Frc consts  --      2.8097                 1.4951                 1.5335
 IR Inten    --     28.7169                 1.3677                 1.0605

                     58                     59                     60
                      A                      A                      A
 Frequencies --   1428.2575              1438.4811              1449.2848
 Red. masses --      1.2572                 1.2216                 1.2210
 Frc consts  --      1.5110                 1.4893                 1.5110
 IR Inten    --      3.2582                 5.2330                 5.4168

                     61                     62                     63
                      A                      A                      A
 Frequencies --   1488.6886              1493.2685              1517.1145
 Red. masses --      3.3561                 1.1170                 1.0459
 Frc consts  --      4.3822                 1.4675                 1.4183
 IR Inten    --     18.5860                 6.0755                 1.0291

                     64                     65                     66
                      A                      A                      A
 Frequencies --   1519.5416              1526.9515              1531.1720
 Red. masses --      1.0509                 1.0606                 1.0543
 Frc consts  --      1.4297                 1.4570                 1.4564
 IR Inten    --      3.8502                12.6241                 1.9567

                     67                     68                     69
                      A                      A                      A
 Frequencies --   1536.5665              1538.3236              1548.1895
 Red. masses --      1.3505                 1.6197                 1.0486
 Frc consts  --      1.8786                 2.2583                 1.4808
 IR Inten    --      6.3690                28.0037                 2.5639

                     70                     71                     72
                      A                      A                      A
 Frequencies --   1623.0903              1661.8625              1694.3026
 Red. masses --      6.5229                 3.5446                 1.3233
 Frc consts  --     10.1246                 5.7677                 2.2381
 IR Inten    --     42.8300               155.0399               212.7275

                     73                     74                     75
                      A                      A                      A
 Frequencies --   3029.3301              3038.5224              3042.9149
 Red. masses --      1.0828                 1.0401                 1.0452
 Frc consts  --      5.8547                 5.6576                 5.7021
 IR Inten    --     12.0610                18.7197                39.8281

                     76                     77                     78
                      A                      A                      A
 Frequencies --   3063.2309              3064.8735              3078.2558
 Red. masses --      1.0541                 1.0634                 1.0630
 Frc consts  --      5.8279                 5.8856                 5.9347
 IR Inten    --     19.6311                16.9898                12.2320

                     79                     80                     81
                      A                      A                      A
 Frequencies --   3099.7830              3108.9596              3126.0694
 Red. masses --      1.1000                 1.0990                 1.0983
 Frc consts  --      6.2272                 6.2584                 6.3236
 IR Inten    --      0.8004                58.9735                35.1469

                     82                     83                     84
                      A                      A                      A
 Frequencies --   3134.0433              3138.4498              3143.2254
 Red. masses --      1.0992                 1.0987                 1.1020
 Frc consts  --      6.3610                 6.3764                 6.4145
 IR Inten    --     18.3397                27.4013                 5.9672

                     85                     86                     87
                      A                      A                      A
 Frequencies --   3155.8296              3168.6705              3190.7921
 Red. masses --      1.1023                 1.0881                 1.0907
 Frc consts  --      6.4679                 6.4370                 6.5429
 IR Inten    --     13.5316                24.5525                 7.3849

                     88                     89                     90
                      A                      A                      A
 Frequencies --   3196.5486              3572.6832              3676.0204
 Red. masses --      1.0942                 1.0472                 1.1001
 Frc consts  --      6.5876                 7.8750                 8.7590
 IR Inten    --     24.2415                29.3662                14.6190

 - Thermochemistry -
 -------------------
 Temperature   298.150 Kelvin.  Pressure   1.00000 Atm.
 Atom     1 has atomic number  6 and mass  12.00000

 Molecular mass:   210.11907 amu.
 Principal axes and moments of inertia in atomic units:
                           1         2         3
     Eigenvalues --  1754.461294755.851615221.83505
           X            0.99976   0.02124  -0.00609
           Y           -0.02094   0.99870   0.04657
           Z            0.00707  -0.04643   0.99890
 This molecule is an asymmetric top.
 Rotational symmetry number  1.
 Warning -- assumption of classical behavior for rotation
           may cause significant error
 Rotational temperatures (Kelvin)      0.04937     0.01821     0.01659
 Rotational constants (GHZ):           1.02866     0.37948     0.34561
 Zero-point vibrational energy     730422.9 (Joules/Mol)
                                  174.57525 (Kcal/Mol)
 Warning -- explicit consideration of  24 degrees of freedom as
           vibrations may cause significant error
 Vibrational temperatures:     48.59    72.18    95.49   126.15   162.65
          (Kelvin)            234.99   296.16   324.18   326.32   337.88
                              383.21   395.14   451.03   521.63   530.69
                              531.44   554.77   600.12   618.79   658.06
                              708.64   721.20   771.10   819.15   918.36
                              956.06  1033.54  1111.57  1146.70  1171.71
                             1194.17  1245.46  1307.22  1332.59  1368.33
                             1397.97  1407.39  1417.33  1435.51  1455.16
                             1508.39  1578.63  1591.68  1639.84  1658.37
                             1698.22  1722.76  1740.81  1751.68  1826.29
                             1867.88  1910.18  1921.04  1953.70  1979.48
                             2001.14  2024.94  2054.94  2069.65  2085.20
                             2141.89  2148.48  2182.79  2186.28  2196.94
                             2203.02  2210.78  2213.30  2227.50  2335.26
                             2391.05  2437.72  4358.53  4371.76  4378.08
                             4407.31  4409.67  4428.92  4459.90  4473.10
                             4497.72  4509.19  4515.53  4522.40  4540.53
                             4559.01  4590.84  4599.12  5140.29  5288.97

 Zero-point correction=                           0.278203 (Hartree/Particle)
 Thermal correction to Energy=                    0.293480
 Thermal correction to Enthalpy=                  0.294425
 Thermal correction to Gibbs Free Energy=         0.235806
 Sum of electronic and zero-point Energies=           -937.500453
 Sum of electronic and thermal Energies=              -937.485176
 Sum of electronic and thermal Enthalpies=            -937.484232
 Sum of electronic and thermal Free Energies=         -937.542850

                     E (Thermal)             CV                S
                      KCal/Mol        Cal/Mol-Kelvin    Cal/Mol-Kelvin
 Total                  184.162             58.449            123.373
 Electronic               0.000              0.000              0.000
 Translational            0.889              2.981             41.931
 Rotational               0.889              2.981             32.144
 Vibrational            182.384             52.487             49.298
 Vibration     1          0.594              1.983              5.594
 Vibration     2          0.595              1.978              4.811
 Vibration     3          0.598              1.970              4.258
 Vibration     4          0.601              1.958              3.711
 Vibration     5          0.607              1.939              3.216
 Vibration     6          0.623              1.887              2.511
 Vibration     7          0.640              1.832              2.080
 Vibration     8          0.650              1.802              1.916
 Vibration     9          0.650              1.800              1.904
 Vibration    10          0.655              1.788              1.842
 Vibration    11          0.672              1.735              1.620
 Vibration    12          0.677              1.720              1.567
 Vibration    13          0.701              1.648              1.344
 Vibration    14          0.736              1.549              1.111
 Vibration    15          0.741              1.536              1.085
 Vibration    16          0.742              1.535              1.082
 Vibration    17          0.754              1.501              1.017
 Vibration    18          0.780              1.433              0.902
 Vibration    19          0.791              1.405              0.858
 Vibration    20          0.815              1.345              0.774
 Vibration    21          0.848              1.267              0.677
 Vibration    22          0.857              1.247              0.655
 Vibration    23          0.891              1.171              0.574
 Vibration    24          0.925              1.098              0.506

 Optimization completed.
    -- Stationary point found.
 Normal termination of Gaussian 16 at Thu Dec 10 09:38:36 2020.

 ----------------------------------------------------------------------
 # B3LYP/6-311++G(d,p) empiricaldispersion=gd3bj scf=xqc pop=npa geom=c
 heck
 ----------------------------------------------------------------------

 ---------------------------------------
 CID_107756560_JID_4371_Energie_neutraal
 ---------------------------------------
 Structure from the checkpoint file:  "JID_4371.chk"
 Charge =  0 Multiplicity = 1

 SCF Done:  E(RB3LYP) =  -937.958135727     A.U. after   15 cycles
 Normal termination of Gaussian 16 at Thu Dec 10 09:44:02 2020.

 ----------------------------------------------------------------------
 # B3LYP/6-311++G(d,p) empiricaldispersion=gd3bj scf=xqc pop=npa geom=c
 heck
 ----------------------------------------------------------------------

 -------------------------------------
 CID_107756560_JID_4371_Energie_kation
 -------------------------------------
 Structure from the checkpoint file:  "JID_4371.chk"
 Charge =  1 Multiplicity = 2

 SCF Done:  E(UB3LYP) =  -937.672723225     A.U. after   24 cycles
 Normal termination of Gaussian 16 at Thu Dec 10 09:56:36 2020.
 Gaussian 16:  ES64L-G16RevA.03 25-Dec-2016

 ----------------------------------------------------------------------
 # B3LYP/6-311++G(d,p) empiricaldispersion=gd3bj scf=xqc pop=npa geom=c
 heck
 ----------------------------------------------------------------------

 ------------------------------------
 CID_107756560_JID_4371_Energie_anion
 ------------------------------------
 Structure from the checkpoint file:  "JID_4371.chk"
 Charge = -1 Multiplicity = 2

                         Standard orientation:
 ---------------------------------------------------------------------
 Center     Atomic      Atomic             Coordinates (Angstroms)
 Number     Number       Type             X           Y           Z
 ---------------------------------------------------------------------
      1          6           0        2.982086    1.939811    0.627861
      2          6           0        2.442187    0.684973   -0.079118
      3          6           0        3.557436    0.045061   -0.914500
      4          6           0        1.836373   -0.302620    0.943598
      5          6           0        0.792868    0.329872    1.873895
      6         16           0        1.196814   -1.870473    0.172068
      7          6           0        0.181640   -1.282594   -1.247054
      8          6           0       -0.966282   -0.378426   -0.876590
      9          7           0       -0.857927    0.900170   -1.276379
     10          6           0       -1.852103    1.729053   -0.925131
     11          6           0       -2.966275    1.352656   -0.189460
     12          6           0       -3.081810    0.011289    0.220538
     13          6           0       -2.047916   -0.862049   -0.142659
     14          7           0       -4.144478   -0.412799    0.996263
     15          1           0        3.727211    1.675203    1.389938
     16          1           0        2.189151    2.515396    1.113492
     17          1           0        3.471186    2.598990   -0.098094
     18          1           0        1.634990    1.007627   -0.748408
     19          1           0        4.384096   -0.283366   -0.270865
     20          1           0        3.206217   -0.829824   -1.467688
     21          1           0        3.960723    0.768380   -1.632168
     22          1           0        2.656780   -0.696733    1.559900
     23          1           0        0.013915    0.846666    1.307644
     24          1           0        0.314400   -0.434746    2.491154
     25          1           0        1.265660    1.058014    2.542095
     26          1           0        0.811380   -0.773453   -1.979169
     27          1           0       -0.181532   -2.212850   -1.696729
     28          1           0       -1.747410    2.761348   -1.254741
     29          1           0       -3.731121    2.080039    0.068168
     30          1           0       -2.067059   -1.902012    0.171618
     31          1           0       -4.322315   -1.407941    1.011541
     32          1           0       -4.987685    0.143080    0.951762
 ---------------------------------------------------------------------

 SCF Done:  E(UB3LYP) =  -937.948145595     A.U. after   33 cycles
 SCF Done:  E(UB3LYP) =  -937.948145595     a.u. after    1 cycles

 The electronic state is 2-A.
 Alpha  occ. eigenvalues --  -88.74188 -14.21472 -14.19818 -10.12538 -10.11421
 Alpha  occ. eigenvalues --  -10.11314 -10.10570 -10.10296 -10.08801 -10.07661
 Alpha  occ. eigenvalues --  -10.07279 -10.07030 -10.06845 -10.06656  -7.82808
 Alpha  occ. eigenvalues --   -5.79212  -5.78837  -5.78163  -0.84492  -0.81340
 Alpha  occ. eigenvalues --   -0.74288  -0.69939  -0.67366  -0.66113  -0.63200
 Alpha  occ. eigenvalues --   -0.60073  -0.56702  -0.53412  -0.52073  -0.49825
 Alpha  occ. eigenvalues --   -0.46166  -0.42740  -0.42042  -0.37707  -0.37079
 Alpha  occ. eigenvalues --   -0.36844  -0.35986  -0.34432  -0.33882  -0.33179
 Alpha  occ. eigenvalues --   -0.32157  -0.31317  -0.30543  -0.30011  -0.29700
 Alpha  occ. eigenvalues --   -0.28848  -0.26891  -0.26221  -0.25690  -0.24653
 Alpha  occ. eigenvalues --   -0.24398  -0.22613  -0.20514  -0.16238  -0.15756
 Alpha  occ. eigenvalues --   -0.13130  -0.12424   0.04398
 Alpha virt. eigenvalues --    0.05858   0.06872   0.07499   0.07656   0.08255
 Alpha virt. eigenvalues --    0.08321   0.08770   0.09427   0.09963   0.10512
 Alpha virt. eigenvalues --    0.10735   0.11220   0.12262   0.12509   0.12776

  Beta  occ. eigenvalues --  -88.74187 -14.21369 -14.19818 -10.12526 -10.11418
  Beta  occ. eigenvalues --  -10.11312 -10.10564 -10.10281 -10.08798 -10.07651
  Beta  occ. eigenvalues --  -10.07273 -10.07006 -10.06819 -10.06648  -7.82807
  Beta  occ. eigenvalues --   -5.79211  -5.78836  -5.78162  -0.84464  -0.81235
  Beta  occ. eigenvalues --   -0.74281  -0.69923  -0.67281  -0.66097  -0.63177
  Beta  occ. eigenvalues --   -0.60054  -0.56680  -0.53368  -0.52021  -0.49762
  Beta  occ. eigenvalues --   -0.46143  -0.42680  -0.41955  -0.37676  -0.37025
  Beta  occ. eigenvalues --   -0.36803  -0.35936  -0.34403  -0.33859  -0.33131
  Beta  occ. eigenvalues --   -0.32127  -0.31293  -0.30525  -0.29987  -0.29688
  Beta  occ. eigenvalues --   -0.28835  -0.26865  -0.26197  -0.25665  -0.24631
  Beta  occ. eigenvalues --   -0.24366  -0.22581  -0.20505  -0.16223  -0.15717
  Beta  occ. eigenvalues --   -0.13112  -0.12348
  Beta virt. eigenvalues --    0.05880   0.07013   0.07475   0.07575   0.08018
  Beta virt. eigenvalues --    0.08553   0.08729   0.09221   0.09823   0.09949
  Beta virt. eigenvalues --    0.10641   0.11234   0.11490   0.12205   0.12516

 Mulliken charges and spin densities:
               1          2
     1  C   -0.276969  -0.432080
     2  C   -0.306189   0.248591
     3  C   -0.533288  -0.080393
     4  C    0.510658   0.009360
     5  C   -0.661921  -0.143561
     6  S    0.110223  -0.190000
     7  C    0.777732  -1.277673
     8  C    0.732305  -0.788056
     9  N   -0.069098   0.061216
    10  C    0.229100  -0.463105
    11  C    0.289652  -0.121087
    12  C    1.217033  -1.981250
    13  C   -1.687432   1.877342
    14  N   -0.218677  -0.039927
    15  H    0.036649   0.098667
    16  H    0.084705   0.063598
    17  H    0.053394   0.079920
    18  H    0.327136  -0.112211
    19  H    0.077902   0.048475
    20  H    0.110861   0.008596
    21  H    0.046917   0.074012
    22  H    0.191451   0.054943
    23  H    0.081996   0.073297
    24  H    0.126999   0.008725
    25  H   -0.013601   0.145743
    26  H    0.201043   0.031110
    27  H    0.037031   0.216446
    28  H   -0.049578   0.217844
    29  H   -0.844270   1.041432
    30  H   -0.502323   0.660165
    31  H   -0.544847   0.808191
    32  H   -0.534596   0.801671
 Sum of Mulliken charges =  -1.00000   1.00000

 Dipole moment (field-independent basis, Debye):
    X=             12.5095    Y=              0.8677    Z=             -2.0678  Tot=             12.7089
 Quadrupole moment (field-independent basis, Debye-Ang):
   XX=           -202.1882   YY=           -133.7528   ZZ=           -123.1792
   XY=             -2.4996   XZ=             13.2374   YZ=              1.9742

 Summary of Natural Population Analysis:

                                       Natural Population
                Natural  -----------------------------------------------
    Atom  No    Charge         Core      Valence    Rydberg      Total
 -----------------------------------------------------------------------
      C    1   -0.28213      0.99965     2.27741    0.00507     3.28213
      C    2   -0.13480      0.99957     2.12468    0.01055     3.13480
      C    3   -0.28504      0.99965     2.28005    0.00534     3.28504
      C    4   -0.15936      0.99955     2.14569    0.01412     3.15936
      C    5   -0.29236      0.99963     2.28678    0.00595     3.29236
      S    6    0.08718      4.99962     2.89721    0.01599     7.91282
      C    7   -0.26320      0.99953     2.25194    0.01173     3.26320
      C    8    0.09748      0.99952     1.88708    0.01592     2.90252
      N    9   -0.27056      0.99968     2.75983    0.01105     3.77056
      C   10    0.03269      0.99958     1.95338    0.01435     2.96731
      C   11   -0.14416      0.99951     2.13443    0.01022     3.14416
      C   12    0.10700      0.99950     1.88067    0.01284     2.89300
      C   13   -0.13944      0.99945     2.12941    0.01058     3.13944
      N   14   -0.38375      0.99971     2.87363    0.01042     3.88375
      H   15    0.09355      0.00000     0.40555    0.00090     0.40645
      H   16    0.10249      0.00000     0.39664    0.00086     0.39751
      H   17    0.09830      0.00000     0.40088    0.00082     0.40170
      H   18    0.11273      0.00000     0.38488    0.00239     0.38727
      H   19    0.09378      0.00000     0.40519    0.00103     0.40622
      H   20    0.10561      0.00000     0.39344    0.00095     0.39439
      H   21    0.09593      0.00000     0.40328    0.00079     0.40407
      H   22    0.09900      0.00000     0.39989    0.00110     0.40100
      H   23    0.10801      0.00000     0.39060    0.00139     0.39199
      H   24    0.10577      0.00000     0.39311    0.00112     0.39423
      H   25    0.09670      0.00000     0.40239    0.00092     0.40330
      H   26    0.10917      0.00000     0.38925    0.00158     0.39083
      H   27    0.11280      0.00000     0.38629    0.00091     0.38720
      H   28    0.08842      0.00000     0.41052    0.00106     0.41158
      H   29    0.10785      0.00000     0.39050    0.00165     0.39215
      H   30    0.10773      0.00000     0.39067    0.00160     0.39227
      H   31    0.19523      0.00000     0.29100    0.01377     0.30477
      H   32    0.19739      0.00000     0.28151    0.02110     0.30261
 =======================================================================
   * Total *    0.00000     17.99415    38.79778    0.20807    57.00000

 Normal termination of Gaussian 16 at Thu Dec 10 10:14:07 2020.
