 Gaussian 16, Revision A.03,

 -----------------------------------------------------------
 # opt freq B3LYP/6-31G(d) empiricaldispersion=gd3bj scf=xqc
 -----------------------------------------------------------

 -------------------------------
 CID_106124851_JID_8729_neutraal
 -------------------------------
 Symbolic Z-matrix:
 Charge =  0 Multiplicity = 1

 SCF Done:  E(RB3LYP) =  -754.803043093     A.U. after   13 cycles
 SCF Done:  E(RB3LYP) =  -754.806766783     A.U. after   11 cycles
 SCF Done:  E(RB3LYP) =  -754.807425788     A.U. after   11 cycles
 SCF Done:  E(RB3LYP) =  -754.807952409     A.U. after   12 cycles
 SCF Done:  E(RB3LYP) =  -754.808449672     A.U. after   12 cycles
 SCF Done:  E(RB3LYP) =  -754.809647770     A.U. after   13 cycles
 SCF Done:  E(RB3LYP) =  -754.810027606     A.U. after   11 cycles
 SCF Done:  E(RB3LYP) =  -754.809963713     A.U. after   12 cycles
 SCF Done:  E(RB3LYP) =  -754.810668808     A.U. after   13 cycles
 SCF Done:  E(RB3LYP) =  -754.809467104     A.U. after   14 cycles
 SCF Done:  E(RB3LYP) =  -754.811010330     A.U. after   10 cycles
 SCF Done:  E(RB3LYP) =  -754.811013129     A.U. after    9 cycles
 SCF Done:  E(RB3LYP) =  -754.811013495     A.U. after    8 cycles
 SCF Done:  E(RB3LYP) =  -754.811013574     A.U. after    7 cycles
 SCF Done:  E(RB3LYP) =  -754.811013604     A.U. after    7 cycles
 Optimization completed.
    -- Stationary point found.
 Normal termination of Gaussian 16 at Fri Dec 11 21:18:36 2020.

 --------------------------------------------------------------------
 #N Geom=AllCheck Guess=TCheck SCRF=Check GenChk RB3LYP/6-31G(d) Freq
 --------------------------------------------------------------------

 Structure from the checkpoint file:  "JID_8729.chk"
 -------------------------------
 CID_106124851_JID_8729_neutraal
 -------------------------------
 Charge =  0 Multiplicity = 1

 SCF Done:  E(RB3LYP) =  -754.811013604     A.U. after    1 cycles

  Exact polarizability: 205.977 -13.413 156.450 -20.866 -13.931 154.801
 Approx polarizability: 258.232 -25.605 246.971 -32.428 -30.269 242.775

                      1                      2                      3
                      A                      A                      A
 Frequencies --     19.2692                25.1297                37.7890
 Red. masses --      3.8078                 3.9188                 4.3322
 Frc consts  --      0.0008                 0.0015                 0.0036
 IR Inten    --      0.0699                 0.0668                 0.3783

                      4                      5                      6
                      A                      A                      A
 Frequencies --     80.3291                88.4542               130.9344
 Red. masses --      3.3899                 4.4156                 3.6502
 Frc consts  --      0.0129                 0.0204                 0.0369
 IR Inten    --      0.2657                 0.8652                 0.3957

                      7                      8                      9
                      A                      A                      A
 Frequencies --    162.9604               180.6748               187.7295
 Red. masses --      2.1724                 1.3657                 2.4962
 Frc consts  --      0.0340                 0.0263                 0.0518
 IR Inten    --      0.8902                 0.5150                 3.2660

                     10                     11                     12
                      A                      A                      A
 Frequencies --    211.2539               233.9731               270.0985
 Red. masses --      2.9397                 2.7972                 2.8534
 Frc consts  --      0.0773                 0.0902                 0.1226
 IR Inten    --      0.6553                 1.8168                 1.8635

                     13                     14                     15
                      A                      A                      A
 Frequencies --    283.7993               306.6862               318.2002
 Red. masses --      1.2635                 1.9200                 1.4393
 Frc consts  --      0.0600                 0.1064                 0.0859
 IR Inten    --     49.6736                10.7934                 4.6195

                     16                     17                     18
                      A                      A                      A
 Frequencies --    332.5769               337.6006               360.7132
 Red. masses --      1.6660                 2.2965                 3.3140
 Frc consts  --      0.1086                 0.1542                 0.2541
 IR Inten    --      6.5010                 1.4538                35.6975

                     19                     20                     21
                      A                      A                      A
 Frequencies --    381.3131               407.7198               434.7789
 Red. masses --      2.2886                 2.5694                 2.4853
 Frc consts  --      0.1961                 0.2517                 0.2768
 IR Inten    --      1.1451                 1.2512                 6.7501

                     22                     23                     24
                      A                      A                      A
 Frequencies --    457.0547               464.7536               485.4823
 Red. masses --      2.4898                 2.8957                 2.6652
 Frc consts  --      0.3064                 0.3685                 0.3701
 IR Inten    --      3.9324                 2.7254                 2.5799

                     25                     26                     27
                      A                      A                      A
 Frequencies --    495.9332               507.0624               537.3464
 Red. masses --      3.2723                 2.6621                 3.3725
 Frc consts  --      0.4742                 0.4033                 0.5737
 IR Inten    --      1.8799                 5.3752                 1.5863

                     28                     29                     30
                      A                      A                      A
 Frequencies --    568.1542               629.8084               640.8385
 Red. masses --      4.1712                 3.0750                 2.3279
 Frc consts  --      0.7933                 0.7186                 0.5633
 IR Inten    --      1.5503                31.5029                14.3514

                     31                     32                     33
                      A                      A                      A
 Frequencies --    656.5895               741.0442               753.0742
 Red. masses --      2.0025                 2.8750                 1.7363
 Frc consts  --      0.5086                 0.9302                 0.5802
 IR Inten    --     56.9492                 7.4615                24.5440

                     34                     35                     36
                      A                      A                      A
 Frequencies --    782.9025               793.8406               800.7681
 Red. masses --      1.9391                 2.7890                 1.4796
 Frc consts  --      0.7003                 1.0355                 0.5590
 IR Inten    --     12.8953                 2.1184                 0.0896

                     37                     38                     39
                      A                      A                      A
 Frequencies --    820.4064               835.5016               882.8844
 Red. masses --      2.6578                 3.2753                 1.3425
 Frc consts  --      1.0540                 1.3471                 0.6166
 IR Inten    --      6.6677                 7.7682                 0.5514

                     40                     41                     42
                      A                      A                      A
 Frequencies --    890.1871               910.1867               942.0982
 Red. masses --      1.9463                 2.2590                 1.3597
 Frc consts  --      0.9087                 1.1026                 0.7110
 IR Inten    --      4.2312                 3.0627                 0.9245

                     43                     44                     45
                      A                      A                      A
 Frequencies --    956.1541               961.6755               968.6142
 Red. masses --      1.7790                 1.7287                 1.6355
 Frc consts  --      0.9583                 0.9419                 0.9041
 IR Inten    --      1.7184                 4.5118                 8.4447

                     46                     47                     48
                      A                      A                      A
 Frequencies --    981.1826               997.1646              1022.4616
 Red. masses --      1.2527                 2.5429                 1.5527
 Frc consts  --      0.7106                 1.4897                 0.9564
 IR Inten    --      0.0041                 3.8393                 3.8838

                     49                     50                     51
                      A                      A                      A
 Frequencies --   1045.0907              1057.8567              1068.4679
 Red. masses --      1.7760                 1.7781                 2.8634
 Frc consts  --      1.1429                 1.1724                 1.9260
 IR Inten    --      2.4311                 2.1447                13.4102

                     52                     53                     54
                      A                      A                      A
 Frequencies --   1079.2155              1092.6695              1096.3539
 Red. masses --      1.6257                 2.6037                 1.8937
 Frc consts  --      1.1156                 1.8316                 1.3411
 IR Inten    --      4.5001               148.1533                 9.0556

                     55                     56                     57
                      A                      A                      A
 Frequencies --   1101.1645              1105.4448              1114.1391
 Red. masses --      1.7221                 2.0881                 1.3806
 Frc consts  --      1.2303                 1.5034                 1.0097
 IR Inten    --     10.7058                 6.8772                 4.8791

                     58                     59                     60
                      A                      A                      A
 Frequencies --   1142.1826              1152.9101              1170.3083
 Red. masses --      2.1916                 1.9843                 2.9203
 Frc consts  --      1.6845                 1.5540                 2.3565
 IR Inten    --     18.8722                 0.5689                60.5037

                     61                     62                     63
                      A                      A                      A
 Frequencies --   1184.1181              1198.8514              1213.8240
 Red. masses --      1.8942                 1.1228                 1.7451
 Frc consts  --      1.5649                 0.9508                 1.5149
 IR Inten    --      5.4157                 0.8122                 1.9189

                     64                     65                     66
                      A                      A                      A
 Frequencies --   1220.8036              1229.4412              1257.3367
 Red. masses --      1.3979                 1.4379                 2.4822
 Frc consts  --      1.2275                 1.2805                 2.3120
 IR Inten    --      2.1449                 3.8115                 2.1563

                     67                     68                     69
                      A                      A                      A
 Frequencies --   1282.0872              1297.0687              1315.7239
 Red. masses --      1.4194                 1.2662                 1.3255
 Frc consts  --      1.3746                 1.2551                 1.3519
 IR Inten    --     20.9755                 2.7944                 6.7080

                     70                     71                     72
                      A                      A                      A
 Frequencies --   1328.6106              1342.1694              1347.8199
 Red. masses --      1.5455                 1.7225                 2.0723
 Frc consts  --      1.6074                 1.8282                 2.2181
 IR Inten    --      6.8229                 2.7582                 1.4537

                     73                     74                     75
                      A                      A                      A
 Frequencies --   1350.3855              1369.9418              1384.3110
 Red. masses --      1.4515                 1.5417                 1.4210
 Frc consts  --      1.5595                 1.7048                 1.6043
 IR Inten    --      1.3156                12.0194                 2.0964

                     76                     77                     78
                      A                      A                      A
 Frequencies --   1393.6526              1399.6785              1402.9133
 Red. masses --      1.4170                 1.4347                 1.4588
 Frc consts  --      1.6215                 1.6560                 1.6916
 IR Inten    --      7.6849                 9.4869                 4.6710

                     79                     80                     81
                      A                      A                      A
 Frequencies --   1405.5802              1412.2161              1429.1301
 Red. masses --      1.3048                 1.3855                 1.2489
 Frc consts  --      1.5188                 1.6280                 1.5029
 IR Inten    --      7.9199                 6.1930                 4.8335

                     82                     83                     84
                      A                      A                      A
 Frequencies --   1432.2496              1437.1109              1447.5931
 Red. masses --      1.2821                 1.2493                 1.2801
 Frc consts  --      1.5496                 1.5202                 1.5805
 IR Inten    --      8.1778                 2.9840                59.1387

                     85                     86                     87
                      A                      A                      A
 Frequencies --   1495.7965              1504.6125              1509.0865
 Red. masses --      1.9574                 1.1530                 1.0918
 Frc consts  --      2.5803                 1.5380                 1.4650
 IR Inten    --      2.5992                34.1395                 1.7525

                     88                     89                     90
                      A                      A                      A
 Frequencies --   1511.7949              1519.6045              1521.9468
 Red. masses --      1.0756                 1.1163                 1.0903
 Frc consts  --      1.4484                 1.5188                 1.4880
 IR Inten    --      4.2938                14.9956                 7.8959

                     91                     92                     93
                      A                      A                      A
 Frequencies --   1528.4682              1531.8213              1533.2381
 Red. masses --      1.0841                 1.2007                 1.1572
 Frc consts  --      1.4923                 1.6599                 1.6028
 IR Inten    --      7.5347                 1.2852                23.8069

                     94                     95                     96
                      A                      A                      A
 Frequencies --   1536.1378              1538.7640              1546.0556
 Red. masses --      1.1691                 1.1020                 1.6587
 Frc consts  --      1.6254                 1.5373                 2.3359
 IR Inten    --     13.4057                 0.6809                14.9149

                     97                     98                     99
                      A                      A                      A
 Frequencies --   1640.4703              1668.9564              3016.6476
 Red. masses --      5.5739                 5.6590                 1.0698
 Frc consts  --      8.8378                 9.2870                 5.7360
 IR Inten    --      0.4209                 1.7804                13.4477

                    100                    101                    102
                      A                      A                      A
 Frequencies --   3019.2278              3026.3668              3029.7304
 Red. masses --      1.0696                 1.0818                 1.0613
 Frc consts  --      5.7446                 5.8377                 5.7400
 IR Inten    --      3.4840                10.9563                26.2008

                    103                    104                    105
                      A                      A                      A
 Frequencies --   3032.8494              3037.5807              3039.8849
 Red. masses --      1.0632                 1.0620                 1.0449
 Frc consts  --      5.7617                 5.7733                 5.6893
 IR Inten    --     36.3931                21.4014                39.0262

                    106                    107                    108
                      A                      A                      A
 Frequencies --   3049.6370              3051.0171              3064.3970
 Red. masses --      1.0818                 1.0379                 1.0953
 Frc consts  --      5.9275                 5.6922                 6.0600
 IR Inten    --     35.5376                11.5290                 7.1264

                    109                    110                    111
                      A                      A                      A
 Frequencies --   3067.4292              3069.5561              3081.5850
 Red. masses --      1.0980                 1.0994                 1.0907
 Frc consts  --      6.0873                 6.1032                 6.1025
 IR Inten    --     47.3391                70.9143                98.6197

                    112                    113                    114
                      A                      A                      A
 Frequencies --   3088.1604              3093.5104              3101.7384
 Red. masses --      1.0950                 1.0973                 1.0913
 Frc consts  --      6.1529                 6.1873                 6.1861
 IR Inten    --     40.5995                57.1412                20.4806

                    115                    116                    117
                      A                      A                      A
 Frequencies --   3118.5105              3133.2983              3135.3362
 Red. masses --      1.1024                 1.1000                 1.1032
 Frc consts  --      6.3169                 6.3628                 6.3896
 IR Inten    --     35.4789                36.9566                12.6704

                    118                    119                    120
                      A                      A                      A
 Frequencies --   3174.9179              3186.6991              3201.2228
 Red. masses --      1.0862                 1.0885                 1.0931
 Frc consts  --      6.4508                 6.5125                 6.6002
 IR Inten    --      8.5440                13.5481                37.9687

                    121                    122                    123
                      A                      A                      A
 Frequencies --   3213.0044              3530.8621              3721.5806
 Red. masses --      1.0945                 1.0737                 1.0657
 Frc consts  --      6.6570                 7.8867                 8.6964
 IR Inten    --     20.3035                 0.0594                 5.7518

 - Thermochemistry -
 -------------------
 Temperature   298.150 Kelvin.  Pressure   1.00000 Atm.
 Atom     1 has atomic number  6 and mass  12.00000

 Molecular mass:   247.19361 amu.
 Principal axes and moments of inertia in atomic units:
                           1         2         3
     Eigenvalues --  2042.16794********************
           X            0.99999  -0.00442  -0.00026
           Y            0.00428   0.98136  -0.19215
           Z            0.00110   0.19215   0.98137
 This molecule is an asymmetric top.
 Rotational symmetry number  1.
 Warning -- assumption of classical behavior for rotation
           may cause significant error
 Rotational temperatures (Kelvin)      0.04241     0.00807     0.00799
 Rotational constants (GHZ):           0.88374     0.16821     0.16642
 Zero-point vibrational energy    1019547.8 (Joules/Mol)
                                  243.67777 (Kcal/Mol)
 Warning -- explicit consideration of  28 degrees of freedom as
           vibrations may cause significant error
 Vibrational temperatures:     27.72    36.16    54.37   115.58   127.27
          (Kelvin)            188.39   234.46   259.95   270.10   303.95
                              336.64   388.61   408.32   441.25   457.82
                              478.50   485.73   518.99   548.62   586.62
                              625.55   657.60   668.68   698.50   713.54
                              729.55   773.12   817.45   906.15   922.02
                              944.69  1066.20  1083.51  1126.42  1142.16
                             1152.13  1180.38  1202.10  1270.27  1280.78
                             1309.56  1355.47  1375.69  1383.64  1393.62
                             1411.70  1434.70  1471.09  1503.65  1522.02
                             1537.29  1552.75  1572.11  1577.41  1584.33
                             1590.49  1603.00  1643.35  1658.78  1683.81
                             1703.68  1724.88  1746.42  1756.46  1768.89
                             1809.03  1844.64  1866.19  1893.03  1911.57
                             1931.08  1939.21  1942.90  1971.04  1991.71
                             2005.16  2013.83  2018.48  2022.32  2031.86
                             2056.20  2060.69  2067.68  2082.76  2152.12
                             2164.80  2171.24  2175.14  2186.37  2189.74
                             2199.12  2203.95  2205.99  2210.16  2213.94
                             2224.43  2360.27  2401.26  4340.28  4344.00
                             4354.27  4359.11  4363.59  4370.40  4373.72
                             4387.75  4389.73  4408.98  4413.35  4416.41
                             4433.71  4443.17  4450.87  4462.71  4486.84
                             4508.12  4511.05  4568.00  4584.95  4605.85
                             4622.80  5080.12  5354.52

 Zero-point correction=                           0.388325 (Hartree/Particle)
 Thermal correction to Energy=                    0.406190
 Thermal correction to Enthalpy=                  0.407135
 Thermal correction to Gibbs Free Energy=         0.341513
 Sum of electronic and zero-point Energies=           -754.422688
 Sum of electronic and thermal Energies=              -754.404823
 Sum of electronic and thermal Enthalpies=            -754.403879
 Sum of electronic and thermal Free Energies=         -754.469500

                     E (Thermal)             CV                S
                      KCal/Mol        Cal/Mol-Kelvin    Cal/Mol-Kelvin
 Total                  254.888             70.957            138.111
 Electronic               0.000              0.000              0.000
 Translational            0.889              2.981             42.416
 Rotational               0.889              2.981             33.829
 Vibrational            253.111             64.995             61.867
 Vibration     1          0.593              1.986              6.708
 Vibration     2          0.593              1.985              6.181
 Vibration     3          0.594              1.982              5.372
 Vibration     4          0.600              1.963              3.883
 Vibration     5          0.601              1.957              3.694
 Vibration     6          0.612              1.922              2.932
 Vibration     7          0.623              1.888              2.515
 Vibration     8          0.630              1.866              2.321
 Vibration     9          0.632              1.857              2.250
 Vibration    10          0.643              1.824              2.033
 Vibration    11          0.654              1.789              1.848
 Vibration    12          0.674              1.728              1.596
 Vibration    13          0.682              1.704              1.511
 Vibration    14          0.697              1.661              1.380
 Vibration    15          0.705              1.639              1.319
 Vibration    16          0.715              1.610              1.248
 Vibration    17          0.718              1.600              1.223
 Vibration    18          0.735              1.553              1.119
 Vibration    19          0.751              1.510              1.034
 Vibration    20          0.772              1.453              0.935
 Vibration    21          0.795              1.394              0.843
 Vibration    22          0.815              1.345              0.775
 Vibration    23          0.822              1.328              0.752
 Vibration    24          0.842              1.282              0.695
 Vibration    25          0.851              1.259              0.668
 Vibration    26          0.862              1.234              0.641
 Vibration    27          0.892              1.167              0.571
 Vibration    28          0.924              1.100              0.508

                           ! Non-Optimized Parameters !
 Normal termination of Gaussian 16 at Fri Dec 11 21:37:46 2020.

 ----------------------------------------------------------------------
 # B3LYP/6-311++G(d,p) empiricaldispersion=gd3bj scf=xqc pop=npa geom=c
 heck
 ----------------------------------------------------------------------

 ---------------------------------------
 CID_106124851_JID_8729_Energie_neutraal
 ---------------------------------------
 Structure from the checkpoint file:  "JID_8729.chk"
 Charge =  0 Multiplicity = 1

 SCF Done:  E(RB3LYP) =  -755.025890732     A.U. after   14 cycles
 Normal termination of Gaussian 16 at Fri Dec 11 21:45:59 2020.

 ----------------------------------------------------------------------
 # B3LYP/6-311++G(d,p) empiricaldispersion=gd3bj scf=xqc pop=npa geom=c
 heck
 ----------------------------------------------------------------------

 -------------------------------------
 CID_106124851_JID_8729_Energie_kation
 -------------------------------------
 Structure from the checkpoint file:  "JID_8729.chk"
 Charge =  1 Multiplicity = 2

 SCF Done:  E(UB3LYP) =  -754.738802639     A.U. after   26 cycles
 Normal termination of Gaussian 16 at Fri Dec 11 22:06:07 2020.
 Gaussian 16:  ES64L-G16RevA.03 25-Dec-2016

 ----------------------------------------------------------------------
 # B3LYP/6-311++G(d,p) empiricaldispersion=gd3bj scf=xqc pop=npa geom=c
 heck
 ----------------------------------------------------------------------

 ------------------------------------
 CID_106124851_JID_8729_Energie_anion
 ------------------------------------
 Structure from the checkpoint file:  "JID_8729.chk"
 Charge = -1 Multiplicity = 2

                         Standard orientation:
 ---------------------------------------------------------------------
 Center     Atomic      Atomic             Coordinates (Angstroms)
 Number     Number       Type             X           Y           Z
 ---------------------------------------------------------------------
      1          6           0        2.744337   -1.651737    1.773564
      2          6           0        3.294499   -0.887694    0.594457
      3          6           0        4.446515   -1.343547   -0.052525
      4          6           0        4.981864   -0.672034   -1.152405
      5          6           0        4.358781    0.480449   -1.620821
      6          6           0        3.209942    0.949847   -0.981137
      7          6           0        2.666595    0.286594    0.122665
      8          6           0        1.382650    0.777461    0.784189
      9          6           0        1.116855    2.279152    0.574822
     10          7           0        0.307488   -0.131896    0.366689
     11          6           0       -1.008904   -0.005806    0.981219
     12          6           0       -2.009841    1.009430    0.376096
     13          6           0       -3.355167    0.967314    1.130843
     14          6           0       -4.182961   -0.291973    0.824186
     15          6           0       -4.396029   -0.478045   -0.681124
     16          6           0       -3.058056   -0.480911   -1.426866
     17          6           0       -2.253762    0.793201   -1.129615
     18          8           0       -5.173460   -1.638027   -0.970261
     19          1           0        3.306054   -2.576439    1.935929
     20          1           0        2.802251   -1.063665    2.699300
     21          1           0        1.690294   -1.897661    1.611798
     22          1           0        4.931473   -2.245146    0.314228
     23          1           0        5.878202   -1.049874   -1.636639
     24          1           0        4.759977    1.015917   -2.476846
     25          1           0        2.736065    1.852990   -1.351711
     26          1           0        1.490789    0.627706    1.867121
     27          1           0        0.831429    2.501862   -0.459291
     28          1           0        0.302963    2.614650    1.223295
     29          1           0        2.005748    2.870647    0.821513
     30          1           0        0.257500   -0.178641   -0.646778
     31          1           0       -1.469294   -1.002185    0.976019
     32          1           0       -0.852776    0.245037    2.038539
     33          1           0       -1.589624    2.013046    0.501387
     34          1           0       -3.943798    1.850232    0.845820
     35          1           0       -3.182876    1.048051    2.212043
     36          1           0       -5.157173   -0.243028    1.323582
     37          1           0       -3.675043   -1.185322    1.216698
     38          1           0       -5.002591    0.356701   -1.056479
     39          1           0       -2.486063   -1.370057   -1.120733
     40          1           0       -3.243421   -0.581430   -2.502123
     41          1           0       -2.807747    1.658301   -1.519440
     42          1           0       -1.302134    0.779439   -1.675767
     43          1           0       -4.668850   -2.403860   -0.651500
 ---------------------------------------------------------------------

 SCF Done:  E(UB3LYP) =  -755.013245128     A.U. after   33 cycles
 SCF Done:  E(UB3LYP) =  -755.013245128     a.u. after    1 cycles

 The electronic state is 2-A.
 Alpha  occ. eigenvalues --  -19.03687 -14.20257 -10.13051 -10.11406 -10.09801
 Alpha  occ. eigenvalues --  -10.09371 -10.08908 -10.08562 -10.08388 -10.08307
 Alpha  occ. eigenvalues --  -10.08256 -10.07822 -10.07753 -10.07710 -10.07688
 Alpha  occ. eigenvalues --  -10.07642 -10.07314 -10.06606  -0.93858  -0.81886
 Alpha  occ. eigenvalues --   -0.76944  -0.74183  -0.68905  -0.68000  -0.65778
 Alpha  occ. eigenvalues --   -0.65176  -0.63155  -0.59514  -0.57717  -0.54008
 Alpha  occ. eigenvalues --   -0.52707  -0.51859  -0.49869  -0.48429  -0.46153
 Alpha  occ. eigenvalues --   -0.42560  -0.41502  -0.39725  -0.38535  -0.37316
 Alpha  occ. eigenvalues --   -0.36940  -0.36010  -0.35064  -0.34869  -0.34207
 Alpha  occ. eigenvalues --   -0.33001  -0.32536  -0.31926  -0.31371  -0.30556
 Alpha  occ. eigenvalues --   -0.29892  -0.29422  -0.29203  -0.28979  -0.28372
 Alpha  occ. eigenvalues --   -0.26952  -0.26518  -0.25900  -0.24983  -0.24846
 Alpha  occ. eigenvalues --   -0.23767  -0.22965  -0.22680  -0.21812  -0.18344
 Alpha  occ. eigenvalues --   -0.16437  -0.15506  -0.12748   0.03994
 Alpha virt. eigenvalues --    0.05638   0.05940   0.06424   0.07092   0.07218
 Alpha virt. eigenvalues --    0.07371   0.07622   0.08376   0.08648   0.08904
 Alpha virt. eigenvalues --    0.09466   0.09780   0.10161   0.10720   0.11056

  Beta  occ. eigenvalues --  -19.03676 -14.20250 -10.13045 -10.11397 -10.09785
  Beta  occ. eigenvalues --  -10.09371 -10.08908 -10.08555 -10.08379 -10.08299
  Beta  occ. eigenvalues --  -10.08245 -10.07815 -10.07740 -10.07694 -10.07674
  Beta  occ. eigenvalues --  -10.07622 -10.07300 -10.06577  -0.93836  -0.81869
  Beta  occ. eigenvalues --   -0.76931  -0.74156  -0.68886  -0.67981  -0.65747
  Beta  occ. eigenvalues --   -0.65149  -0.63124  -0.59486  -0.57676  -0.53972
  Beta  occ. eigenvalues --   -0.52660  -0.51819  -0.49840  -0.48399  -0.46114
  Beta  occ. eigenvalues --   -0.42530  -0.41463  -0.39691  -0.38513  -0.37291
  Beta  occ. eigenvalues --   -0.36913  -0.35976  -0.35039  -0.34836  -0.34182
  Beta  occ. eigenvalues --   -0.32976  -0.32516  -0.31902  -0.31342  -0.30527
  Beta  occ. eigenvalues --   -0.29872  -0.29386  -0.29175  -0.28956  -0.28343
  Beta  occ. eigenvalues --   -0.26928  -0.26497  -0.25864  -0.24959  -0.24824
  Beta  occ. eigenvalues --   -0.23739  -0.22938  -0.22653  -0.21785  -0.18326
  Beta  occ. eigenvalues --   -0.16428  -0.15498  -0.12732
  Beta virt. eigenvalues --    0.05803   0.06245   0.06537   0.06872   0.07300
  Beta virt. eigenvalues --    0.07500   0.07586   0.07824   0.08738   0.09000
  Beta virt. eigenvalues --    0.09138   0.09811   0.10174   0.10375   0.10887

 Mulliken charges and spin densities:
               1          2
     1  C    0.660816  -1.257641
     2  C   -0.662364   1.294371
     3  C   -0.295524  -0.207657
     4  C    0.588937  -0.900687
     5  C    0.813241  -1.288965
     6  C   -0.466651   0.092816
     7  C   -0.945266   2.123206
     8  C   -0.234589  -0.675766
     9  C    0.626615  -1.239840
    10  N    0.201037   0.010287
    11  C    0.861305  -1.770399
    12  C   -0.553268   1.312430
    13  C   -0.013942  -0.472851
    14  C   -0.199133   0.032364
    15  C    0.189649  -0.906426
    16  C   -0.214295   0.065997
    17  C    0.432593  -0.909889
    18  O   -0.238838   0.042304
    19  H   -0.046723   0.193571
    20  H   -0.008484   0.162684
    21  H   -0.000932   0.189546
    22  H   -0.120453   0.249091
    23  H   -0.177895   0.329165
    24  H   -0.377363   0.550778
    25  H   -0.036875   0.173798
    26  H   -0.075306   0.194077
    27  H   -0.110075   0.278007
    28  H   -0.414382   0.570604
    29  H    0.024093   0.120646
    30  H    0.330616  -0.198864
    31  H    0.359162  -0.169183
    32  H    0.141851   0.034122
    33  H    0.159085   0.043766
    34  H   -0.249675   0.414834
    35  H   -0.363468   0.520270
    36  H   -0.065816   0.251240
    37  H   -0.189885   0.327805
    38  H    0.160638   0.027094
    39  H   -0.174298   0.348438
    40  H    0.015350   0.165327
    41  H   -0.320711   0.481821
    42  H   -0.206748   0.353882
    43  H    0.197972   0.043826
 Sum of Mulliken charges =  -1.00000   1.00000

 Dipole moment (field-independent basis, Debye):
    X=              0.9220    Y=             -2.2245    Z=              0.2706  Tot=              2.4231
 Quadrupole moment (field-independent basis, Debye-Ang):
   XX=           -219.3688   YY=           -156.4737   ZZ=           -158.5873
   XY=              1.3129   XZ=              5.2939   YZ=             -1.5992

 Summary of Natural Population Analysis:

                                       Natural Population
                Natural  -----------------------------------------------
    Atom  No    Charge         Core      Valence    Rydberg      Total
 -----------------------------------------------------------------------
      C    1   -0.29840      0.99963     2.29409    0.00468     3.29840
      C    2   -0.00474      0.99947     1.99640    0.00886     3.00474
      C    3   -0.10184      0.99951     2.09306    0.00926     3.10184
      C    4   -0.10187      0.99956     2.09252    0.00979     3.10187
      C    5   -0.10413      0.99956     2.09431    0.01025     3.10413
      C    6   -0.10131      0.99951     2.09210    0.00970     3.10131
      C    7   -0.01381      0.99945     2.00313    0.01123     3.01381
      C    8   -0.01405      0.99956     2.00231    0.01218     3.01405
      C    9   -0.29648      0.99965     2.29011    0.00672     3.29648
      N   10   -0.34329      0.99974     2.83266    0.01089     3.84329
      C   11   -0.08655      0.99959     2.07483    0.01213     3.08655
      C   12   -0.11939      0.99958     2.10924    0.01056     3.11939
      C   13   -0.18955      0.99961     2.17987    0.01007     3.18955
      C   14   -0.20350      0.99961     2.19329    0.01060     3.20350
      C   15    0.06577      0.99953     1.92266    0.01204     2.93423
      C   16   -0.20186      0.99961     2.19417    0.00809     3.20186
      C   17   -0.19195      0.99961     2.18244    0.00990     3.19195
      O   18   -0.36956      0.99990     3.36316    0.00650     4.36956
      H   19    0.09918      0.00000     0.39989    0.00093     0.40082
      H   20    0.10252      0.00000     0.39623    0.00125     0.39748
      H   21    0.11657      0.00000     0.38194    0.00149     0.38343
      H   22    0.09770      0.00000     0.40129    0.00101     0.40230
      H   23    0.09946      0.00000     0.39962    0.00092     0.40054
      H   24    0.10047      0.00000     0.39853    0.00101     0.39953
      H   25    0.10385      0.00000     0.39485    0.00130     0.39615
      H   26    0.09440      0.00000     0.40336    0.00224     0.40560
      H   27    0.09810      0.00000     0.40039    0.00151     0.40190
      H   28    0.10292      0.00000     0.39573    0.00134     0.39708
      H   29    0.10208      0.00000     0.39690    0.00102     0.39792
      H   30    0.17452      0.00000     0.32255    0.00293     0.32548
      H   31    0.08999      0.00000     0.40850    0.00152     0.41001
      H   32    0.09580      0.00000     0.40266    0.00154     0.40420
      H   33    0.10183      0.00000     0.39600    0.00217     0.39817
      H   34    0.09853      0.00000     0.40015    0.00132     0.40147
      H   35    0.10229      0.00000     0.39645    0.00126     0.39771
      H   36    0.10333      0.00000     0.39564    0.00104     0.39667
      H   37    0.09196      0.00000     0.40653    0.00151     0.40804
      H   38    0.08325      0.00000     0.41509    0.00167     0.41675
      H   39    0.09232      0.00000     0.40617    0.00151     0.40768
      H   40    0.10344      0.00000     0.39545    0.00111     0.39656
      H   41    0.09952      0.00000     0.39914    0.00135     0.40048
      H   42    0.09888      0.00000     0.39970    0.00141     0.40112
      H   43    0.22359      0.00000     0.27364    0.00276     0.27641
 =======================================================================
   * Total *   -0.00000     17.99269    49.79676    0.21056    68.00000

 Normal termination of Gaussian 16 at Fri Dec 11 22:32:07 2020.
