 Gaussian 16, Revision A.03,

 -----------------------------------------------------------
 # opt freq B3LYP/6-31G(d) empiricaldispersion=gd3bj scf=xqc
 -----------------------------------------------------------

 ------------------------------
 CID_15437504_JID_1217_neutraal
 ------------------------------
 Symbolic Z-matrix:
 Charge =  0 Multiplicity = 1

 SCF Done:  E(RB3LYP) =  -494.267470568     A.U. after   15 cycles
 SCF Done:  E(RB3LYP) =  -494.289579022     A.U. after   15 cycles
 SCF Done:  E(RB3LYP) =  -494.296010037     A.U. after   16 cycles
 SCF Done:  E(RB3LYP) =  -494.295413894     A.U. after   14 cycles
 SCF Done:  E(RB3LYP) =  -494.296675728     A.U. after   15 cycles
 SCF Done:  E(RB3LYP) =  -494.299913286     A.U. after   15 cycles
 SCF Done:  E(RB3LYP) =  -494.299866774     A.U. after   16 cycles
 SCF Done:  E(RB3LYP) =  -494.300750146     A.U. after   14 cycles
 SCF Done:  E(RB3LYP) =  -494.301457112     A.U. after   13 cycles
 SCF Done:  E(RB3LYP) =  -494.301643451     A.U. after   12 cycles
 SCF Done:  E(RB3LYP) =  -494.303022601     A.U. after   11 cycles
 SCF Done:  E(RB3LYP) =  -494.303033557     A.U. after   10 cycles
 SCF Done:  E(RB3LYP) =  -494.303034609     A.U. after    9 cycles
 SCF Done:  E(RB3LYP) =  -494.303034813     A.U. after    8 cycles
 SCF Done:  E(RB3LYP) =  -494.303034851     A.U. after    7 cycles
 Optimization completed.
    -- Stationary point found.
 Normal termination of Gaussian 16 at Tue Dec  8 19:30:08 2020.

 --------------------------------------------------------------------
 #N Geom=AllCheck Guess=TCheck SCRF=Check GenChk RB3LYP/6-31G(d) Freq
 --------------------------------------------------------------------

 Structure from the checkpoint file:  "JID_1217.chk"
 ------------------------------
 CID_15437504_JID_1217_neutraal
 ------------------------------
 Charge =  0 Multiplicity = 1

 SCF Done:  E(RB3LYP) =  -494.303034851     A.U. after    1 cycles

  Exact polarizability: 122.404 -18.517  82.908 -11.241   5.447  67.463
 Approx polarizability: 165.251 -37.986 135.582 -23.210  16.685 104.476

                      1                      2                      3
                      A                      A                      A
 Frequencies --     29.1345                38.7182                80.4371
 Red. masses --      5.6329                 5.9069                 4.4894
 Frc consts  --      0.0028                 0.0052                 0.0171
 IR Inten    --      0.6015                 1.3590                 3.0150

                      4                      5                      6
                      A                      A                      A
 Frequencies --    120.1549               137.7251               163.4322
 Red. masses --      6.0571                 5.4637                 4.2277
 Frc consts  --      0.0515                 0.0611                 0.0665
 IR Inten    --      2.7013                 7.6666                 3.9555

                      7                      8                      9
                      A                      A                      A
 Frequencies --    202.0240               211.8674               290.0816
 Red. masses --      3.3644                 5.7620                 2.2647
 Frc consts  --      0.0809                 0.1524                 0.1123
 IR Inten    --      8.3599                 8.7576                 0.4192

                     10                     11                     12
                      A                      A                      A
 Frequencies --    301.7726               325.4872               378.5245
 Red. masses --      2.3829                 4.3819                 8.0505
 Frc consts  --      0.1279                 0.2735                 0.6796
 IR Inten    --      8.8447                 2.0181                 0.4409

                     13                     14                     15
                      A                      A                      A
 Frequencies --    446.6658               540.2982               569.8223
 Red. masses --      4.7756                 5.4261                 4.2945
 Frc consts  --      0.5614                 0.9333                 0.8216
 IR Inten    --      2.0681                 5.5898                 2.6573

                     16                     17                     18
                      A                      A                      A
 Frequencies --    583.9968               630.0140               730.2982
 Red. masses --     10.9906                 1.5610                 4.5646
 Frc consts  --      2.2085                 0.3650                 1.4344
 IR Inten    --      0.1754                 0.6616                 6.9387

                     19                     20                     21
                      A                      A                      A
 Frequencies --    772.2383               876.4621               888.7522
 Red. masses --      2.3793                 3.3620                 1.1676
 Frc consts  --      0.8360                 1.5217                 0.5434
 IR Inten    --      0.1443                 8.2364                14.7914

                     22                     23                     24
                      A                      A                      A
 Frequencies --    926.4903               963.6040              1009.0841
 Red. masses --      1.3150                 2.2597                 3.0107
 Frc consts  --      0.6651                 1.2362                 1.8062
 IR Inten    --     37.6908                 3.5727                 3.4848

                     25                     26                     27
                      A                      A                      A
 Frequencies --   1026.0007              1047.8393              1081.0122
 Red. masses --      3.3515                 1.4152                 3.0120
 Frc consts  --      2.0787                 0.9155                 2.0738
 IR Inten    --     23.0168                 1.0209                 1.2681

                     28                     29                     30
                      A                      A                      A
 Frequencies --   1093.0213              1133.8696              1226.5378
 Red. masses --      3.1535                 1.9503                 1.3001
 Frc consts  --      2.2197                 1.4773                 1.1524
 IR Inten    --     88.8926                 4.0535                12.5059

                     31                     32                     33
                      A                      A                      A
 Frequencies --   1254.5804              1269.3533              1319.5957
 Red. masses --      2.9274                 1.1511                 1.1866
 Frc consts  --      2.7147                 1.0928                 1.2174
 IR Inten    --    289.8255                 6.0630                 2.6329

                     34                     35                     36
                      A                      A                      A
 Frequencies --   1357.5349              1390.2199              1408.4877
 Red. masses --      1.3346                 1.3738                 1.3700
 Frc consts  --      1.4491                 1.5643                 1.6013
 IR Inten    --      9.8143                25.1841                32.7491

                     37                     38                     39
                      A                      A                      A
 Frequencies --   1437.0063              1505.8513              1520.8440
 Red. masses --      1.4106                 1.0896                 1.4638
 Frc consts  --      1.7162                 1.4557                 1.9948
 IR Inten    --     13.0561                 5.9637                35.9248

                     40                     41                     42
                      A                      A                      A
 Frequencies --   1542.7677              2076.7315              2377.5869
 Red. masses --      1.0812                10.0200                12.6553
 Frc consts  --      1.5162                25.4613                42.1499
 IR Inten    --     12.5462                38.4883                 1.8419

                     43                     44                     45
                      A                      A                      A
 Frequencies --   2382.4178              3040.6337              3071.3361
 Red. masses --     12.6530                 1.0562                 1.0810
 Frc consts  --     42.3134                 5.7536                 6.0082
 IR Inten    --      2.7337                11.9113                 4.4037

                     46                     47                     48
                      A                      A                      A
 Frequencies --   3077.8676              3093.2169              3124.9328
 Red. masses --      1.1003                 1.0683                 1.0574
 Frc consts  --      6.1415                 6.0222                 6.0839
 IR Inten    --     12.4253                18.9387                16.5771

                     49                     50                     51
                      A                      A                      A
 Frequencies --   3140.9891              3190.6059              3211.3176
 Red. masses --      1.1065                 1.1156                 1.0904
 Frc consts  --      6.4320                 6.6915                 6.6254
 IR Inten    --      7.0902                 7.1877                 7.0906

 - Thermochemistry -
 -------------------
 Temperature   298.150 Kelvin.  Pressure   1.00000 Atm.
 Atom     1 has atomic number  6 and mass  12.00000

 Molecular mass:   148.06366 amu.
 Principal axes and moments of inertia in atomic units:
                           1         2         3
     Eigenvalues --   768.172943517.819133929.01695
           X            0.99996  -0.00834  -0.00421
           Y            0.00835   0.99997   0.00024
           Z            0.00421  -0.00027   0.99999
 This molecule is an asymmetric top.
 Rotational symmetry number  1.
 Warning -- assumption of classical behavior for rotation
           may cause significant error
 Rotational temperatures (Kelvin)      0.11275     0.02462     0.02204
 Rotational constants (GHZ):           2.34939     0.51303     0.45934
 Zero-point vibrational energy     380527.6 (Joules/Mol)
                                   90.94827 (Kcal/Mol)
 Warning -- explicit consideration of  16 degrees of freedom as
           vibrations may cause significant error
 Vibrational temperatures:     41.92    55.71   115.73   172.88   198.16
          (Kelvin)            235.14   290.67   304.83   417.36   434.18
                              468.30   544.61   642.65   777.37   819.85
                              840.24   906.45  1050.74  1111.08  1261.03
                             1278.72  1333.01  1386.41  1451.85  1476.19
                             1507.61  1555.34  1572.61  1631.39  1764.71
                             1805.06  1826.32  1898.60  1953.19  2000.22
                             2026.50  2067.53  2166.58  2188.16  2219.70
                             2987.95  3420.82  3427.77  4374.79  4418.97
                             4428.36  4450.45  4496.08  4519.18  4590.57
                             4620.37

 Zero-point correction=                           0.144935 (Hartree/Particle)
 Thermal correction to Energy=                    0.156548
 Thermal correction to Enthalpy=                  0.157493
 Thermal correction to Gibbs Free Energy=         0.105716
 Sum of electronic and zero-point Energies=           -494.158100
 Sum of electronic and thermal Energies=              -494.146486
 Sum of electronic and thermal Enthalpies=            -494.145542
 Sum of electronic and thermal Free Energies=         -494.197319

                     E (Thermal)             CV                S
                      KCal/Mol        Cal/Mol-Kelvin    Cal/Mol-Kelvin
 Total                   98.236             40.043            108.974
 Electronic               0.000              0.000              0.000
 Translational            0.889              2.981             40.888
 Rotational               0.889              2.981             30.741
 Vibrational             96.458             34.081             37.345
 Vibration     1          0.593              1.984              5.887
 Vibration     2          0.594              1.981              5.324
 Vibration     3          0.600              1.962              3.880
 Vibration     4          0.609              1.932              3.098
 Vibration     5          0.614              1.916              2.835
 Vibration     6          0.623              1.887              2.510
 Vibration     7          0.639              1.837              2.115
 Vibration     8          0.643              1.823              2.028
 Vibration     9          0.686              1.692              1.473
 Vibration    10          0.694              1.670              1.407
 Vibration    11          0.710              1.625              1.282
 Vibration    12          0.749              1.516              1.045
 Vibration    13          0.806              1.368              0.806
 Vibration    14          0.895              1.161              0.565
 Vibration    15          0.926              1.097              0.505
 Vibration    16          0.941              1.066              0.478

 Optimization completed.
    -- Stationary point found.
 Normal termination of Gaussian 16 at Tue Dec  8 19:33:19 2020.

 ----------------------------------------------------------------------
 # B3LYP/6-311++G(d,p) empiricaldispersion=gd3bj scf=xqc pop=npa geom=c
 heck
 ----------------------------------------------------------------------

 --------------------------------------
 CID_15437504_JID_1217_Energie_neutraal
 --------------------------------------
 Structure from the checkpoint file:  "JID_1217.chk"
 Charge =  0 Multiplicity = 1

 SCF Done:  E(RB3LYP) =  -494.444979719     A.U. after   15 cycles
 Normal termination of Gaussian 16 at Tue Dec  8 19:34:33 2020.

 ----------------------------------------------------------------------
 # B3LYP/6-311++G(d,p) empiricaldispersion=gd3bj scf=xqc pop=npa geom=c
 heck
 ----------------------------------------------------------------------

 ------------------------------------
 CID_15437504_JID_1217_Energie_kation
 ------------------------------------
 Structure from the checkpoint file:  "JID_1217.chk"
 Charge =  1 Multiplicity = 2

 SCF Done:  E(UB3LYP) =  -494.109583396     A.U. after   22 cycles
 Normal termination of Gaussian 16 at Tue Dec  8 19:37:30 2020.
 Gaussian 16:  ES64L-G16RevA.03 25-Dec-2016

 ----------------------------------------------------------------------
 # B3LYP/6-311++G(d,p) empiricaldispersion=gd3bj scf=xqc pop=npa geom=c
 heck
 ----------------------------------------------------------------------

 -----------------------------------
 CID_15437504_JID_1217_Energie_anion
 -----------------------------------
 Structure from the checkpoint file:  "JID_1217.chk"
 Charge = -1 Multiplicity = 2

                         Standard orientation:
 ---------------------------------------------------------------------
 Center     Atomic      Atomic             Coordinates (Angstroms)
 Number     Number       Type             X           Y           Z
 ---------------------------------------------------------------------
      1          6           0       -4.186488    0.553971    0.473984
      2          6           0       -3.253892   -0.048386   -0.216915
      3          6           0       -2.340866   -0.654400   -0.937642
      4          8           0       -1.040373   -0.905897   -0.571687
      5          6           0       -0.662959   -0.434906    0.718598
      6          6           0        0.816080   -0.736757    0.889461
      7          6           0        1.666387   -0.066640   -0.227124
      8          6           0        3.079931   -0.456685   -0.120905
      9          7           0        4.183082   -0.798459   -0.018676
     10          6           0        1.527355    1.398504   -0.194982
     11          7           0        1.370663    2.546235   -0.145662
     12          1           0       -4.337567    1.632093    0.419825
     13          1           0       -4.859310    0.006901    1.134574
     14          1           0       -2.539263   -1.031507   -1.936237
     15          1           0       -0.865069    0.641496    0.796119
     16          1           0       -1.250493   -0.944325    1.493419
     17          1           0        1.156658   -0.387696    1.868672
     18          1           0        0.987820   -1.815706    0.833593
     19          1           0        1.280721   -0.416715   -1.192953
 ---------------------------------------------------------------------

 SCF Done:  E(UB3LYP) =  -494.437566253     A.U. after   33 cycles
 SCF Done:  E(UB3LYP) =  -494.437566253     a.u. after    1 cycles

 The electronic state is 2-A.
 Alpha  occ. eigenvalues --  -19.05168 -14.23303 -14.23167 -10.16823 -10.13367
 Alpha  occ. eigenvalues --  -10.13187 -10.13122 -10.12109 -10.10572 -10.07209
 Alpha  occ. eigenvalues --  -10.06417  -0.96470  -0.83625  -0.82356  -0.75102
 Alpha  occ. eigenvalues --   -0.68194  -0.65492  -0.58743  -0.53945  -0.48834
 Alpha  occ. eigenvalues --   -0.45729  -0.42672  -0.39896  -0.38538  -0.37447
 Alpha  occ. eigenvalues --   -0.34260  -0.33252  -0.30933  -0.29897  -0.29114
 Alpha  occ. eigenvalues --   -0.28442  -0.26420  -0.25968  -0.25442  -0.25113
 Alpha  occ. eigenvalues --   -0.24113  -0.23141  -0.17555  -0.12501   0.04526
 Alpha virt. eigenvalues --    0.06937   0.07745   0.08395   0.08848   0.09243
 Alpha virt. eigenvalues --    0.09703   0.10107   0.10297   0.11453   0.11622
 Alpha virt. eigenvalues --    0.12656   0.12989   0.13697   0.13863   0.14700

  Beta  occ. eigenvalues --  -19.05122 -14.23283 -14.23130 -10.16778 -10.13360
  Beta  occ. eigenvalues --  -10.13177 -10.13095 -10.12085 -10.10524 -10.07101
  Beta  occ. eigenvalues --  -10.06328  -0.96389  -0.83563  -0.82304  -0.75014
  Beta  occ. eigenvalues --   -0.67968  -0.65346  -0.58534  -0.53777  -0.48762
  Beta  occ. eigenvalues --   -0.45594  -0.42536  -0.39815  -0.38357  -0.37318
  Beta  occ. eigenvalues --   -0.34172  -0.33170  -0.30866  -0.29793  -0.29066
  Beta  occ. eigenvalues --   -0.28391  -0.26340  -0.25904  -0.25347  -0.25074
  Beta  occ. eigenvalues --   -0.24049  -0.23061  -0.16905  -0.12406
  Beta virt. eigenvalues --    0.07184   0.07828   0.08107   0.08663   0.09343
  Beta virt. eigenvalues --    0.09950   0.10142   0.10325   0.10739   0.11827
  Beta virt. eigenvalues --    0.11838   0.13040   0.13187   0.13803   0.13964

 Mulliken charges and spin densities:
               1          2
     1  C    0.269458  -0.820933
     2  C    2.703575  -1.742946
     3  C   -2.704079   2.006902
     4  O   -0.012694  -0.012365
     5  C    0.029989  -0.320407
     6  C    1.186129  -1.917885
     7  C   -1.930964   3.255999
     8  C    1.009855  -1.532309
     9  N   -0.251553  -0.008640
    10  C    1.443272  -1.814172
    11  N   -0.331727   0.054086
    12  H    0.075063   0.033183
    13  H   -0.058083   0.165339
    14  H   -0.956299   1.143004
    15  H    0.281963  -0.112177
    16  H   -0.224878   0.387328
    17  H   -0.403237   0.614555
    18  H   -0.384518   0.616888
    19  H   -0.741271   1.004551
 Sum of Mulliken charges =  -1.00000   1.00000

 Dipole moment (field-independent basis, Debye):
    X=             -0.4247    Y=              2.0712    Z=              2.5702  Tot=              3.3281
 Quadrupole moment (field-independent basis, Debye-Ang):
   XX=           -131.3004   YY=           -101.5390   ZZ=            -92.8465
   XY=             -1.1511   XZ=             -6.2728   YZ=             -0.9705

 Summary of Natural Population Analysis:

                                       Natural Population
                Natural  -----------------------------------------------
    Atom  No    Charge         Core      Valence    Rydberg      Total
 -----------------------------------------------------------------------
      C    1   -0.19815      0.99952     2.19189    0.00673     3.19815
      C    2   -0.02029      0.99952     2.01227    0.00850     3.02029
      C    3    0.04830      0.99933     1.93888    0.01349     2.95170
      O    4   -0.28228      0.99987     3.26929    0.01312     4.28228
      C    5   -0.01291      0.99956     2.00126    0.01209     3.01291
      C    6   -0.18056      0.99961     2.17046    0.01049     3.18056
      C    7   -0.21472      0.99944     2.20339    0.01189     3.21472
      C    8    0.17014      0.99963     1.81288    0.01735     2.82986
      N    9   -0.16919      0.99979     2.65827    0.01113     3.66919
      C   10    0.16569      0.99963     1.81694    0.01774     2.83431
      N   11   -0.16488      0.99979     2.65389    0.01121     3.66488
      H   12    0.09580      0.00000     0.40290    0.00131     0.40420
      H   13    0.09587      0.00000     0.40276    0.00138     0.40413
      H   14    0.10378      0.00000     0.39052    0.00570     0.39622
      H   15    0.09124      0.00000     0.40673    0.00203     0.40876
      H   16    0.09505      0.00000     0.40356    0.00139     0.40495
      H   17    0.10862      0.00000     0.38950    0.00188     0.39138
      H   18    0.11378      0.00000     0.38251    0.00371     0.38622
      H   19    0.15471      0.00000     0.33905    0.00624     0.34529
 =======================================================================
   * Total *    0.00000     10.99569    27.84694    0.15737    39.00000

 Normal termination of Gaussian 16 at Tue Dec  8 19:41:55 2020.
