 Gaussian 16, Revision A.03,

 -----------------------------------------------------------
 # opt freq B3LYP/6-31G(d) empiricaldispersion=gd3bj scf=xqc
 -----------------------------------------------------------

 -------------------------------
 CID_104985978_JID_3099_neutraal
 -------------------------------
 Symbolic Z-matrix:
 Charge =  0 Multiplicity = 1

 SCF Done:  E(RB3LYP) =  -576.606659377     A.U. after   14 cycles
 SCF Done:  E(RB3LYP) =  -576.615707749     A.U. after   12 cycles
 SCF Done:  E(RB3LYP) =  -576.614913636     A.U. after   13 cycles
 SCF Done:  E(RB3LYP) =  -576.616285942     A.U. after   13 cycles
 SCF Done:  E(RB3LYP) =  -576.616948591     A.U. after   12 cycles
 SCF Done:  E(RB3LYP) =  -576.617334728     A.U. after   11 cycles
 SCF Done:  E(RB3LYP) =  -576.617478992     A.U. after   11 cycles
 SCF Done:  E(RB3LYP) =  -576.617554776     A.U. after   10 cycles
 SCF Done:  E(RB3LYP) =  -576.617634042     A.U. after   11 cycles
 SCF Done:  E(RB3LYP) =  -576.617704218     A.U. after   11 cycles
 SCF Done:  E(RB3LYP) =  -576.619791929     A.U. after   11 cycles
 SCF Done:  E(RB3LYP) =  -576.619880714     A.U. after   10 cycles
 SCF Done:  E(RB3LYP) =  -576.619910764     A.U. after    9 cycles
 SCF Done:  E(RB3LYP) =  -576.619916765     A.U. after    8 cycles
 SCF Done:  E(RB3LYP) =  -576.619917911     A.U. after    8 cycles
 SCF Done:  E(RB3LYP) =  -576.619918129     A.U. after    7 cycles
 Optimization completed.
    -- Stationary point found.
 Normal termination of Gaussian 16 at Wed Dec  9 22:35:30 2020.

 --------------------------------------------------------------------
 #N Geom=AllCheck Guess=TCheck SCRF=Check GenChk RB3LYP/6-31G(d) Freq
 --------------------------------------------------------------------

 Structure from the checkpoint file:  "JID_3099.chk"
 -------------------------------
 CID_104985978_JID_3099_neutraal
 -------------------------------
 Charge =  0 Multiplicity = 1

 SCF Done:  E(RB3LYP) =  -576.619918129     A.U. after    1 cycles

  Exact polarizability: 127.866   0.281 113.691  -0.174   2.049 100.141
 Approx polarizability: 153.429  -3.023 176.826  -1.217   9.373 151.949

                      1                      2                      3
                      A                      A                      A
 Frequencies --     46.4786                73.3316               101.7717
 Red. masses --      4.1537                 3.6018                 3.6649
 Frc consts  --      0.0053                 0.0114                 0.0224
 IR Inten    --      1.6531                 0.2271                 1.7840

                      4                      5                      6
                      A                      A                      A
 Frequencies --    111.1371               133.8463               136.7085
 Red. masses --      2.6139                 2.2990                 2.4332
 Frc consts  --      0.0190                 0.0243                 0.0268
 IR Inten    --      0.0662                 0.2992                 1.2916

                      7                      8                      9
                      A                      A                      A
 Frequencies --    162.0376               186.2917               198.4003
 Red. masses --      4.1539                 2.0601                 2.7546
 Frc consts  --      0.0643                 0.0421                 0.0639
 IR Inten    --     16.6506                 0.4602                 0.9840

                     10                     11                     12
                      A                      A                      A
 Frequencies --    220.6663               255.3826               257.9450
 Red. masses --      1.3346                 2.7553                 1.5439
 Frc consts  --      0.0383                 0.1059                 0.0605
 IR Inten    --      3.5495                 2.3604                 2.8715

                     13                     14                     15
                      A                      A                      A
 Frequencies --    275.7076               312.3052               348.7038
 Red. masses --      2.7671                 2.5494                 2.3842
 Frc consts  --      0.1239                 0.1465                 0.1708
 IR Inten    --      4.4613                 5.7834                 0.8500

                     16                     17                     18
                      A                      A                      A
 Frequencies --    390.7174               414.3056               484.5004
 Red. masses --      3.0133                 3.2380                 2.9944
 Frc consts  --      0.2710                 0.3275                 0.4141
 IR Inten    --      3.9203                 3.8533                 1.3505

                     19                     20                     21
                      A                      A                      A
 Frequencies --    551.6708               568.6500               596.6380
 Red. masses --      3.2379                 4.5123                 4.3084
 Frc consts  --      0.5806                 0.8597                 0.9036
 IR Inten    --      1.0053                 2.4211                 0.4742

                     22                     23                     24
                      A                      A                      A
 Frequencies --    638.8485               711.2354               760.9271
 Red. masses --      2.6184                 1.6846                 1.9767
 Frc consts  --      0.6296                 0.5021                 0.6743
 IR Inten    --     23.8387                24.5174                23.8205

                     25                     26                     27
                      A                      A                      A
 Frequencies --    783.0768               794.9844               861.0226
 Red. masses --      1.5059                 1.2510                 1.6398
 Frc consts  --      0.5441                 0.4658                 0.7163
 IR Inten    --     55.7400                 1.2228                 5.1852

                     28                     29                     30
                      A                      A                      A
 Frequencies --    867.3112               903.4733               921.0353
 Red. masses --      1.9193                 2.3536                 2.1114
 Frc consts  --      0.8506                 1.1319                 1.0553
 IR Inten    --      8.1000                11.7177                14.7078

                     31                     32                     33
                      A                      A                      A
 Frequencies --    940.4142               950.5526               984.6985
 Red. masses --      1.8666                 2.5247                 2.6846
 Frc consts  --      0.9726                 1.3440                 1.5337
 IR Inten    --      8.0105                 2.1176                 2.6987

                     34                     35                     36
                      A                      A                      A
 Frequencies --   1036.9925              1050.5614              1072.3105
 Red. masses --      2.6670                 1.2193                 2.7818
 Frc consts  --      1.6898                 0.7929                 1.8846
 IR Inten    --      1.4596                 2.4612                 2.4717

                     37                     38                     39
                      A                      A                      A
 Frequencies --   1087.0639              1116.0557              1132.5792
 Red. masses --      2.6245                 2.5811                 1.7362
 Frc consts  --      1.8273                 1.8942                 1.3122
 IR Inten    --     51.3916                19.8010                 2.5615

                     40                     41                     42
                      A                      A                      A
 Frequencies --   1143.5993              1173.3065              1187.2374
 Red. masses --      3.3777                 3.9339                 2.1194
 Frc consts  --      2.6027                 3.1908                 1.7601
 IR Inten    --     77.5819                58.0536                 8.3652

                     43                     44                     45
                      A                      A                      A
 Frequencies --   1193.8947              1213.2849              1220.6441
 Red. masses --      1.3426                 1.8863                 1.4739
 Frc consts  --      1.1275                 1.6360                 1.2939
 IR Inten    --      0.6240                23.3686                 9.7117

                     46                     47                     48
                      A                      A                      A
 Frequencies --   1239.9899              1263.5984              1281.2405
 Red. masses --      1.5501                 1.2139                 1.3230
 Frc consts  --      1.4043                 1.1420                 1.2796
 IR Inten    --     21.0895                 0.3078                 1.6648

                     49                     50                     51
                      A                      A                      A
 Frequencies --   1287.4905              1290.1899              1316.4985
 Red. masses --      1.4188                 1.3710                 1.8353
 Frc consts  --      1.3857                 1.3447                 1.8742
 IR Inten    --      0.1809                 5.0853                18.5127

                     52                     53                     54
                      A                      A                      A
 Frequencies --   1321.4531              1343.4545              1378.3491
 Red. masses --      1.5150                 1.2833                 1.3396
 Frc consts  --      1.5587                 1.3646                 1.4995
 IR Inten    --     21.0904                 7.8480                 2.9062

                     55                     56                     57
                      A                      A                      A
 Frequencies --   1393.0778              1402.8402              1446.1312
 Red. masses --      1.3076                 1.3113                 1.2404
 Frc consts  --      1.4951                 1.5205                 1.5284
 IR Inten    --     12.8265                 7.6098                 3.3129

                     58                     59                     60
                      A                      A                      A
 Frequencies --   1494.5181              1500.4726              1503.4479
 Red. masses --      1.0877                 1.1261                 1.1089
 Frc consts  --      1.4314                 1.4937                 1.4767
 IR Inten    --      1.2259                 2.0154                 3.1740

                     61                     62                     63
                      A                      A                      A
 Frequencies --   1513.6262              1517.3659              1523.1184
 Red. masses --      1.0902                 1.0684                 1.0563
 Frc consts  --      1.4716                 1.4493                 1.4438
 IR Inten    --      2.4357                 0.9305                 4.6088

                     64                     65                     66
                      A                      A                      A
 Frequencies --   1530.0255              1537.0584              1538.3468
 Red. masses --      1.0455                 1.1268                 1.0758
 Frc consts  --      1.4420                 1.5685                 1.5000
 IR Inten    --      6.9420                 4.3080                 9.5016

                     67                     68                     69
                      A                      A                      A
 Frequencies --   1541.4719              1544.5834              2344.6563
 Red. masses --      1.1069                 1.1162                12.6503
 Frc consts  --      1.5496                 1.5690                40.9741
 IR Inten    --      2.7938                22.7027                 4.8360

                     70                     71                     72
                      A                      A                      A
 Frequencies --   3021.6755              3048.4335              3050.6766
 Red. masses --      1.0399                 1.0744                 1.0628
 Frc consts  --      5.5939                 5.8827                 5.8278
 IR Inten    --     51.0866                 1.4309                29.8558

                     73                     74                     75
                      A                      A                      A
 Frequencies --   3051.4210              3061.0913              3067.1606
 Red. masses --      1.0397                 1.0672                 1.0589
 Frc consts  --      5.7039                 5.8918                 5.8691
 IR Inten    --     15.7619                28.2323                40.4517

                     76                     77                     78
                      A                      A                      A
 Frequencies --   3079.2380              3094.5972              3095.0967
 Red. masses --      1.0611                 1.0916                 1.1039
 Frc consts  --      5.9278                 6.1593                 6.2308
 IR Inten    --     36.7014                16.3480                25.5821

                     79                     80                     81
                      A                      A                      A
 Frequencies --   3101.3020              3104.3587              3113.6582
 Red. masses --      1.0669                 1.0990                 1.1067
 Frc consts  --      6.0458                 6.2399                 6.3214
 IR Inten    --     43.4078                 3.0159                10.6452

                     82                     83                     84
                      A                      A                      A
 Frequencies --   3120.9543              3129.9122              3133.0026
 Red. masses --      1.1021                 1.1076                 1.1024
 Frc consts  --      6.3247                 6.3929                 6.3755
 IR Inten    --     37.7299                27.8149                31.2286

                     85                     86                     87
                      A                      A                      A
 Frequencies --   3137.3907              3152.7110              3519.4032
 Red. masses --      1.1025                 1.1057                 1.0733
 Frc consts  --      6.3938                 6.4753                 7.8323
 IR Inten    --     35.4173                34.9180                 6.0976

 - Thermochemistry -
 -------------------
 Temperature   298.150 Kelvin.  Pressure   1.00000 Atm.
 Atom     1 has atomic number  6 and mass  12.00000

 Molecular mass:   182.14191 amu.
 Principal axes and moments of inertia in atomic units:
                           1         2         3
     Eigenvalues --  1340.714103643.904533940.10845
           X            0.99993  -0.01126  -0.00308
           Y            0.01108   0.99841  -0.05520
           Z            0.00369   0.05516   0.99847
 This molecule is an asymmetric top.
 Rotational symmetry number  1.
 Warning -- assumption of classical behavior for rotation
           may cause significant error
 Rotational temperatures (Kelvin)      0.06460     0.02377     0.02198
 Rotational constants (GHZ):           1.34610     0.49528     0.45804
 Zero-point vibrational energy     721990.6 (Joules/Mol)
                                  172.55988 (Kcal/Mol)
 Warning -- explicit consideration of  21 degrees of freedom as
           vibrations may cause significant error
 Vibrational temperatures:     66.87   105.51   146.43   159.90   192.57
          (Kelvin)            196.69   233.14   268.03   285.45   317.49
                              367.44   371.13   396.68   449.34   501.71
                              562.16   596.09   697.09   793.73   818.16
                              858.43   919.16  1023.31  1094.80  1126.67
                             1143.81  1238.82  1247.87  1299.90  1325.16
                             1353.05  1367.63  1416.76  1492.00  1511.52
                             1542.82  1564.04  1605.76  1629.53  1645.38
                             1688.13  1708.17  1717.75  1745.65  1756.23
                             1784.07  1818.04  1843.42  1852.41  1856.30
                             1894.15  1901.28  1932.93  1983.14  2004.33
                             2018.37  2080.66  2150.28  2158.85  2163.13
                             2177.77  2183.15  2191.43  2201.37  2211.48
                             2213.34  2217.83  2222.31  3373.44  4347.52
                             4386.02  4389.24  4390.31  4404.23  4412.96
                             4430.34  4452.44  4453.15  4462.08  4466.48
                             4479.86  4490.36  4503.25  4507.69  4514.01
                             4536.05  5063.64

 Zero-point correction=                           0.274992 (Hartree/Particle)
 Thermal correction to Energy=                    0.289384
 Thermal correction to Enthalpy=                  0.290328
 Thermal correction to Gibbs Free Energy=         0.234224
 Sum of electronic and zero-point Energies=           -576.344926
 Sum of electronic and thermal Energies=              -576.330534
 Sum of electronic and thermal Enthalpies=            -576.329590
 Sum of electronic and thermal Free Energies=         -576.385694

                     E (Thermal)             CV                S
                      KCal/Mol        Cal/Mol-Kelvin    Cal/Mol-Kelvin
 Total                  181.591             53.588            118.081
 Electronic               0.000              0.000              0.000
 Translational            0.889              2.981             41.505
 Rotational               0.889              2.981             31.332
 Vibrational            179.814             47.626             45.243
 Vibration     1          0.595              1.979              4.962
 Vibration     2          0.599              1.967              4.062
 Vibration     3          0.604              1.948              3.420
 Vibration     4          0.607              1.940              3.249
 Vibration     5          0.613              1.920              2.890
 Vibration     6          0.614              1.917              2.849
 Vibration     7          0.622              1.889              2.526
 Vibration     8          0.632              1.859              2.264
 Vibration     9          0.637              1.842              2.148
 Vibration    10          0.647              1.810              1.954
 Vibration    11          0.666              1.754              1.693
 Vibration    12          0.667              1.749              1.676
 Vibration    13          0.677              1.718              1.560
 Vibration    14          0.701              1.650              1.350
 Vibration    15          0.726              1.578              1.172
 Vibration    16          0.758              1.490              0.997
 Vibration    17          0.778              1.439              0.912
 Vibration    18          0.841              1.284              0.698
 Vibration    19          0.907              1.136              0.541
 Vibration    20          0.925              1.099              0.507
 Vibration    21          0.954              1.039              0.455

 Optimization completed.
    -- Stationary point found.
 Normal termination of Gaussian 16 at Wed Dec  9 22:43:54 2020.

 ----------------------------------------------------------------------
 # B3LYP/6-311++G(d,p) empiricaldispersion=gd3bj scf=xqc pop=npa geom=c
 heck
 ----------------------------------------------------------------------

 ---------------------------------------
 CID_104985978_JID_3099_Energie_neutraal
 ---------------------------------------
 Structure from the checkpoint file:  "JID_3099.chk"
 Charge =  0 Multiplicity = 1

 SCF Done:  E(RB3LYP) =  -576.784452204     A.U. after   14 cycles
 Normal termination of Gaussian 16 at Wed Dec  9 22:47:45 2020.

 ----------------------------------------------------------------------
 # B3LYP/6-311++G(d,p) empiricaldispersion=gd3bj scf=xqc pop=npa geom=c
 heck
 ----------------------------------------------------------------------

 -------------------------------------
 CID_104985978_JID_3099_Energie_kation
 -------------------------------------
 Structure from the checkpoint file:  "JID_3099.chk"
 Charge =  1 Multiplicity = 2

 SCF Done:  E(UB3LYP) =  -576.467961862     A.U. after   25 cycles
 Normal termination of Gaussian 16 at Wed Dec  9 22:57:40 2020.
 Gaussian 16:  ES64L-G16RevA.03 25-Dec-2016

 ----------------------------------------------------------------------
 # B3LYP/6-311++G(d,p) empiricaldispersion=gd3bj scf=xqc pop=npa geom=c
 heck
 ----------------------------------------------------------------------

 ------------------------------------
 CID_104985978_JID_3099_Energie_anion
 ------------------------------------
 Structure from the checkpoint file:  "JID_3099.chk"
 Charge = -1 Multiplicity = 2

                         Standard orientation:
 ---------------------------------------------------------------------
 Center     Atomic      Atomic             Coordinates (Angstroms)
 Number     Number       Type             X           Y           Z
 ---------------------------------------------------------------------
      1          6           0        4.167755   -0.195968    0.599911
      2          6           0        3.163381   -0.505048   -0.510791
      3          6           0        1.691185   -0.458795   -0.050582
      4          6           0        1.395857    0.881978    0.519881
      5          7           0        1.184929    1.948800    0.928336
      6          7           0        0.812735   -0.844519   -1.148906
      7          6           0       -0.532757   -1.307226   -0.824115
      8          6           0       -1.508663   -0.259797   -0.253204
      9          6           0       -2.944414   -0.839305   -0.115703
     10          6           0       -2.654407   -1.113434    1.381540
     11          6           0       -1.459430   -0.129853    1.304373
     12          8           0       -1.324592    0.868439   -1.089637
     13          6           0       -1.856501    2.105344   -0.651618
     14          1           0        4.026899    0.814512    0.997488
     15          1           0        5.192882   -0.269994    0.223196
     16          1           0        4.066449   -0.902205    1.432934
     17          1           0        3.286962    0.200508   -1.342065
     18          1           0        3.322811   -1.508118   -0.919007
     19          1           0        1.556991   -1.190224    0.756952
     20          1           0        0.729642   -0.068008   -1.801424
     21          1           0       -0.959477   -1.684732   -1.761162
     22          1           0       -0.458572   -2.159315   -0.137887
     23          1           0       -3.703056   -0.062228   -0.249788
     24          1           0       -3.197134   -1.687998   -0.761005
     25          1           0       -2.336261   -2.144957    1.561264
     26          1           0       -3.447481   -0.868243    2.092804
     27          1           0       -0.533233   -0.414010    1.809748
     28          1           0       -1.732929    0.871326    1.643589
     29          1           0       -2.915111    2.025321   -0.366254
     30          1           0       -1.280147    2.515636    0.185298
     31          1           0       -1.778176    2.787879   -1.501751
 ---------------------------------------------------------------------

 SCF Done:  E(UB3LYP) =  -576.769356335     A.U. after   32 cycles

 The electronic state is 2-A.
 Alpha  occ. eigenvalues --  -19.03219 -14.21369 -14.21216 -10.14303 -10.13044
 Alpha  occ. eigenvalues --  -10.11532 -10.10918 -10.09904 -10.08187 -10.06869
 Alpha  occ. eigenvalues --  -10.06824 -10.06766 -10.06507  -0.94502  -0.83344
 Alpha  occ. eigenvalues --   -0.80270  -0.74720  -0.69865  -0.63528  -0.60508
 Alpha  occ. eigenvalues --   -0.56899  -0.56461  -0.52058  -0.51655  -0.45406
 Alpha  occ. eigenvalues --   -0.43847  -0.41724  -0.39301  -0.38118  -0.37029
 Alpha  occ. eigenvalues --   -0.35764  -0.34652  -0.34224  -0.32188  -0.30565
 Alpha  occ. eigenvalues --   -0.29253  -0.28161  -0.27884  -0.27656  -0.27262
 Alpha  occ. eigenvalues --   -0.26640  -0.25779  -0.25077  -0.23962  -0.23449
 Alpha  occ. eigenvalues --   -0.22946  -0.22136  -0.20300  -0.16126  -0.14367
 Alpha  occ. eigenvalues --    0.04528
 Alpha virt. eigenvalues --    0.06191   0.07091   0.07815   0.08323   0.09059
 Alpha virt. eigenvalues --    0.09456   0.10040   0.10499   0.10903   0.11227
 Alpha virt. eigenvalues --    0.11724   0.12159   0.12687   0.13028   0.13287

  Beta  occ. eigenvalues --  -19.03215 -14.21363 -14.21192 -10.14284 -10.13044
  Beta  occ. eigenvalues --  -10.11517 -10.10917 -10.09884 -10.08169 -10.06838
  Beta  occ. eigenvalues --  -10.06803 -10.06753 -10.06468  -0.94496  -0.83320
  Beta  occ. eigenvalues --   -0.80239  -0.74701  -0.69829  -0.63493  -0.60462
  Beta  occ. eigenvalues --   -0.56853  -0.56412  -0.51973  -0.51585  -0.45365
  Beta  occ. eigenvalues --   -0.43802  -0.41692  -0.39266  -0.38087  -0.36993
  Beta  occ. eigenvalues --   -0.35741  -0.34628  -0.34183  -0.32150  -0.30528
  Beta  occ. eigenvalues --   -0.29217  -0.28112  -0.27846  -0.27615  -0.27219
  Beta  occ. eigenvalues --   -0.26591  -0.25751  -0.25039  -0.23929  -0.23415
  Beta  occ. eigenvalues --   -0.22906  -0.22076  -0.20273  -0.16115  -0.14350
  Beta virt. eigenvalues --    0.06741   0.07221   0.07813   0.08185   0.09053
  Beta virt. eigenvalues --    0.09369   0.09903   0.10407   0.10800   0.11240
  Beta virt. eigenvalues --    0.11481   0.12086   0.12479   0.12974   0.13259

 Mulliken charges and spin densities:
               1          2
     1  C    0.929475  -1.556940
     2  C   -0.954686   0.886472
     3  C   -0.235690   0.207152
     4  C    0.709174  -1.078664
     5  N   -0.317073   0.062539
     6  N    0.100674   0.111204
     7  C    0.958866  -1.903581
     8  C   -1.918062   2.048569
     9  C    0.634954  -0.762693
    10  C    0.964773  -1.408952
    11  C    0.081007  -0.123499
    12  O   -0.093863   0.004104
    13  C    0.113521  -0.344501
    14  H    0.069190   0.093153
    15  H   -0.488334   0.640683
    16  H   -0.297935   0.444220
    17  H   -0.000799   0.104867
    18  H   -0.245517   0.457461
    19  H   -0.171119   0.372197
    20  H    0.195139   0.039778
    21  H    0.057435   0.144168
    22  H   -0.377723   0.553441
    23  H   -0.109908   0.226490
    24  H   -0.174233   0.330383
    25  H   -0.147667   0.294018
    26  H   -0.336392   0.493522
    27  H   -0.004700   0.178132
    28  H    0.049479   0.076869
    29  H   -0.076849   0.204182
    30  H    0.077922   0.082287
    31  H    0.008944   0.122939
 Sum of Mulliken charges =  -1.00000   1.00000

 Dipole moment (field-independent basis, Debye):
    X=             -2.0276    Y=              3.5742    Z=             -3.2915  Tot=              5.2650
 Quadrupole moment (field-independent basis, Debye-Ang):
   XX=           -161.0887   YY=           -127.2801   ZZ=           -114.2057
   XY=              2.3170   XZ=              0.3440   YZ=              0.0786

 Summary of Natural Population Analysis:

                                       Natural Population
                Natural  -----------------------------------------------
    Atom  No    Charge         Core      Valence    Rydberg      Total
 -----------------------------------------------------------------------
      C    1   -0.29033      0.99966     2.28522    0.00545     3.29033
      C    2   -0.18244      0.99963     2.17253    0.01028     3.18244
      C    3   -0.06343      0.99949     2.05000    0.01394     3.06343
      C    4    0.15526      0.99964     1.82502    0.02007     2.84474
      N    5   -0.18909      0.99979     2.67817    0.01113     3.68909
      N    6   -0.32587      0.99974     2.81463    0.01150     3.82587
      C    7   -0.08942      0.99955     2.07569    0.01419     3.08942
      C    8    0.13017      0.99947     1.85173    0.01863     2.86983
      C    9   -0.19922      0.99959     2.19045    0.00918     3.19922
      C   10   -0.19143      0.99965     2.18360    0.00818     3.19143
      C   11   -0.20335      0.99959     2.19401    0.00976     3.20335
      O   12   -0.30890      0.99986     3.29898    0.01007     4.30890
      C   13   -0.10130      0.99959     2.09236    0.00935     3.10130
      H   14    0.10078      0.00000     0.39823    0.00098     0.39922
      H   15    0.10252      0.00000     0.39630    0.00118     0.39748
      H   16    0.10090      0.00000     0.39733    0.00177     0.39910
      H   17    0.09436      0.00000     0.40424    0.00140     0.40564
      H   18    0.10714      0.00000     0.39091    0.00194     0.39286
      H   19    0.11596      0.00000     0.38078    0.00326     0.38404
      H   20    0.18093      0.00000     0.31630    0.00277     0.31907
      H   21    0.09766      0.00000     0.40106    0.00128     0.40234
      H   22    0.09983      0.00000     0.39834    0.00183     0.40017
      H   23    0.10098      0.00000     0.39754    0.00148     0.39902
      H   24    0.09824      0.00000     0.40043    0.00133     0.40176
      H   25    0.09856      0.00000     0.39939    0.00205     0.40144
      H   26    0.09817      0.00000     0.40041    0.00142     0.40183
      H   27    0.10111      0.00000     0.39729    0.00161     0.39889
      H   28    0.10419      0.00000     0.39428    0.00153     0.39581
      H   29    0.07869      0.00000     0.42001    0.00130     0.42131
      H   30    0.09153      0.00000     0.40727    0.00120     0.40847
      H   31    0.08778      0.00000     0.41146    0.00076     0.41222
 =======================================================================
   * Total *   -0.00000     12.99524    36.82393    0.18083    50.00000

 Normal termination of Gaussian 16 at Wed Dec  9 23:10:14 2020.
