 Gaussian 16, Revision A.03,

 -----------------------------------------------------------
 # opt freq B3LYP/6-31G(d) empiricaldispersion=gd3bj scf=xqc
 -----------------------------------------------------------

 ------------------------------
 CID_43382112_JID_8868_neutraal
 ------------------------------
 Symbolic Z-matrix:
 Charge =  0 Multiplicity = 1

 SCF Done:  E(RB3LYP) =  -1128.49967587     A.U. after   15 cycles
 SCF Done:  E(RB3LYP) =  -1128.50666830     A.U. after   13 cycles
 SCF Done:  E(RB3LYP) =  -1128.50849571     A.U. after   13 cycles
 SCF Done:  E(RB3LYP) =  -1128.50962881     A.U. after   14 cycles
 SCF Done:  E(RB3LYP) =  -1128.51061469     A.U. after   14 cycles
 SCF Done:  E(RB3LYP) =  -1128.51129657     A.U. after   12 cycles
 SCF Done:  E(RB3LYP) =  -1128.51156530     A.U. after   12 cycles
 SCF Done:  E(RB3LYP) =  -1128.51168206     A.U. after   12 cycles
 SCF Done:  E(RB3LYP) =  -1128.51179692     A.U. after   11 cycles
 SCF Done:  E(RB3LYP) =  -1128.51185874     A.U. after   12 cycles
 SCF Done:  E(RB3LYP) =  -1128.51430643     A.U. after    9 cycles
 SCF Done:  E(RB3LYP) =  -1128.51430784     A.U. after    8 cycles
 SCF Done:  E(RB3LYP) =  -1128.51430913     A.U. after    8 cycles
 SCF Done:  E(RB3LYP) =  -1128.51430929     A.U. after    8 cycles
 SCF Done:  E(RB3LYP) =  -1128.51430931     A.U. after    7 cycles
 Optimization completed.
    -- Stationary point found.
 Normal termination of Gaussian 16 at Fri Dec 11 22:34:01 2020.

 --------------------------------------------------------------------
 #N Geom=AllCheck Guess=TCheck SCRF=Check GenChk RB3LYP/6-31G(d) Freq
 --------------------------------------------------------------------

 Structure from the checkpoint file:  "JID_8868.chk"
 ------------------------------
 CID_43382112_JID_8868_neutraal
 ------------------------------
 Charge =  0 Multiplicity = 1

 SCF Done:  E(RB3LYP) =  -1128.51430931     A.U. after    1 cycles

  Exact polarizability: 234.217  21.719 172.550  -6.702   7.559 131.312
 Approx polarizability: 313.417  24.454 259.424 -12.595   9.942 226.490

                      1                      2                      3
                      A                      A                      A
 Frequencies --     17.7297                21.1723                35.5301
 Red. masses --      4.7065                 3.7979                 3.8017
 Frc consts  --      0.0009                 0.0010                 0.0028
 IR Inten    --      0.2002                 0.1301                 0.0838

                      4                      5                      6
                      A                      A                      A
 Frequencies --     47.7727                56.8403                71.4829
 Red. masses --      2.5117                 3.9557                 5.2971
 Frc consts  --      0.0034                 0.0075                 0.0159
 IR Inten    --      1.2857                 0.9362                 0.3411

                      7                      8                      9
                      A                      A                      A
 Frequencies --     81.6696               107.2936               142.1435
 Red. masses --      5.4115                 3.9530                 3.4687
 Frc consts  --      0.0213                 0.0268                 0.0413
 IR Inten    --      0.4475                 1.0086                 4.3677

                     10                     11                     12
                      A                      A                      A
 Frequencies --    192.7134               213.9651               231.3269
 Red. masses --      4.9060                 2.0585                 1.8254
 Frc consts  --      0.1073                 0.0555                 0.0576
 IR Inten    --      1.9043                 6.0504                 6.5172

                     13                     14                     15
                      A                      A                      A
 Frequencies --    245.0694               255.3864               280.7038
 Red. masses --      2.1038                 2.9931                 4.7817
 Frc consts  --      0.0744                 0.1150                 0.2220
 IR Inten    --      1.2342                 0.8917                 0.3532

                     16                     17                     18
                      A                      A                      A
 Frequencies --    300.8065               336.3987               378.4322
 Red. masses --      3.5511                 2.0503                 2.6169
 Frc consts  --      0.1893                 0.1367                 0.2208
 IR Inten    --      1.2238                 4.3541                 1.3215

                     19                     20                     21
                      A                      A                      A
 Frequencies --    417.4216               432.5851               453.8893
 Red. masses --      2.9981                 2.9583                 1.8310
 Frc consts  --      0.3078                 0.3262                 0.2222
 IR Inten    --      0.2982                25.5370                 7.8424

                     22                     23                     24
                      A                      A                      A
 Frequencies --    490.7913               505.5416               531.4707
 Red. masses --      2.4471                 2.7548                 2.9003
 Frc consts  --      0.3473                 0.4148                 0.4827
 IR Inten    --     34.9127                23.0569                 1.7266

                     25                     26                     27
                      A                      A                      A
 Frequencies --    541.2913               601.3600               611.9124
 Red. masses --      2.7593                 4.8682                 7.1585
 Frc consts  --      0.4763                 1.0373                 1.5793
 IR Inten    --     10.6234                 5.1853                33.5059

                     28                     29                     30
                      A                      A                      A
 Frequencies --    626.3134               635.4981               681.4738
 Red. masses --      5.2835                 6.3609                 5.6905
 Frc consts  --      1.2211                 1.5135                 1.5570
 IR Inten    --     25.1645                 1.7450                19.2370

                     31                     32                     33
                      A                      A                      A
 Frequencies --    702.5323               716.4421               776.3727
 Red. masses --      4.1224                 1.7814                 1.9895
 Frc consts  --      1.1987                 0.5387                 0.7065
 IR Inten    --      6.0018                30.4510                15.2627

                     34                     35                     36
                      A                      A                      A
 Frequencies --    794.2078               814.8373               859.1731
 Red. masses --      1.4517                 1.2159                 1.2512
 Frc consts  --      0.5395                 0.4757                 0.5442
 IR Inten    --      2.3449                 0.9814                 0.0221

                     37                     38                     39
                      A                      A                      A
 Frequencies --    877.9161               882.7908               887.9502
 Red. masses --      3.2555                 2.8468                 2.5640
 Frc consts  --      1.4783                 1.3071                 1.1911
 IR Inten    --      2.6015                16.1534                 4.7408

                     40                     41                     42
                      A                      A                      A
 Frequencies --    923.6962               958.0214               968.2768
 Red. masses --      1.4704                 1.8684                 1.3581
 Frc consts  --      0.7392                 1.0103                 0.7502
 IR Inten    --      0.1559                18.1786                 0.8910

                     43                     44                     45
                      A                      A                      A
 Frequencies --    981.4701               995.9642              1021.7914
 Red. masses --      2.1910                 1.2854                 5.9414
 Frc consts  --      1.2435                 0.7512                 3.6548
 IR Inten    --     17.9926                 0.7920                 0.6344

                     46                     47                     48
                      A                      A                      A
 Frequencies --   1022.6540              1032.3910              1053.8358
 Red. masses --      2.3202                 2.4374                 3.6793
 Frc consts  --      1.4297                 1.5306                 2.4075
 IR Inten    --     10.0968                16.6891                99.5332

                     49                     50                     51
                      A                      A                      A
 Frequencies --   1062.0909              1086.1238              1102.4878
 Red. masses --      2.1725                 2.5883                 2.1826
 Frc consts  --      1.4439                 1.7990                 1.5631
 IR Inten    --      1.3336                 4.3410                15.2677

                     52                     53                     54
                      A                      A                      A
 Frequencies --   1111.2469              1116.2887              1142.0136
 Red. masses --      2.0369                 1.5907                 2.2766
 Frc consts  --      1.4820                 1.1679                 1.7494
 IR Inten    --     18.3315                 5.5221                18.8702

                     55                     56                     57
                      A                      A                      A
 Frequencies --   1169.6535              1193.9815              1214.2039
 Red. masses --      3.8098                 1.0983                 1.8191
 Frc consts  --      3.0709                 0.9225                 1.5801
 IR Inten    --    119.0547                 0.1064                32.6658

                     58                     59                     60
                      A                      A                      A
 Frequencies --   1215.6688              1219.5947              1231.2549
 Red. masses --      1.1342                 1.1806                 2.0637
 Frc consts  --      0.9876                 1.0346                 1.8433
 IR Inten    --      0.6212                 4.7576                 0.6342

                     61                     62                     63
                      A                      A                      A
 Frequencies --   1258.8257              1270.4573              1277.1233
 Red. masses --      1.1902                 1.5300                 1.3986
 Frc consts  --      1.1112                 1.4550                 1.3441
 IR Inten    --      8.2023                65.6848                 7.8017

                     64                     65                     66
                      A                      A                      A
 Frequencies --   1306.8286              1327.7719              1341.6993
 Red. masses --      1.6302                 1.1892                 1.1436
 Frc consts  --      1.6404                 1.2352                 1.2129
 IR Inten    --      3.4814                15.7605                 5.5081

                     67                     68                     69
                      A                      A                      A
 Frequencies --   1352.1327              1360.6430              1368.8628
 Red. masses --      1.4396                 1.7584                 2.4660
 Frc consts  --      1.5507                 1.9180                 2.7225
 IR Inten    --     18.0665               162.3102                 3.2690

                     70                     71                     72
                      A                      A                      A
 Frequencies --   1391.3729              1404.7661              1406.1781
 Red. masses --      1.4335                 1.3377                 1.4431
 Frc consts  --      1.6350                 1.5553                 1.6813
 IR Inten    --      6.3427                20.4211                25.1087

                     73                     74                     75
                      A                      A                      A
 Frequencies --   1420.3126              1439.4934              1450.8309
 Red. masses --      1.3281                 1.2889                 1.3982
 Frc consts  --      1.5786                 1.5735                 1.7341
 IR Inten    --      2.1652                22.0255                 8.0107

                     76                     77                     78
                      A                      A                      A
 Frequencies --   1488.5953              1503.4865              1505.1057
 Red. masses --      1.4991                 1.4994                 1.6334
 Frc consts  --      1.9572                 1.9969                 2.1801
 IR Inten    --     22.8193                 1.5550                 8.8327

                     79                     80                     81
                      A                      A                      A
 Frequencies --   1518.8094              1520.3424              1526.4554
 Red. masses --      1.0609                 1.0477                 1.1021
 Frc consts  --      1.4419                 1.4268                 1.5130
 IR Inten    --      3.9914                 3.5739                 4.6207

                     82                     83                     84
                      A                      A                      A
 Frequencies --   1528.7647              1537.2583              1547.6373
 Red. masses --      1.1077                 1.0703                 2.2240
 Frc consts  --      1.5253                 1.4901                 3.1385
 IR Inten    --     17.2532                 2.8992                11.4603

                     85                     86                     87
                      A                      A                      A
 Frequencies --   1554.2167              1646.4860              1666.8273
 Red. masses --      1.0896                 5.4997                 5.5858
 Frc consts  --      1.5508                 8.7843                 9.1435
 IR Inten    --      4.7267                 0.5943                 6.1809

                     88                     89                     90
                      A                      A                      A
 Frequencies --   1718.3602              2996.9937              3015.5155
 Red. masses --      6.7085                 1.0553                 1.0692
 Frc consts  --     11.6708                 5.5846                 5.7286
 IR Inten    --    454.7821                30.1499                54.5568

                     91                     92                     93
                      A                      A                      A
 Frequencies --   3016.8994              3027.8717              3042.6429
 Red. masses --      1.0694                 1.1005                 1.0706
 Frc consts  --      5.7350                 5.9447                 5.8396
 IR Inten    --     62.8037                35.4204                31.3014

                     94                     95                     96
                      A                      A                      A
 Frequencies --   3052.5407              3054.5918              3073.3756
 Red. masses --      1.0537                 1.0494                 1.0875
 Frc consts  --      5.7851                 5.7692                 6.0520
 IR Inten    --     56.2482                59.6700                 9.2352

                     97                     98                     99
                      A                      A                      A
 Frequencies --   3089.6274              3090.9876              3097.7665
 Red. masses --      1.0927                 1.1024                 1.0957
 Frc consts  --      6.1455                 6.2056                 6.1950
 IR Inten    --     42.8667                34.8384                 6.4602

                    100                    101                    102
                      A                      A                      A
 Frequencies --   3121.1640              3130.9263              3143.7680
 Red. masses --      1.1007                 1.1037                 1.0937
 Frc consts  --      6.3174                 6.3743                 6.3687
 IR Inten    --     38.2975                41.3097                 8.7793

                    103                    104                    105
                      A                      A                      A
 Frequencies --   3178.4432              3185.2738              3194.9934
 Red. masses --      1.0860                 1.0869                 1.0905
 Frc consts  --      6.4640                 6.4971                 6.5587
 IR Inten    --      6.5966                 0.0560                19.6130

                    106                    107                    108
                      A                      A                      A
 Frequencies --   3203.3862              3211.8747              3598.0781
 Red. masses --      1.0937                 1.0980                 1.0752
 Frc consts  --      6.6125                 6.6735                 8.2013
 IR Inten    --     34.2892                19.0279                25.9337

 - Thermochemistry -
 -------------------
 Temperature   298.150 Kelvin.  Pressure   1.00000 Atm.
 Atom     1 has atomic number  6 and mass  12.00000

 Molecular mass:   264.12964 amu.
 Principal axes and moments of inertia in atomic units:
                           1         2         3
     Eigenvalues --  3197.031758048.75913**********
           X            0.99993  -0.01135  -0.00289
           Y            0.01139   0.99983   0.01452
           Z            0.00273  -0.01455   0.99989
 This molecule is an asymmetric top.
 Rotational symmetry number  1.
 Warning -- assumption of classical behavior for rotation
           may cause significant error
 Rotational temperatures (Kelvin)      0.02709     0.01076     0.00833
 Rotational constants (GHZ):           0.56451     0.22423     0.17351
 Zero-point vibrational energy     854416.5 (Joules/Mol)
                                  204.21044 (Kcal/Mol)
 Warning -- explicit consideration of  27 degrees of freedom as
           vibrations may cause significant error
 Vibrational temperatures:     25.51    30.46    51.12    68.73    81.78
          (Kelvin)            102.85   117.50   154.37   204.51   277.27
                              307.85   332.83   352.60   367.44   403.87
                              432.79   484.00   544.48   600.58   622.39
                              653.05   706.14   727.36   764.67   778.80
                              865.22   880.41   901.13   914.34   980.49
                             1010.79  1030.80  1117.03  1142.69  1172.37
                             1236.16  1263.13  1270.14  1277.56  1328.99
                             1378.38  1393.13  1412.12  1432.97  1470.13
                             1471.37  1485.38  1516.23  1528.11  1562.69
                             1586.23  1598.84  1606.09  1643.10  1682.87
                             1717.87  1746.97  1749.08  1754.72  1771.50
                             1811.17  1827.90  1837.50  1880.23  1910.37
                             1930.41  1945.42  1957.66  1969.49  2001.88
                             2021.15  2023.18  2043.51  2071.11  2087.42
                             2141.76  2163.18  2165.51  2185.23  2187.43
                             2196.23  2199.55  2211.77  2226.70  2236.17
                             2368.93  2398.19  2472.34  4312.01  4338.65
                             4340.65  4356.43  4377.68  4391.93  4394.88
                             4421.90  4445.28  4447.24  4457.00  4490.66
                             4504.70  4523.18  4573.07  4582.90  4596.88
                             4608.96  4621.17  5176.83

 Zero-point correction=                           0.325430 (Hartree/Particle)
 Thermal correction to Energy=                    0.343567
 Thermal correction to Enthalpy=                  0.344511
 Thermal correction to Gibbs Free Energy=         0.275847
 Sum of electronic and zero-point Energies=          -1128.188879
 Sum of electronic and thermal Energies=             -1128.170742
 Sum of electronic and thermal Enthalpies=           -1128.169798
 Sum of electronic and thermal Free Energies=        -1128.238462

                     E (Thermal)             CV                S
                      KCal/Mol        Cal/Mol-Kelvin    Cal/Mol-Kelvin
 Total                  215.591             67.740            144.516
 Electronic               0.000              0.000              0.000
 Translational            0.889              2.981             42.613
 Rotational               0.889              2.981             33.948
 Vibrational            213.814             61.778             67.955
 Vibration     1          0.593              1.986              6.873
 Vibration     2          0.593              1.985              6.521
 Vibration     3          0.594              1.982              5.494
 Vibration     4          0.595              1.978              4.908
 Vibration     5          0.596              1.975              4.564
 Vibration     6          0.598              1.968              4.112
 Vibration     7          0.600              1.962              3.850
 Vibration     8          0.606              1.943              3.317
 Vibration     9          0.616              1.911              2.775
 Vibration    10          0.635              1.850              2.202
 Vibration    11          0.644              1.820              2.010
 Vibration    12          0.653              1.793              1.869
 Vibration    13          0.660              1.771              1.766
 Vibration    14          0.666              1.754              1.693
 Vibration    15          0.680              1.709              1.529
 Vibration    16          0.693              1.672              1.412
 Vibration    17          0.717              1.603              1.229
 Vibration    18          0.749              1.516              1.045
 Vibration    19          0.780              1.432              0.901
 Vibration    20          0.793              1.399              0.850
 Vibration    21          0.812              1.352              0.784
 Vibration    22          0.847              1.270              0.682
 Vibration    23          0.861              1.238              0.644
 Vibration    24          0.886              1.180              0.584
 Vibration    25          0.896              1.159              0.563
 Vibration    26          0.960              1.029              0.447
 Vibration    27          0.971              1.007              0.430

 Optimization completed.
    -- Stationary point found.
 Normal termination of Gaussian 16 at Fri Dec 11 22:48:51 2020.

 ----------------------------------------------------------------------
 # B3LYP/6-311++G(d,p) empiricaldispersion=gd3bj scf=xqc pop=npa geom=c
 heck
 ----------------------------------------------------------------------

 --------------------------------------
 CID_43382112_JID_8868_Energie_neutraal
 --------------------------------------
 Structure from the checkpoint file:  "JID_8868.chk"
 Charge =  0 Multiplicity = 1

 SCF Done:  E(RB3LYP) =  -1128.74231342     A.U. after   16 cycles
 Normal termination of Gaussian 16 at Fri Dec 11 22:55:45 2020.

 ----------------------------------------------------------------------
 # B3LYP/6-311++G(d,p) empiricaldispersion=gd3bj scf=xqc pop=npa geom=c
 heck
 ----------------------------------------------------------------------

 ------------------------------------
 CID_43382112_JID_8868_Energie_kation
 ------------------------------------
 Structure from the checkpoint file:  "JID_8868.chk"
 Charge =  1 Multiplicity = 2

 SCF Done:  E(UB3LYP) =  -1128.46225321     A.U. after   27 cycles
 Normal termination of Gaussian 16 at Fri Dec 11 23:11:46 2020.
 Gaussian 16:  ES64L-G16RevA.03 25-Dec-2016

 ----------------------------------------------------------------------
 # B3LYP/6-311++G(d,p) empiricaldispersion=gd3bj scf=xqc pop=npa geom=c
 heck
 ----------------------------------------------------------------------

 -----------------------------------
 CID_43382112_JID_8868_Energie_anion
 -----------------------------------
 Structure from the checkpoint file:  "JID_8868.chk"
 Charge = -1 Multiplicity = 2

                         Standard orientation:
 ---------------------------------------------------------------------
 Center     Atomic      Atomic             Coordinates (Angstroms)
 Number     Number       Type             X           Y           Z
 ---------------------------------------------------------------------
      1          6           0       -2.755212    3.703522    0.271766
      2          6           0       -1.993979    2.472554   -0.213765
      3          8           0       -2.844649    1.397719   -0.591898
      4          6           0       -3.449990    0.717534    0.494191
      5          6           0       -4.135014   -0.524170   -0.059192
      6          6           0       -3.150111   -1.505845   -0.705985
      7          7           0       -2.209641   -2.066372    0.252506
      8          6           0       -0.857070   -1.908313    0.272365
      9          7           0       -0.072176   -2.651241    0.959545
     10          6           0        1.287378   -2.148903    0.952153
     11          6           0        1.538419   -1.284248   -0.315384
     12         16           0       -0.121048   -0.538941   -0.662138
     13          6           0        2.636144   -0.262947   -0.165412
     14          6           0        2.537254    0.787621    0.758049
     15          6           0        3.583261    1.692781    0.917096
     16          6           0        4.747308    1.564538    0.154879
     17          6           0        4.854254    0.525903   -0.768682
     18          6           0        3.803061   -0.378547   -0.927692
     19          1           0       -3.481932    4.024427   -0.482081
     20          1           0       -2.058565    4.529792    0.454941
     21          1           0       -3.293073    3.509775    1.206007
     22          1           0       -1.419924    2.713006   -1.114005
     23          1           0       -1.278464    2.128909    0.548751
     24          1           0       -2.686217    0.431373    1.234989
     25          1           0       -4.187920    1.355843    1.003214
     26          1           0       -4.680136   -1.022526    0.753186
     27          1           0       -4.875075   -0.220404   -0.809892
     28          1           0       -3.700484   -2.322465   -1.190859
     29          1           0       -2.584878   -0.990879   -1.485088
     30          1           0       -2.525631   -2.829688    0.837256
     31          1           0        2.005982   -2.976127    0.974953
     32          1           0        1.468237   -1.540929    1.851431
     33          1           0        1.768991   -1.942030   -1.158899
     34          1           0        1.627917    0.898858    1.341373
     35          1           0        3.489887    2.502856    1.635188
     36          1           0        5.561975    2.272393    0.278830
     37          1           0        5.753174    0.419218   -1.369445
     38          1           0        3.888608   -1.185688   -1.651133
 ---------------------------------------------------------------------

 SCF Done:  E(UB3LYP) =  -1128.73005012     A.U. after   33 cycles
 SCF Done:  E(UB3LYP) =  -1128.73005013     a.u. after    2 cycles

 The electronic state is 2-A.
 Alpha  occ. eigenvalues --  -88.76307 -19.03449 -14.24660 -14.19395 -10.17473
 Alpha  occ. eigenvalues --  -10.12733 -10.12612 -10.12487 -10.11956 -10.11464
 Alpha  occ. eigenvalues --  -10.10526 -10.09411 -10.09325 -10.09284 -10.09166
 Alpha  occ. eigenvalues --  -10.09137 -10.08263 -10.07548  -7.84957  -5.81308
 Alpha  occ. eigenvalues --   -5.80982  -5.80355  -0.94734  -0.88330  -0.81638
 Alpha  occ. eigenvalues --   -0.77963  -0.71544  -0.70025  -0.66649  -0.66099
 Alpha  occ. eigenvalues --   -0.65571  -0.63020  -0.59534  -0.54785  -0.53273
 Alpha  occ. eigenvalues --   -0.52611  -0.50029  -0.49880  -0.48039  -0.43399
 Alpha  occ. eigenvalues --   -0.41479  -0.40993  -0.39948  -0.38940  -0.38476
 Alpha  occ. eigenvalues --   -0.37757  -0.36973  -0.35964  -0.34311  -0.34096
 Alpha  occ. eigenvalues --   -0.33799  -0.33341  -0.31585  -0.30781  -0.29964
 Alpha  occ. eigenvalues --   -0.29391  -0.29233  -0.28926  -0.27584  -0.26854
 Alpha  occ. eigenvalues --   -0.26244  -0.25844  -0.25641  -0.24215  -0.22592
 Alpha  occ. eigenvalues --   -0.18368  -0.17563  -0.17329  -0.16511  -0.15497
 Alpha  occ. eigenvalues --   -0.13087   0.03809
 Alpha virt. eigenvalues --    0.05044   0.05759   0.05863   0.06634   0.06773
 Alpha virt. eigenvalues --    0.07183   0.07492   0.08352   0.08788   0.08990
 Alpha virt. eigenvalues --    0.09283   0.09539   0.10296   0.10350   0.10966

  Beta  occ. eigenvalues --  -88.76302 -19.03444 -14.24644 -14.19391 -10.17467
  Beta  occ. eigenvalues --  -10.12730 -10.12604 -10.12474 -10.11942 -10.11460
  Beta  occ. eigenvalues --  -10.10526 -10.09400 -10.09311 -10.09270 -10.09152
  Beta  occ. eigenvalues --  -10.09129 -10.08240 -10.07525  -7.84952  -5.81301
  Beta  occ. eigenvalues --   -5.80978  -5.80352  -0.94724  -0.88308  -0.81620
  Beta  occ. eigenvalues --   -0.77943  -0.71523  -0.69995  -0.66621  -0.66071
  Beta  occ. eigenvalues --   -0.65544  -0.62997  -0.59500  -0.54758  -0.53231
  Beta  occ. eigenvalues --   -0.52576  -0.49989  -0.49842  -0.48003  -0.43356
  Beta  occ. eigenvalues --   -0.41450  -0.40955  -0.39924  -0.38921  -0.38452
  Beta  occ. eigenvalues --   -0.37731  -0.36946  -0.35939  -0.34276  -0.34067
  Beta  occ. eigenvalues --   -0.33772  -0.33318  -0.31562  -0.30756  -0.29940
  Beta  occ. eigenvalues --   -0.29364  -0.29208  -0.28902  -0.27553  -0.26827
  Beta  occ. eigenvalues --   -0.26217  -0.25816  -0.25611  -0.24195  -0.22567
  Beta  occ. eigenvalues --   -0.18355  -0.17545  -0.17311  -0.16494  -0.15482
  Beta  occ. eigenvalues --   -0.13069
  Beta virt. eigenvalues --    0.05675   0.05779   0.06144   0.06482   0.06755
  Beta virt. eigenvalues --    0.07271   0.07587   0.07894   0.08716   0.09132
  Beta virt. eigenvalues --    0.09158   0.09319   0.09760   0.10404   0.10539

 Mulliken charges and spin densities:
               1          2
     1  C    0.203435  -0.773535
     2  C   -0.366915   0.379185
     3  O   -0.063000   0.009238
     4  C   -0.626355   0.350600
     5  C    1.116605  -1.674354
     6  C   -0.145962  -0.034794
     7  N   -0.185901   0.134156
     8  C   -0.770457  -0.101357
     9  N   -0.048443   0.034221
    10  C   -0.270528  -0.255063
    11  C    0.590571  -0.787883
    12  S    0.483845  -0.152034
    13  C    1.096486   0.080271
    14  C   -0.534851  -0.157169
    15  C   -0.233390   0.100950
    16  C    1.117472  -1.453505
    17  C    0.419587  -0.783026
    18  C   -1.396671   1.245221
    19  H    0.064707   0.082909
    20  H   -0.154285   0.293488
    21  H   -0.221575   0.370122
    22  H   -0.022397   0.189157
    23  H    0.247994  -0.156338
    24  H   -0.055386   0.234156
    25  H   -0.067968   0.208035
    26  H   -0.322535   0.493126
    27  H    0.094218   0.067008
    28  H   -0.442758   0.642018
    29  H    0.281023  -0.113443
    30  H   -0.000031   0.300111
    31  H    0.131064   0.049878
    32  H    0.104968   0.057422
    33  H    0.190981   0.100487
    34  H    0.170514  -0.035499
    35  H   -0.460808   0.648759
    36  H   -0.350171   0.511049
    37  H   -0.479504   0.656812
    38  H   -0.093578   0.239618
 Sum of Mulliken charges =  -1.00000   1.00000

 Dipole moment (field-independent basis, Debye):
    X=             -0.3122    Y=             -1.4153    Z=             -1.3542  Tot=              1.9835
 Quadrupole moment (field-independent basis, Debye-Ang):
   XX=           -226.9119   YY=           -176.8766   ZZ=           -149.3781
   XY=            -16.6622   XZ=              6.0897   YZ=             -0.1847

 Summary of Natural Population Analysis:

                                       Natural Population
                Natural  -----------------------------------------------
    Atom  No    Charge         Core      Valence    Rydberg      Total
 -----------------------------------------------------------------------
      C    1   -0.29996      0.99967     2.29651    0.00379     3.29996
      C    2   -0.00986      0.99960     1.99815    0.01211     3.00986
      O    3   -0.30486      0.99988     3.29602    0.00895     4.30486
      C    4   -0.01315      0.99957     2.00081    0.01277     3.01315
      C    5   -0.20066      0.99962     2.19109    0.00995     3.20066
      C    6   -0.08974      0.99960     2.07845    0.01168     3.08974
      N    7   -0.31953      0.99964     2.80705    0.01284     3.81953
      C    8    0.16661      0.99955     1.81294    0.02089     2.83339
      N    9   -0.29095      0.99963     2.77912    0.01220     3.79095
      C   10   -0.08823      0.99959     2.07769    0.01094     3.08823
      C   11   -0.16612      0.99953     2.15437    0.01223     3.16612
      S   12    0.09725      4.99955     2.88689    0.01631     7.90275
      C   13   -0.02986      0.99948     2.01824    0.01215     3.02986
      C   14   -0.09853      0.99951     2.08854    0.01048     3.09853
      C   15   -0.09701      0.99957     2.08672    0.01072     3.09701
      C   16   -0.10109      0.99956     2.09158    0.00995     3.10109
      C   17   -0.09907      0.99956     2.08903    0.01047     3.09907
      C   18   -0.09716      0.99951     2.08736    0.01028     3.09716
      H   19    0.09825      0.00000     0.40059    0.00116     0.40175
      H   20    0.10125      0.00000     0.39763    0.00112     0.39875
      H   21    0.09770      0.00000     0.40101    0.00130     0.40230
      H   22    0.08856      0.00000     0.41025    0.00119     0.41144
      H   23    0.08157      0.00000     0.41673    0.00170     0.41843
      H   24    0.08218      0.00000     0.41602    0.00180     0.41782
      H   25    0.08268      0.00000     0.41587    0.00146     0.41732
      H   26    0.10109      0.00000     0.39693    0.00198     0.39891
      H   27    0.10067      0.00000     0.39808    0.00125     0.39933
      H   28    0.09604      0.00000     0.40270    0.00126     0.40396
      H   29    0.10768      0.00000     0.39032    0.00201     0.39232
      H   30    0.19678      0.00000     0.29927    0.00395     0.30322
      H   31    0.09699      0.00000     0.40160    0.00140     0.40301
      H   32    0.09219      0.00000     0.40641    0.00140     0.40781
      H   33    0.10187      0.00000     0.39625    0.00188     0.39813
      H   34    0.10653      0.00000     0.39195    0.00152     0.39347
      H   35    0.10306      0.00000     0.39574    0.00120     0.39694
      H   36    0.10326      0.00000     0.39524    0.00150     0.39674
      H   37    0.10283      0.00000     0.39581    0.00136     0.39717
      H   38    0.10072      0.00000     0.39814    0.00114     0.39928
 =======================================================================
   * Total *    0.00000     21.99263    48.76710    0.24027    71.00000

 Normal termination of Gaussian 16 at Fri Dec 11 23:47:10 2020.
