 Gaussian 16, Revision A.03,

 -----------------------------------------------------------
 # opt freq B3LYP/6-31G(d) empiricaldispersion=gd3bj scf=xqc
 -----------------------------------------------------------

 ------------------------------
 CID_83856608_JID_1562_neutraal
 ------------------------------
 Symbolic Z-matrix:
 Charge =  0 Multiplicity = 1

 SCF Done:  E(RB3LYP) =  -533.906681799     A.U. after   15 cycles
 SCF Done:  E(RB3LYP) =  -533.912613711     A.U. after   13 cycles
 SCF Done:  E(RB3LYP) =  -533.913197082     A.U. after   12 cycles
 SCF Done:  E(RB3LYP) =  -533.913392959     A.U. after   12 cycles
 SCF Done:  E(RB3LYP) =  -533.913490230     A.U. after   12 cycles
 SCF Done:  E(RB3LYP) =  -533.913513192     A.U. after   10 cycles
 SCF Done:  E(RB3LYP) =  -533.913513862     A.U. after    9 cycles
 SCF Done:  E(RB3LYP) =  -533.913518441     A.U. after    9 cycles
 SCF Done:  E(RB3LYP) =  -533.913518949     A.U. after    8 cycles
 SCF Done:  E(RB3LYP) =  -533.913519160     A.U. after    8 cycles
 SCF Done:  E(RB3LYP) =  -533.913519213     A.U. after    6 cycles
 Optimization completed.
    -- Stationary point found.
 Normal termination of Gaussian 16 at Tue Dec  8 20:23:51 2020.

 --------------------------------------------------------------------
 #N Geom=AllCheck Guess=TCheck SCRF=Check GenChk RB3LYP/6-31G(d) Freq
 --------------------------------------------------------------------

 Structure from the checkpoint file:  "JID_1562.chk"
 ------------------------------
 CID_83856608_JID_1562_neutraal
 ------------------------------
 Charge =  0 Multiplicity = 1

 SCF Done:  E(RB3LYP) =  -533.913519213     A.U. after    1 cycles

  Exact polarizability: 108.344   2.342  84.863  -1.229   4.125  71.978
 Approx polarizability: 150.520   0.332 130.477  -4.440  13.378 108.284

                      1                      2                      3
                      A                      A                      A
 Frequencies --     44.3809                90.8135               135.1175
 Red. masses --      4.9116                 4.3938                 2.6193
 Frc consts  --      0.0057                 0.0213                 0.0282
 IR Inten    --      1.6638                 1.5801                 1.7021

                      4                      5                      6
                      A                      A                      A
 Frequencies --    188.6032               194.9174               234.0784
 Red. masses --      3.9962                 2.8796                 1.0543
 Frc consts  --      0.0838                 0.0645                 0.0340
 IR Inten    --      3.7016                 3.3382                15.0724

                      7                      8                      9
                      A                      A                      A
 Frequencies --    248.2857               275.7815               301.7937
 Red. masses --      1.0889                 2.7752                 1.2824
 Frc consts  --      0.0396                 0.1244                 0.0688
 IR Inten    --     18.9943                 1.7945                15.1588

                     10                     11                     12
                      A                      A                      A
 Frequencies --    323.7842               339.3733               357.8741
 Red. masses --      2.1512                 2.8589                 3.0987
 Frc consts  --      0.1329                 0.1940                 0.2338
 IR Inten    --      2.1709                 0.8229                 1.7564

                     13                     14                     15
                      A                      A                      A
 Frequencies --    416.0882               481.6857               523.1396
 Red. masses --      4.0956                 3.4317                 2.8377
 Frc consts  --      0.4178                 0.4691                 0.4576
 IR Inten    --      1.0510                 3.7893                 4.9397

                     16                     17                     18
                      A                      A                      A
 Frequencies --    551.1334               563.2799               597.0395
 Red. masses --      3.2961                 3.6124                 3.2980
 Frc consts  --      0.5899                 0.6753                 0.6926
 IR Inten    --      3.7137                 7.2310                11.2529

                     19                     20                     21
                      A                      A                      A
 Frequencies --    716.3903               820.7693               864.8842
 Red. masses --      8.2576                 2.6616                 3.4968
 Frc consts  --      2.4969                 1.0564                 1.5411
 IR Inten    --     10.2086                11.1065                 1.7578

                     22                     23                     24
                      A                      A                      A
 Frequencies --    867.9772               904.1699               917.3891
 Red. masses --      1.3989                 7.5336                 5.0163
 Frc consts  --      0.6210                 3.6287                 2.4874
 IR Inten    --     81.6118               151.2543                10.8740

                     25                     26                     27
                      A                      A                      A
 Frequencies --    933.1884               964.9842               970.0596
 Red. masses --      2.2994                 1.4512                 2.1461
 Frc consts  --      1.1798                 0.7962                 1.1898
 IR Inten    --     11.1826                 1.5969                18.3158

                     28                     29                     30
                      A                      A                      A
 Frequencies --   1011.9996              1036.2399              1094.1773
 Red. masses --      1.7780                 1.3061                 2.4706
 Frc consts  --      1.0728                 0.8263                 1.7427
 IR Inten    --     20.0641                 1.6634                10.1907

                     31                     32                     33
                      A                      A                      A
 Frequencies --   1124.1046              1141.7419              1156.1693
 Red. masses --      2.0017                 1.5715                 1.3172
 Frc consts  --      1.4902                 1.2070                 1.0374
 IR Inten    --      8.2028                20.0307                 4.1865

                     34                     35                     36
                      A                      A                      A
 Frequencies --   1184.8935              1239.2944              1252.5499
 Red. masses --      5.1674                 2.4517                 2.1698
 Frc consts  --      4.2745                 2.2185                 2.0057
 IR Inten    --     85.8014                 3.2556                 1.9194

                     37                     38                     39
                      A                      A                      A
 Frequencies --   1286.3224              1349.7649              1398.7923
 Red. masses --      2.0057                 1.5394                 2.2080
 Frc consts  --      1.9553                 1.6524                 2.5454
 IR Inten    --     13.1257                23.1972                 3.5547

                     40                     41                     42
                      A                      A                      A
 Frequencies --   1424.0998              1431.2704              1456.7565
 Red. masses --      1.2488                 1.3429                 1.2521
 Frc consts  --      1.4922                 1.6208                 1.5655
 IR Inten    --      7.6706                 1.8314                 8.9365

                     43                     44                     45
                      A                      A                      A
 Frequencies --   1462.8293              1514.2534              1520.2287
 Red. masses --      1.1096                 1.0563                 1.0480
 Frc consts  --      1.3990                 1.4271                 1.4271
 IR Inten    --     21.3868                 1.4555                 1.2581

                     46                     47                     48
                      A                      A                      A
 Frequencies --   1526.2986              1533.0406              1548.7451
 Red. masses --      1.0718                 1.0529                 1.0688
 Frc consts  --      1.4712                 1.4580                 1.5105
 IR Inten    --      2.9689                 4.5679                13.8235

                     49                     50                     51
                      A                      A                      A
 Frequencies --   1669.5140              1700.0225              1898.3561
 Red. masses --     10.0915                 1.0910                13.0073
 Frc consts  --     16.5724                 1.8578                27.6181
 IR Inten    --      5.9933                32.9332               421.0528

                     52                     53                     54
                      A                      A                      A
 Frequencies --   2975.8335              3051.3826              3063.3738
 Red. masses --      1.0718                 1.0355                 1.0368
 Frc consts  --      5.5923                 5.6805                 5.7325
 IR Inten    --     69.3891                18.0739                23.2765

                     55                     56                     57
                      A                      A                      A
 Frequencies --   3083.1282              3094.2708              3118.6140
 Red. masses --      1.0616                 1.0914                 1.1019
 Frc consts  --      5.9454                 6.1570                 6.3144
 IR Inten    --      7.9524                17.6367                21.5647

                     58                     59                     60
                      A                      A                      A
 Frequencies --   3120.3232              3128.4736              3132.8952
 Red. masses --      1.1011                 1.1022                 1.1012
 Frc consts  --      6.3165                 6.3558                 6.3680
 IR Inten    --      5.0977                23.3008                31.4450

                     61                     62                     63
                      A                      A                      A
 Frequencies --   3146.1569              3487.2870              3568.9930
 Red. masses --      1.1025                 1.0502                 1.0928
 Frc consts  --      6.4299                 7.5248                 8.2010
 IR Inten    --     16.3778                 0.2949                 0.6915

 - Thermochemistry -
 -------------------
 Temperature   298.150 Kelvin.  Pressure   1.00000 Atm.
 Atom     1 has atomic number  6 and mass  12.00000

 Molecular mass:   156.08988 amu.
 Principal axes and moments of inertia in atomic units:
                           1         2         3
     Eigenvalues --   962.101302399.366302791.66745
           X            0.99998   0.00576   0.00012
           Y           -0.00575   0.99990  -0.01255
           Z           -0.00019   0.01255   0.99992
 This molecule is an asymmetric top.
 Rotational symmetry number  1.
 Warning -- assumption of classical behavior for rotation
           may cause significant error
 Rotational temperatures (Kelvin)      0.09003     0.03610     0.03103
 Rotational constants (GHZ):           1.87583     0.75217     0.64647
 Zero-point vibrational energy     506972.5 (Joules/Mol)
                                  121.16933 (Kcal/Mol)
 Warning -- explicit consideration of  18 degrees of freedom as
           vibrations may cause significant error
 Vibrational temperatures:     63.85   130.66   194.40   271.36   280.44
          (Kelvin)            336.79   357.23   396.79   434.21   465.85
                              488.28   514.90   598.66   693.04   752.68
                              792.96   810.43   859.01  1030.73  1180.90
                             1244.38  1248.83  1300.90  1319.92  1342.65
                             1388.40  1395.70  1456.04  1490.92  1574.28
                             1617.34  1642.71  1663.47  1704.80  1783.07
                             1802.14  1850.73  1942.01  2012.55  2048.96
                             2059.28  2095.95  2104.69  2178.67  2187.27
                             2196.00  2205.70  2228.30  2402.06  2445.95
                             2731.31  4281.56  4390.26  4407.51  4435.93
                             4451.97  4486.99  4489.45  4501.18  4507.54
                             4526.62  5017.43  5134.98

 Zero-point correction=                           0.193096 (Hartree/Particle)
 Thermal correction to Energy=                    0.204419
 Thermal correction to Enthalpy=                  0.205363
 Thermal correction to Gibbs Free Energy=         0.156282
 Sum of electronic and zero-point Energies=           -533.720424
 Sum of electronic and thermal Energies=              -533.709100
 Sum of electronic and thermal Enthalpies=            -533.708156
 Sum of electronic and thermal Free Energies=         -533.757237

                     E (Thermal)             CV                S
                      KCal/Mol        Cal/Mol-Kelvin    Cal/Mol-Kelvin
 Total                  128.275             42.706            103.301
 Electronic               0.000              0.000              0.000
 Translational            0.889              2.981             41.045
 Rotational               0.889              2.981             30.245
 Vibrational            126.498             36.745             32.011
 Vibration     1          0.595              1.980              5.053
 Vibration     2          0.602              1.956              3.642
 Vibration     3          0.613              1.918              2.872
 Vibration     4          0.633              1.856              2.242
 Vibration     5          0.636              1.847              2.181
 Vibration     6          0.654              1.789              1.847
 Vibration     7          0.662              1.766              1.743
 Vibration     8          0.677              1.718              1.560
 Vibration     9          0.694              1.670              1.407
 Vibration    10          0.708              1.628              1.291
 Vibration    11          0.719              1.597              1.215
 Vibration    12          0.733              1.559              1.131
 Vibration    13          0.779              1.435              0.905
 Vibration    14          0.838              1.291              0.706
 Vibration    15          0.878              1.199              0.603
 Vibration    16          0.906              1.137              0.542
 Vibration    17          0.919              1.111              0.517
 Vibration    18          0.955              1.038              0.455

 Optimization completed.
    -- Stationary point found.
 Normal termination of Gaussian 16 at Tue Dec  8 20:29:00 2020.

 ----------------------------------------------------------------------
 # B3LYP/6-311++G(d,p) empiricaldispersion=gd3bj scf=xqc pop=npa geom=c
 heck
 ----------------------------------------------------------------------

 --------------------------------------
 CID_83856608_JID_1562_Energie_neutraal
 --------------------------------------
 Structure from the checkpoint file:  "JID_1562.chk"
 Charge =  0 Multiplicity = 1

 SCF Done:  E(RB3LYP) =  -534.073497451     A.U. after   15 cycles
 Normal termination of Gaussian 16 at Tue Dec  8 20:32:20 2020.

 ----------------------------------------------------------------------
 # B3LYP/6-311++G(d,p) empiricaldispersion=gd3bj scf=xqc pop=npa geom=c
 heck
 ----------------------------------------------------------------------

 ------------------------------------
 CID_83856608_JID_1562_Energie_kation
 ------------------------------------
 Structure from the checkpoint file:  "JID_1562.chk"
 Charge =  1 Multiplicity = 2

 SCF Done:  E(UB3LYP) =  -533.736224019     A.U. after   25 cycles
 Normal termination of Gaussian 16 at Tue Dec  8 20:38:43 2020.
 Gaussian 16:  ES64L-G16RevA.03 25-Dec-2016

 ----------------------------------------------------------------------
 # B3LYP/6-311++G(d,p) empiricaldispersion=gd3bj scf=xqc pop=npa geom=c
 heck
 ----------------------------------------------------------------------

 -----------------------------------
 CID_83856608_JID_1562_Energie_anion
 -----------------------------------
 Structure from the checkpoint file:  "JID_1562.chk"
 Charge = -1 Multiplicity = 2

                         Standard orientation:
 ---------------------------------------------------------------------
 Center     Atomic      Atomic             Coordinates (Angstroms)
 Number     Number       Type             X           Y           Z
 ---------------------------------------------------------------------
      1          6           0       -1.804930    0.033896    1.576772
      2          6           0       -1.373122   -0.376873    0.155762
      3          6           0       -1.906692   -1.782835   -0.162434
      4          6           0       -1.967446    0.610839   -0.887285
      5          7           0       -1.578222    2.005098   -0.651403
      6          6           0        0.135974   -0.344044    0.055363
      7          7           0        0.778437   -1.305395   -0.506098
      8          8           0        2.175526   -0.987289   -0.506079
      9          6           0        2.387360    0.240722    0.086615
     10          8           0        3.483297    0.719040    0.199159
     11          6           0        1.030491    0.763338    0.511805
     12          1           0       -2.898536    0.025884    1.651771
     13          1           0       -1.450917    1.036094    1.838082
     14          1           0       -1.413145   -0.667199    2.321406
     15          1           0       -2.999129   -1.792443   -0.082960
     16          1           0       -1.625805   -2.096974   -1.171260
     17          1           0       -1.502380   -2.520241    0.536734
     18          1           0       -1.598360    0.320995   -1.876770
     19          1           0       -3.060225    0.457364   -0.893086
     20          1           0       -1.750907    2.556636   -1.488544
     21          1           0       -2.155049    2.412835    0.081204
     22          1           0        1.003077    0.934046    1.593487
     23          1           0        0.769486    1.710813    0.028226
 ---------------------------------------------------------------------

 SCF Done:  E(UB3LYP) =  -534.068395258     A.U. after   33 cycles
 SCF Done:  E(UB3LYP) =  -534.068395258     a.u. after    1 cycles

 The electronic state is 2-A.
 Alpha  occ. eigenvalues --  -19.08972 -19.01914 -14.26550 -14.18898 -10.20444
 Alpha  occ. eigenvalues --  -10.12303 -10.09980 -10.09453 -10.09341 -10.06287
 Alpha  occ. eigenvalues --  -10.06245  -1.03068  -0.94870  -0.79933  -0.77543
 Alpha  occ. eigenvalues --   -0.69923  -0.67638  -0.59305  -0.56519  -0.53211
 Alpha  occ. eigenvalues --   -0.49556  -0.42567  -0.40367  -0.39863  -0.38951
 Alpha  occ. eigenvalues --   -0.36972  -0.34758  -0.34500  -0.33484  -0.31328
 Alpha  occ. eigenvalues --   -0.30066  -0.29871  -0.28652  -0.27913  -0.27223
 Alpha  occ. eigenvalues --   -0.25305  -0.24408  -0.23641  -0.22732  -0.17894
 Alpha  occ. eigenvalues --   -0.17377  -0.14198   0.04219
 Alpha virt. eigenvalues --    0.06559   0.07611   0.08028   0.08845   0.10578
 Alpha virt. eigenvalues --    0.10609   0.10712   0.11468   0.11688   0.12265
 Alpha virt. eigenvalues --    0.14001   0.14404   0.14454   0.14971   0.15423

  Beta  occ. eigenvalues --  -19.08980 -19.01891 -14.26507 -14.18829 -10.20405
  Beta  occ. eigenvalues --  -10.12257 -10.09982 -10.09442 -10.09300 -10.06238
  Beta  occ. eigenvalues --  -10.06232  -1.03035  -0.94826  -0.79862  -0.77444
  Beta  occ. eigenvalues --   -0.69864  -0.67564  -0.59230  -0.56405  -0.53133
  Beta  occ. eigenvalues --   -0.49473  -0.42492  -0.40299  -0.39731  -0.38877
  Beta  occ. eigenvalues --   -0.36883  -0.34707  -0.34420  -0.33397  -0.31249
  Beta  occ. eigenvalues --   -0.30003  -0.29824  -0.28617  -0.27835  -0.27085
  Beta  occ. eigenvalues --   -0.25253  -0.24355  -0.23588  -0.22677  -0.17812
  Beta  occ. eigenvalues --   -0.17283  -0.14118
  Beta virt. eigenvalues --    0.07043   0.07186   0.08494   0.08795   0.09711
  Beta virt. eigenvalues --    0.10904   0.11000   0.11248   0.11822   0.12253
  Beta virt. eigenvalues --    0.12716   0.14318   0.14684   0.14760   0.15270

 Mulliken charges and spin densities:
               1          2
     1  C    0.829820  -1.511488
     2  C   -2.538431   3.803289
     3  C    0.166465  -0.779350
     4  C    1.598155  -2.207606
     5  N   -0.458195   0.052064
     6  C    1.258916  -1.451704
     7  N   -0.445583   0.057082
     8  O    0.203621  -0.015529
     9  C    0.336283  -0.438928
    10  O   -0.326835   0.024332
    11  C    0.294301  -0.762231
    12  H   -0.542328   0.723287
    13  H   -0.196324   0.334224
    14  H   -0.108893   0.265806
    15  H   -0.076282   0.228075
    16  H    0.100289   0.057298
    17  H    0.107982   0.057710
    18  H   -0.208227   0.383036
    19  H   -0.560436   0.743480
    20  H   -0.263349   0.522086
    21  H   -0.229562   0.467393
    22  H   -0.234033   0.447791
    23  H    0.292645  -0.000118
 Sum of Mulliken charges =  -1.00000   1.00000

 Dipole moment (field-independent basis, Debye):
    X=              3.2273    Y=             -3.9645    Z=             -0.0448  Tot=              5.1122
 Quadrupole moment (field-independent basis, Debye-Ang):
   XX=           -136.3940   YY=           -103.9595   ZZ=            -96.5172
   XY=             11.7454   XZ=              0.4422   YZ=             -0.6874

 Summary of Natural Population Analysis:

                                       Natural Population
                Natural  -----------------------------------------------
    Atom  No    Charge         Core      Valence    Rydberg      Total
 -----------------------------------------------------------------------
      C    1   -0.28567      0.99963     2.27822    0.00782     3.28567
      C    2   -0.06814      0.99952     2.05425    0.01437     3.06814
      C    3   -0.28194      0.99963     2.27501    0.00729     3.28194
      C    4   -0.07941      0.99958     2.06653    0.01331     3.07941
      N    5   -0.43230      0.99977     2.92080    0.01173     3.93230
      C    6    0.14678      0.99956     1.83565    0.01800     2.85322
      N    7   -0.07334      0.99961     2.56234    0.01139     3.57334
      O    8   -0.20807      0.99987     3.20020    0.00799     4.20807
      C    9    0.40538      0.99972     1.56882    0.02608     2.59462
      O   10   -0.29033      0.99986     3.28440    0.00607     4.29033
      C   11   -0.28349      0.99953     2.27623    0.00773     3.28349
      H   12    0.10606      0.00000     0.39235    0.00159     0.39394
      H   13    0.10595      0.00000     0.39225    0.00180     0.39405
      H   14    0.10068      0.00000     0.39805    0.00126     0.39932
      H   15    0.10123      0.00000     0.39784    0.00093     0.39877
      H   16    0.10591      0.00000     0.39298    0.00111     0.39409
      H   17    0.10279      0.00000     0.39631    0.00090     0.39721
      H   18    0.09426      0.00000     0.40436    0.00138     0.40574
      H   19    0.08987      0.00000     0.40611    0.00402     0.41013
      H   20    0.18306      0.00000     0.31342    0.00352     0.31694
      H   21    0.18255      0.00000     0.31005    0.00740     0.31745
      H   22    0.13115      0.00000     0.36719    0.00166     0.36885
      H   23    0.14701      0.00000     0.35133    0.00166     0.35299
 =======================================================================
   * Total *    0.00000     10.99629    30.84470    0.15901    42.00000

 Normal termination of Gaussian 16 at Tue Dec  8 20:53:03 2020.
