 Gaussian 16, Revision A.03,

 -----------------------------------------------------------
 # opt freq B3LYP/6-31G(d) empiricaldispersion=gd3bj scf=xqc
 -----------------------------------------------------------

 -------------------------------
 CID_113943109_JID_8369_neutraal
 -------------------------------
 Symbolic Z-matrix:
 Charge =  0 Multiplicity = 1

 SCF Done:  E(RB3LYP) =  -790.736015307     A.U. after   15 cycles
 SCF Done:  E(RB3LYP) =  -790.620838441     A.U. after   14 cycles
 SCF Done:  E(RB3LYP) =  -790.737355079     A.U. after   12 cycles
 SCF Done:  E(RB3LYP) =  -790.739000499     A.U. after    9 cycles
 SCF Done:  E(RB3LYP) =  -790.740050132     A.U. after   11 cycles
 SCF Done:  E(RB3LYP) =  -790.739582891     A.U. after   14 cycles
 SCF Done:  E(RB3LYP) =  -790.740673214     A.U. after   13 cycles
 SCF Done:  E(RB3LYP) =  -790.740952772     A.U. after   11 cycles
 SCF Done:  E(RB3LYP) =  -790.741147258     A.U. after   12 cycles
 SCF Done:  E(RB3LYP) =  -790.741414676     A.U. after   12 cycles
 SCF Done:  E(RB3LYP) =  -790.745234602     A.U. after    8 cycles
 SCF Done:  E(RB3LYP) =  -790.745234731     A.U. after    7 cycles
 SCF Done:  E(RB3LYP) =  -790.745234813     A.U. after    7 cycles
 SCF Done:  E(RB3LYP) =  -790.745234915     A.U. after    8 cycles
 Optimization completed.
    -- Stationary point found.
 Normal termination of Gaussian 16 at Fri Dec 11 21:21:19 2020.

 --------------------------------------------------------------------
 #N Geom=AllCheck Guess=TCheck SCRF=Check GenChk RB3LYP/6-31G(d) Freq
 --------------------------------------------------------------------

 Structure from the checkpoint file:  "JID_8369.chk"
 -------------------------------
 CID_113943109_JID_8369_neutraal
 -------------------------------
 Charge =  0 Multiplicity = 1

 SCF Done:  E(RB3LYP) =  -790.745234915     A.U. after    1 cycles

  Exact polarizability: 187.934 -10.230 155.984 -11.430 -13.358 138.735
 Approx polarizability: 271.931 -21.233 220.120 -14.528 -31.178 236.183

                      1                      2                      3
                      A                      A                      A
 Frequencies --     22.5485                35.6262                43.6499
 Red. masses --      3.9970                 4.8508                 4.4840
 Frc consts  --      0.0012                 0.0036                 0.0050
 IR Inten    --      0.0719                 0.1306                 1.4366

                      4                      5                      6
                      A                      A                      A
 Frequencies --     50.3134                70.7540                79.6390
 Red. masses --      3.9153                 3.9338                 3.7958
 Frc consts  --      0.0058                 0.0116                 0.0142
 IR Inten    --      1.0169                 0.6684                 0.8482

                      7                      8                      9
                      A                      A                      A
 Frequencies --     86.4760               103.7855               126.1909
 Red. masses --      5.1457                 3.3904                 3.7461
 Frc consts  --      0.0227                 0.0215                 0.0351
 IR Inten    --      0.8062                 0.8439                 0.3896

                     10                     11                     12
                      A                      A                      A
 Frequencies --    153.2241               237.6874               245.3638
 Red. masses --      4.2066                 2.2189                 2.5536
 Frc consts  --      0.0582                 0.0739                 0.0906
 IR Inten    --      2.3218                 9.3051                 6.0377

                     13                     14                     15
                      A                      A                      A
 Frequencies --    252.4437               270.1839               282.3348
 Red. masses --      2.5350                 2.2059                 1.3284
 Frc consts  --      0.0952                 0.0949                 0.0624
 IR Inten    --     15.0177                 0.3798                25.7255

                     16                     17                     18
                      A                      A                      A
 Frequencies --    308.6375               315.4119               344.7789
 Red. masses --      2.5101                 1.3956                 2.4489
 Frc consts  --      0.1409                 0.0818                 0.1715
 IR Inten    --      3.6748                44.2323                 0.3267

                     19                     20                     21
                      A                      A                      A
 Frequencies --    363.7374               408.6438               418.1853
 Red. masses --      2.0872                 2.7767                 3.0092
 Frc consts  --      0.1627                 0.2732                 0.3101
 IR Inten    --      1.1368                 2.0532                 0.7991

                     22                     23                     24
                      A                      A                      A
 Frequencies --    419.0365               430.2946               499.5192
 Red. masses --      2.8735                 2.6986                 3.2559
 Frc consts  --      0.2973                 0.2944                 0.4787
 IR Inten    --      0.7398                 1.7360                 0.6265

                     25                     26                     27
                      A                      A                      A
 Frequencies --    522.1771               551.3365               578.1441
 Red. masses --      1.6973                 3.4400                 3.1463
 Frc consts  --      0.2727                 0.6161                 0.6196
 IR Inten    --     27.6019                11.2775                 3.5664

                     28                     29                     30
                      A                      A                      A
 Frequencies --    612.0104               637.5736               641.1538
 Red. masses --      2.5122                 5.8143                 2.9160
 Frc consts  --      0.5544                 1.3925                 0.7063
 IR Inten    --      1.3750                 2.3356                11.8236

                     31                     32                     33
                      A                      A                      A
 Frequencies --    647.2074               718.5332               750.7271
 Red. masses --      1.6040                 2.1336                 1.6631
 Frc consts  --      0.3959                 0.6490                 0.5523
 IR Inten    --     78.9888                28.2462                 2.6885

                     34                     35                     36
                      A                      A                      A
 Frequencies --    757.7649               771.2658               808.6437
 Red. masses --      1.5643                 2.2754                 2.9100
 Frc consts  --      0.5292                 0.7975                 1.1211
 IR Inten    --      9.1476                36.9340                 3.3017

                     37                     38                     39
                      A                      A                      A
 Frequencies --    820.4173               858.3430               869.4863
 Red. masses --      2.3370                 2.1466                 1.2513
 Frc consts  --      0.9268                 0.9318                 0.5574
 IR Inten    --     20.4589                 6.4258                 1.8901

                     40                     41                     42
                      A                      A                      A
 Frequencies --    877.5186               900.1415               935.7732
 Red. masses --      1.8597                 2.2647                 1.5161
 Frc consts  --      0.8437                 1.0811                 0.7822
 IR Inten    --      4.2302                 1.4469                 1.8761

                     43                     44                     45
                      A                      A                      A
 Frequencies --    949.4532               977.9363               995.6208
 Red. masses --      2.1760                 1.3496                 1.2799
 Frc consts  --      1.1557                 0.7604                 0.7475
 IR Inten    --      9.3956                 0.1966                 2.0704

                     46                     47                     48
                      A                      A                      A
 Frequencies --    999.0004              1020.3250              1022.3683
 Red. masses --      1.7716                 2.3008                 4.8755
 Frc consts  --      1.0417                 1.4113                 3.0025
 IR Inten    --      1.4831                 1.0732                 0.4447

                     49                     50                     51
                      A                      A                      A
 Frequencies --   1025.8994              1032.5902              1044.3363
 Red. masses --      2.4898                 1.8964                 1.6061
 Frc consts  --      1.5439                 1.1913                 1.0321
 IR Inten    --     11.0714                16.5974                 2.1927

                     52                     53                     54
                      A                      A                      A
 Frequencies --   1060.5677              1088.9615              1103.4848
 Red. masses --      2.1551                 2.1797                 1.8240
 Frc consts  --      1.4282                 1.5229                 1.3086
 IR Inten    --      1.3856                29.1934                14.6488

                     55                     56                     57
                      A                      A                      A
 Frequencies --   1114.5335              1119.9765              1143.1469
 Red. masses --      1.7931                 1.8709                 2.4630
 Frc consts  --      1.3123                 1.3827                 1.8963
 IR Inten    --     23.8147                 2.4534                13.1557

                     58                     59                     60
                      A                      A                      A
 Frequencies --   1161.8111              1192.7270              1197.5515
 Red. masses --      2.1311                 1.1072                 1.2225
 Frc consts  --      1.6948                 0.9280                 1.0330
 IR Inten    --     38.1211                 0.8162                14.0063

                     61                     62                     63
                      A                      A                      A
 Frequencies --   1215.5821              1217.7854              1235.6258
 Red. masses --      1.1434                 1.3614                 1.4154
 Frc consts  --      0.9955                 1.1895                 1.2732
 IR Inten    --      0.4085                 0.9716                24.1901

                     64                     65                     66
                      A                      A                      A
 Frequencies --   1241.9361              1268.3804              1305.0561
 Red. masses --      2.1025                 1.2350                 1.4211
 Frc consts  --      1.9107                 1.1706                 1.4261
 IR Inten    --      0.1980                 4.8848                21.3466

                     67                     68                     69
                      A                      A                      A
 Frequencies --   1326.1939              1328.9504              1335.4024
 Red. masses --      1.4783                 1.3794                 1.2407
 Frc consts  --      1.5319                 1.4353                 1.3036
 IR Inten    --     93.0542                 1.0755                 1.2575

                     70                     71                     72
                      A                      A                      A
 Frequencies --   1354.8851              1362.7064              1368.4807
 Red. masses --      2.0158                 1.4415                 1.7184
 Frc consts  --      2.1802                 1.5771                 1.8961
 IR Inten    --      5.5310                 8.5936                 2.9616

                     73                     74                     75
                      A                      A                      A
 Frequencies --   1376.8713              1384.2614              1403.7780
 Red. masses --      1.4235                 1.3468                 1.4054
 Frc consts  --      1.5900                 1.5205                 1.6317
 IR Inten    --      7.8755                14.9361                 8.6875

                     76                     77                     78
                      A                      A                      A
 Frequencies --   1406.8048              1420.3761              1431.7854
 Red. masses --      1.3030                 1.3541                 1.2004
 Frc consts  --      1.5193                 1.6096                 1.4499
 IR Inten    --      2.2724                 1.2977                 7.5656

                     79                     80                     81
                      A                      A                      A
 Frequencies --   1447.3277              1449.6232              1496.5697
 Red. masses --      1.7084                 1.3533                 1.1562
 Frc consts  --      2.1085                 1.6755                 1.5257
 IR Inten    --     21.3201                49.4239                 6.2660

                     82                     83                     84
                      A                      A                      A
 Frequencies --   1501.3052              1508.8960              1511.7782
 Red. masses --      1.9417                 1.3270                 1.4970
 Frc consts  --      2.5786                 1.7800                 2.0158
 IR Inten    --      3.3166                19.1665                53.1067

                     85                     86                     87
                      A                      A                      A
 Frequencies --   1518.2722              1527.0292              1527.2361
 Red. masses --      1.0568                 1.0764                 1.0629
 Frc consts  --      1.4353                 1.4789                 1.4606
 IR Inten    --      3.2768                 2.8043                 2.1293

                     88                     89                     90
                      A                      A                      A
 Frequencies --   1531.5509              1533.2923              1546.4437
 Red. masses --      1.1497                 1.0773                 2.1214
 Frc consts  --      1.5890                 1.4923                 2.9891
 IR Inten    --      9.8018                14.2639                11.2890

                     91                     92                     93
                      A                      A                      A
 Frequencies --   1547.1736              1641.8571              1665.3878
 Red. masses --      1.1073                 5.3876                 5.5314
 Frc consts  --      1.5617                 8.5568                 9.0389
 IR Inten    --      3.3832                 0.6088                 6.7124

                     94                     95                     96
                      A                      A                      A
 Frequencies --   1770.3440              3032.0948              3036.2105
 Red. masses --      7.4474                 1.0732                 1.0700
 Frc consts  --     13.7522                 5.8133                 5.8114
 IR Inten    --    319.6314                20.9575                30.7363

                     97                     98                     99
                      A                      A                      A
 Frequencies --   3042.6163              3046.6331              3050.6696
 Red. masses --      1.0675                 1.0661                 1.0688
 Frc consts  --      5.8225                 5.8302                 5.8606
 IR Inten    --      8.2218                33.8000                33.4090

                    100                    101                    102
                      A                      A                      A
 Frequencies --   3051.5410              3055.0074              3058.9091
 Red. masses --      1.0414                 1.0735                 1.0680
 Frc consts  --      5.7138                 5.9033                 5.8878
 IR Inten    --     24.0162                41.8902                44.0749

                    103                    104                    105
                      A                      A                      A
 Frequencies --   3079.2348              3090.7127              3099.1987
 Red. masses --      1.0991                 1.0999                 1.0958
 Frc consts  --      6.1399                 6.1904                 6.2011
 IR Inten    --     39.0389                38.2373                 6.4422

                    106                    107                    108
                      A                      A                      A
 Frequencies --   3113.7235              3120.7071              3129.7236
 Red. masses --      1.0948                 1.1011                 1.1028
 Frc consts  --      6.2537                 6.3179                 6.3646
 IR Inten    --     24.2738                52.8906                26.1888

                    109                    110                    111
                      A                      A                      A
 Frequencies --   3141.3841              3176.9491              3178.6700
 Red. masses --      1.0947                 1.0895                 1.0864
 Frc consts  --      6.3646                 6.4787                 6.4671
 IR Inten    --      8.0207                 5.2204                 9.6663

                    112                    113                    114
                      A                      A                      A
 Frequencies --   3183.0579              3196.8607              3202.5745
 Red. masses --      1.0871                 1.0907                 1.0935
 Frc consts  --      6.4894                 6.5675                 6.6080
 IR Inten    --      0.2668                14.2355                20.3143

                    115                    116                    117
                      A                      A                      A
 Frequencies --   3213.6013              3581.5831              3723.8166
 Red. masses --      1.0974                 1.0753                 1.0666
 Frc consts  --      6.6770                 8.1269                 8.7146
 IR Inten    --     15.5032                13.7489               123.3334

 - Thermochemistry -
 -------------------
 Temperature   298.150 Kelvin.  Pressure   1.00000 Atm.
 Atom     1 has atomic number  6 and mass  12.00000

 Molecular mass:   249.17288 amu.
 Principal axes and moments of inertia in atomic units:
                           1         2         3
     Eigenvalues --  3777.944554696.471357066.07950
           X            0.99945   0.02833  -0.01702
           Y           -0.02832   0.99960   0.00050
           Z            0.01703  -0.00002   0.99986
 This molecule is an asymmetric top.
 Rotational symmetry number  1.
 Warning -- assumption of classical behavior for rotation
           may cause significant error
 Rotational temperatures (Kelvin)      0.02293     0.01844     0.01226
 Rotational constants (GHZ):           0.47770     0.38428     0.25541
 Zero-point vibrational energy     953372.3 (Joules/Mol)
                                  227.86145 (Kcal/Mol)
 Warning -- explicit consideration of  28 degrees of freedom as
           vibrations may cause significant error
 Vibrational temperatures:     32.44    51.26    62.80    72.39   101.80
          (Kelvin)            114.58   124.42   149.32   181.56   220.46
                              341.98   353.02   363.21   388.73   406.22
                              444.06   453.81   496.06   523.34   587.95
                              601.68   602.90   619.10   718.70   751.30
                              793.25   831.82   880.55   917.33   922.48
                              931.19  1033.81  1080.13  1090.25  1109.68
                             1163.46  1180.40  1234.96  1251.00  1262.55
                             1295.10  1346.37  1366.05  1407.03  1432.48
                             1437.34  1468.02  1470.96  1476.04  1485.67
                             1502.57  1525.92  1566.77  1587.67  1603.57
                             1611.40  1644.73  1671.59  1716.07  1723.01
                             1748.95  1752.12  1777.79  1786.87  1824.92
                             1877.68  1908.10  1912.06  1921.35  1949.38
                             1960.63  1968.94  1981.01  1991.64  2019.72
                             2024.08  2043.60  2060.02  2082.38  2085.68
                             2153.23  2160.04  2170.96  2175.11  2184.46
                             2197.05  2197.35  2203.56  2206.07  2224.99
                             2226.04  2362.27  2396.12  2547.13  4362.51
                             4368.43  4377.65  4383.43  4389.23  4390.49
                             4395.47  4401.09  4430.33  4446.85  4459.06
                             4479.95  4490.00  4502.97  4519.75  4570.92
                             4573.40  4579.71  4599.57  4607.79  4623.66
                             5153.10  5357.74

 Zero-point correction=                           0.363120 (Hartree/Particle)
 Thermal correction to Energy=                    0.381793
 Thermal correction to Enthalpy=                  0.382737
 Thermal correction to Gibbs Free Energy=         0.314728
 Sum of electronic and zero-point Energies=           -790.382115
 Sum of electronic and thermal Energies=              -790.363442
 Sum of electronic and thermal Enthalpies=            -790.362498
 Sum of electronic and thermal Free Energies=         -790.430507

                     E (Thermal)             CV                S
                      KCal/Mol        Cal/Mol-Kelvin    Cal/Mol-Kelvin
 Total                  239.579             70.890            143.137
 Electronic               0.000              0.000              0.000
 Translational            0.889              2.981             42.439
 Rotational               0.889              2.981             33.194
 Vibrational            237.801             64.928             67.503
 Vibration     1          0.593              1.985              6.396
 Vibration     2          0.594              1.982              5.489
 Vibration     3          0.595              1.980              5.086
 Vibration     4          0.595              1.977              4.805
 Vibration     5          0.598              1.968              4.132
 Vibration     6          0.600              1.963              3.900
 Vibration     7          0.601              1.959              3.738
 Vibration     8          0.605              1.946              3.382
 Vibration     9          0.611              1.927              3.003
 Vibration    10          0.619              1.899              2.632
 Vibration    11          0.656              1.783              1.820
 Vibration    12          0.660              1.770              1.764
 Vibration    13          0.664              1.759              1.713
 Vibration    14          0.674              1.728              1.595
 Vibration    15          0.681              1.706              1.519
 Vibration    16          0.698              1.657              1.370
 Vibration    17          0.703              1.644              1.334
 Vibration    18          0.723              1.586              1.190
 Vibration    19          0.737              1.547              1.106
 Vibration    20          0.773              1.451              0.931
 Vibration    21          0.781              1.431              0.898
 Vibration    22          0.782              1.429              0.895
 Vibration    23          0.791              1.404              0.858
 Vibration    24          0.855              1.251              0.659
 Vibration    25          0.877              1.201              0.605
 Vibration    26          0.907              1.137              0.541
 Vibration    27          0.935              1.079              0.489
 Vibration    28          0.971              1.006              0.429

                           ! Non-Optimized Parameters !
 Normal termination of Gaussian 16 at Fri Dec 11 21:42:58 2020.

 ----------------------------------------------------------------------
 # B3LYP/6-311++G(d,p) empiricaldispersion=gd3bj scf=xqc pop=npa geom=c
 heck
 ----------------------------------------------------------------------

 ---------------------------------------
 CID_113943109_JID_8369_Energie_neutraal
 ---------------------------------------
 Structure from the checkpoint file:  "JID_8369.chk"
 Charge =  0 Multiplicity = 1

 SCF Done:  E(RB3LYP) =  -790.975052404     A.U. after   15 cycles
 Normal termination of Gaussian 16 at Fri Dec 11 21:53:06 2020.

 ----------------------------------------------------------------------
 # B3LYP/6-311++G(d,p) empiricaldispersion=gd3bj scf=xqc pop=npa geom=c
 heck
 ----------------------------------------------------------------------

 -------------------------------------
 CID_113943109_JID_8369_Energie_kation
 -------------------------------------
 Structure from the checkpoint file:  "JID_8369.chk"
 Charge =  1 Multiplicity = 2

 SCF Done:  E(UB3LYP) =  -790.665896656     A.U. after   33 cycles
 SCF Done:  E(UB3LYP) =  -790.665896656     a.u. after    1 cycles
 Normal termination of Gaussian 16 at Fri Dec 11 22:26:36 2020.
 Gaussian 16:  ES64L-G16RevA.03 25-Dec-2016

 ----------------------------------------------------------------------
 # B3LYP/6-311++G(d,p) empiricaldispersion=gd3bj scf=xqc pop=npa geom=c
 heck
 ----------------------------------------------------------------------

 ------------------------------------
 CID_113943109_JID_8369_Energie_anion
 ------------------------------------
 Structure from the checkpoint file:  "JID_8369.chk"
 Charge = -1 Multiplicity = 2

                         Standard orientation:
 ---------------------------------------------------------------------
 Center     Atomic      Atomic             Coordinates (Angstroms)
 Number     Number       Type             X           Y           Z
 ---------------------------------------------------------------------
      1          6           0        3.602898   -1.008309   -0.202820
      2          6           0        3.107712    0.044918    0.787222
      3          6           0        3.111221    1.462903    0.173000
      4          6           0        1.864406    1.767897   -0.678261
      5          6           0        0.817107    2.530439    0.146941
      6          7           0       -0.474308    2.641059   -0.508914
      7          6           0       -1.637427    1.987325   -0.207132
      8          8           0       -2.620437    2.090497   -0.938337
      9          6           0       -1.655733    1.168389    1.080077
     10          6           0       -2.904661    0.296057    1.222696
     11          6           0       -3.075583   -0.749596    0.097923
     12          6           0       -1.803084   -1.506290   -0.199001
     13          6           0       -1.328570   -2.494861    0.673719
     14          6           0       -0.127812   -3.158451    0.424352
     15          6           0        0.622937   -2.844028   -0.711521
     16          6           0        0.165510   -1.854987   -1.586226
     17          6           0       -1.035860   -1.191763   -1.328417
     18          8           0        1.822727   -0.298874    1.319449
     19          1           0        3.001620   -1.003409   -1.119514
     20          1           0        3.541467   -2.007349    0.240581
     21          1           0        4.644305   -0.816569   -0.482671
     22          1           0        3.783572    0.047461    1.651276
     23          1           0        3.175957    2.200816    0.983454
     24          1           0        4.028134    1.581552   -0.417042
     25          1           0        2.131160    2.359761   -1.562754
     26          1           0        1.407510    0.843177   -1.049386
     27          1           0        0.683779    2.020945    1.099947
     28          1           0        1.195633    3.536715    0.374312
     29          1           0       -0.522959    3.154663   -1.381287
     30          1           0       -0.758141    0.545347    1.140818
     31          1           0       -1.593699    1.865488    1.927019
     32          1           0       -2.843388   -0.215770    2.191309
     33          1           0       -3.797921    0.928473    1.243692
     34          1           0       -3.866834   -1.450988    0.390919
     35          1           0       -3.409964   -0.231844   -0.802901
     36          1           0       -1.908672   -2.745779    1.558616
     37          1           0        0.222200   -3.922383    1.112838
     38          1           0        1.553308   -3.365981   -0.913598
     39          1           0        0.739807   -1.605938   -2.474741
     40          1           0       -1.388350   -0.418214   -2.004951
     41          1           0        1.344952   -0.818431    0.652244
 ---------------------------------------------------------------------

 SCF Done:  E(UB3LYP) =  -790.963300418     A.U. after   33 cycles
 SCF Done:  E(UB3LYP) =  -790.963300418     a.u. after    1 cycles

 The electronic state is 2-A.
 Alpha  occ. eigenvalues --  -19.02170 -18.99524 -14.24305 -10.18169 -10.12528
 Alpha  occ. eigenvalues --  -10.11295 -10.09386 -10.08936 -10.08920 -10.08738
 Alpha  occ. eigenvalues --  -10.08685 -10.08572 -10.08538 -10.08432 -10.07943
 Alpha  occ. eigenvalues --  -10.07528 -10.07074 -10.06415  -0.94581  -0.92400
 Alpha  occ. eigenvalues --   -0.83111  -0.77464  -0.71675  -0.70198  -0.66874
 Alpha  occ. eigenvalues --   -0.66079  -0.65354  -0.61298  -0.59169  -0.54302
 Alpha  occ. eigenvalues --   -0.53674  -0.52052  -0.49634  -0.48401  -0.46413
 Alpha  occ. eigenvalues --   -0.42632  -0.41300  -0.40703  -0.38567  -0.38429
 Alpha  occ. eigenvalues --   -0.38061  -0.37457  -0.36901  -0.35702  -0.34166
 Alpha  occ. eigenvalues --   -0.33651  -0.33266  -0.32690  -0.31542  -0.31376
 Alpha  occ. eigenvalues --   -0.30325  -0.29152  -0.28467  -0.27921  -0.27061
 Alpha  occ. eigenvalues --   -0.26527  -0.26130  -0.25584  -0.25448  -0.25055
 Alpha  occ. eigenvalues --   -0.24597  -0.24045  -0.22225  -0.18093  -0.16996
 Alpha  occ. eigenvalues --   -0.16674  -0.16252  -0.16048   0.04058
 Alpha virt. eigenvalues --    0.05758   0.06284   0.06775   0.06972   0.07075
 Alpha virt. eigenvalues --    0.07847   0.07989   0.08874   0.09120   0.09310
 Alpha virt. eigenvalues --    0.10066   0.10315   0.10828   0.11224   0.11567

  Beta  occ. eigenvalues --  -19.02164 -18.99522 -14.24296 -10.18170 -10.12520
  Beta  occ. eigenvalues --  -10.11281 -10.09374 -10.08928 -10.08899 -10.08731
  Beta  occ. eigenvalues --  -10.08663 -10.08548 -10.08538 -10.08425 -10.07940
  Beta  occ. eigenvalues --  -10.07510 -10.07052 -10.06379  -0.94577  -0.92383
  Beta  occ. eigenvalues --   -0.83094  -0.77428  -0.71653  -0.70162  -0.66841
  Beta  occ. eigenvalues --   -0.66040  -0.65317  -0.61270  -0.59120  -0.54269
  Beta  occ. eigenvalues --   -0.53628  -0.52015  -0.49598  -0.48354  -0.46388
  Beta  occ. eigenvalues --   -0.42591  -0.41268  -0.40686  -0.38539  -0.38399
  Beta  occ. eigenvalues --   -0.38017  -0.37430  -0.36860  -0.35667  -0.34143
  Beta  occ. eigenvalues --   -0.33620  -0.33240  -0.32662  -0.31521  -0.31355
  Beta  occ. eigenvalues --   -0.30302  -0.29110  -0.28434  -0.27879  -0.27039
  Beta  occ. eigenvalues --   -0.26503  -0.26097  -0.25555  -0.25416  -0.25029
  Beta  occ. eigenvalues --   -0.24579  -0.24022  -0.22193  -0.18071  -0.16938
  Beta  occ. eigenvalues --   -0.16662  -0.16217  -0.15994
  Beta virt. eigenvalues --    0.05997   0.06520   0.06800   0.07046   0.07298
  Beta virt. eigenvalues --    0.07601   0.08307   0.08472   0.09136   0.09465
  Beta virt. eigenvalues --    0.09636   0.10514   0.10585   0.11010   0.11432

 Mulliken charges and spin densities:
               1          2
     1  C    0.550232  -1.207369
     2  C   -0.525925   0.511137
     3  C    0.392506  -0.831016
     4  C   -0.312082   0.310416
     5  C    0.304799  -1.056675
     6  N   -0.083970   0.071490
     7  C   -0.242767  -0.142231
     8  O   -0.312990   0.011057
     9  C    0.291788  -0.102425
    10  C   -0.320220  -0.252502
    11  C    0.410101  -0.959478
    12  C    0.336939   0.296765
    13  C   -0.628356   0.466499
    14  C    0.020467  -0.189831
    15  C    1.063557  -1.375227
    16  C   -0.169885  -0.298532
    17  C   -0.883848   0.679217
    18  O   -0.155441  -0.034948
    19  H    0.035910   0.125625
    20  H   -0.100769   0.268992
    21  H   -0.440998   0.595243
    22  H   -0.227984   0.403244
    23  H    0.018440   0.138422
    24  H   -0.352285   0.520483
    25  H   -0.435624   0.611605
    26  H    0.347980  -0.074562
    27  H    0.160702   0.082250
    28  H   -0.236240   0.411442
    29  H    0.159680   0.116419
    30  H   -0.068717   0.237254
    31  H    0.147058   0.055975
    32  H    0.105686   0.036295
    33  H    0.128278   0.036764
    34  H   -0.003574   0.157288
    35  H    0.188261   0.017545
    36  H   -0.216732   0.388931
    37  H   -0.463344   0.650170
    38  H   -0.088420   0.255819
    39  H   -0.279695   0.469081
    40  H    0.137849   0.062721
    41  H    0.749629  -0.463355
 Sum of Mulliken charges =  -1.00000   1.00000

 Dipole moment (field-independent basis, Debye):
    X=             -5.2543    Y=              0.2522    Z=              1.5174  Tot=              5.4749
 Quadrupole moment (field-independent basis, Debye-Ang):
   XX=           -190.0025   YY=           -172.4682   ZZ=           -148.5961
   XY=              0.2534   XZ=              1.1815   YZ=              7.9377

 Summary of Natural Population Analysis:

                                       Natural Population
                Natural  -----------------------------------------------
    Atom  No    Charge         Core      Valence    Rydberg      Total
 -----------------------------------------------------------------------
      C    1   -0.29926      0.99964     2.29400    0.00562     3.29926
      C    2    0.06508      0.99957     1.92096    0.01439     2.93492
      C    3   -0.20015      0.99960     2.19105    0.00950     3.20015
      C    4   -0.19958      0.99961     2.18988    0.01009     3.19958
      C    5   -0.08786      0.99960     2.07796    0.01031     3.08786
      N    6   -0.31427      0.99967     2.80512    0.00948     3.81427
      C    7    0.34477      0.99967     1.63217    0.02339     2.65523
      O    8   -0.33401      0.99988     3.32889    0.00525     4.33401
      C    9   -0.24364      0.99958     2.23749    0.00657     3.24364
      C   10   -0.18308      0.99963     2.17452    0.00893     3.18308
      C   11   -0.20242      0.99959     2.19416    0.00867     3.20242
      C   12   -0.01311      0.99951     2.00293    0.01068     3.01311
      C   13   -0.10000      0.99950     2.09084    0.00965     3.10000
      C   14   -0.09925      0.99956     2.08918    0.01051     3.09925
      C   15   -0.11450      0.99956     2.10415    0.01079     3.11450
      C   16   -0.10498      0.99956     2.09499    0.01044     3.10498
      C   17   -0.10651      0.99950     2.09812    0.00889     3.10651
      O   18   -0.38221      0.99990     3.37623    0.00608     4.38221
      H   19    0.09695      0.00000     0.40133    0.00172     0.40305
      H   20    0.10308      0.00000     0.39565    0.00127     0.39692
      H   21    0.10496      0.00000     0.39350    0.00154     0.39504
      H   22    0.08348      0.00000     0.41523    0.00128     0.41652
      H   23    0.09629      0.00000     0.40228    0.00143     0.40371
      H   24    0.10473      0.00000     0.39359    0.00169     0.39527
      H   25    0.09883      0.00000     0.39930    0.00186     0.40117
      H   26    0.09772      0.00000     0.39922    0.00305     0.40228
      H   27    0.10686      0.00000     0.39123    0.00190     0.39314
      H   28    0.09240      0.00000     0.40630    0.00130     0.40760
      H   29    0.19184      0.00000     0.30586    0.00230     0.30816
      H   30    0.11669      0.00000     0.38127    0.00204     0.38331
      H   31    0.11111      0.00000     0.38795    0.00094     0.38889
      H   32    0.09631      0.00000     0.40271    0.00098     0.40369
      H   33    0.10272      0.00000     0.39632    0.00097     0.39728
      H   34    0.10112      0.00000     0.39797    0.00091     0.39888
      H   35    0.11268      0.00000     0.38613    0.00118     0.38732
      H   36    0.10078      0.00000     0.39813    0.00110     0.39922
      H   37    0.10410      0.00000     0.39472    0.00118     0.39590
      H   38    0.10609      0.00000     0.39276    0.00115     0.39391
      H   39    0.10421      0.00000     0.39471    0.00108     0.39579
      H   40    0.10635      0.00000     0.39220    0.00144     0.39365
      H   41    0.23569      0.00000     0.25939    0.00492     0.26431
 =======================================================================
   * Total *   -0.00000     17.99313    49.79038    0.21649    68.00000

 Normal termination of Gaussian 16 at Fri Dec 11 22:58:48 2020.
