 Gaussian 16, Revision A.03,

 -----------------------------------------------------------
 # opt freq B3LYP/6-31G(d) empiricaldispersion=gd3bj scf=xqc
 -----------------------------------------------------------

 ------------------------------
 CID_63723853_JID_7408_neutraal
 ------------------------------
 Symbolic Z-matrix:
 Charge =  0 Multiplicity = 1

 SCF Done:  E(RB3LYP) =  -758.784697686     A.U. after   15 cycles
 SCF Done:  E(RB3LYP) =  -758.789060211     A.U. after   13 cycles
 SCF Done:  E(RB3LYP) =  -758.789195539     A.U. after   13 cycles
 SCF Done:  E(RB3LYP) =  -758.790314351     A.U. after   13 cycles
 SCF Done:  E(RB3LYP) =  -758.790794162     A.U. after   12 cycles
 SCF Done:  E(RB3LYP) =  -758.791022315     A.U. after   13 cycles
 SCF Done:  E(RB3LYP) =  -758.791403958     A.U. after   12 cycles
 SCF Done:  E(RB3LYP) =  -758.791552166     A.U. after   11 cycles
 SCF Done:  E(RB3LYP) =  -758.791630034     A.U. after   12 cycles
 SCF Done:  E(RB3LYP) =  -758.791669216     A.U. after   11 cycles
 SCF Done:  E(RB3LYP) =  -758.791721080     A.U. after    8 cycles
 SCF Done:  E(RB3LYP) =  -758.791721259     A.U. after    8 cycles
 SCF Done:  E(RB3LYP) =  -758.791721337     A.U. after    7 cycles
 SCF Done:  E(RB3LYP) =  -758.791721378     A.U. after    7 cycles
 Optimization completed.
    -- Stationary point found.
 Normal termination of Gaussian 16 at Mon Dec 14 16:43:58 2020.

 --------------------------------------------------------------------
 #N Geom=AllCheck Guess=TCheck SCRF=Check GenChk RB3LYP/6-31G(d) Freq
 --------------------------------------------------------------------

 Structure from the checkpoint file:  "JID_7408.chk"
 ------------------------------
 CID_63723853_JID_7408_neutraal
 ------------------------------
 Charge =  0 Multiplicity = 1

 SCF Done:  E(RB3LYP) =  -758.791721378     A.U. after    1 cycles

  Exact polarizability: 177.538  -5.966 166.613 -25.936   0.175 106.093
 Approx polarizability: 241.880 -10.395 286.388 -56.489   3.785 183.521

                      1                      2                      3
                      A                      A                      A
 Frequencies --     30.6001                40.1400                41.3906
 Red. masses --      4.3380                 4.5508                 3.8745
 Frc consts  --      0.0024                 0.0043                 0.0039
 IR Inten    --      3.6988                 3.9960                 0.4592

                      4                      5                      6
                      A                      A                      A
 Frequencies --     66.6690                91.0540               120.1996
 Red. masses --      4.0120                 5.0182                 4.9252
 Frc consts  --      0.0105                 0.0245                 0.0419
 IR Inten    --      0.2270                 0.4590                 2.9576

                      7                      8                      9
                      A                      A                      A
 Frequencies --    139.9844               215.6298               232.0485
 Red. masses --      5.4448                 2.7425                 4.4390
 Frc consts  --      0.0629                 0.0751                 0.1408
 IR Inten    --      1.5545                11.1725                 0.6617

                     10                     11                     12
                      A                      A                      A
 Frequencies --    276.2577               303.2135               319.3286
 Red. masses --      2.7680                 1.8556                 5.3132
 Frc consts  --      0.1245                 0.1005                 0.3192
 IR Inten    --     12.3986                44.9829                 1.2319

                     13                     14                     15
                      A                      A                      A
 Frequencies --    362.0787               415.2854               424.5172
 Red. masses --      5.3879                 3.2427                 3.7413
 Frc consts  --      0.4162                 0.3295                 0.3973
 IR Inten    --      1.9583                14.0136                 0.3211

                     16                     17                     18
                      A                      A                      A
 Frequencies --    430.6275               496.7172               509.1047
 Red. masses --      3.6067                 3.4728                 4.5134
 Frc consts  --      0.3941                 0.5048                 0.6892
 IR Inten    --     10.6258                18.0647                 7.4309

                     19                     20                     21
                      A                      A                      A
 Frequencies --    522.7360               533.6841               610.5826
 Red. masses --      3.3821                 1.4661                 4.7040
 Frc consts  --      0.5445                 0.2460                 1.0333
 IR Inten    --      2.1105                85.3655                23.7242

                     22                     23                     24
                      A                      A                      A
 Frequencies --    639.5593               661.4712               676.1740
 Red. masses --      6.4284                 6.9713                 4.3617
 Frc consts  --      1.5492                 1.7971                 1.1750
 IR Inten    --      1.1979                 3.2781                18.0885

                     25                     26                     27
                      A                      A                      A
 Frequencies --    711.9870               732.7016               753.9058
 Red. masses --      4.8336                 5.7509                 2.1093
 Frc consts  --      1.4436                 1.8190                 0.7064
 IR Inten    --      6.7843                51.4204                 8.3892

                     28                     29                     30
                      A                      A                      A
 Frequencies --    787.0569               802.5750               839.0239
 Red. masses --      2.0645                 3.0161                 4.8230
 Frc consts  --      0.7535                 1.1446                 2.0004
 IR Inten    --     43.1233                13.4115                 2.1818

                     31                     32                     33
                      A                      A                      A
 Frequencies --    861.0940               883.6345               886.3748
 Red. masses --      1.5423                 1.3521                 1.4898
 Frc consts  --      0.6738                 0.6220                 0.6896
 IR Inten    --     62.0980                 1.8741                52.0268

                     34                     35                     36
                      A                      A                      A
 Frequencies --    941.1460               968.2744               972.4452
 Red. masses --      4.2302                 1.3391                 1.4180
 Frc consts  --      2.2076                 0.7397                 0.7901
 IR Inten    --     13.4650                12.2662                 0.5173

                     37                     38                     39
                      A                      A                      A
 Frequencies --    992.0915               994.9256              1012.1112
 Red. masses --      1.3596                 1.2802                 1.7286
 Frc consts  --      0.7885                 0.7466                 1.0433
 IR Inten    --      1.8216                 0.0554                21.2562

                     40                     41                     42
                      A                      A                      A
 Frequencies --   1012.6671              1047.5416              1076.5562
 Red. masses --      6.5613                 3.3707                 2.6432
 Frc consts  --      3.9644                 2.1793                 1.8049
 IR Inten    --      6.2195                14.4146                 3.5509

                     43                     44                     45
                      A                      A                      A
 Frequencies --   1079.0038              1130.7006              1157.2838
 Red. masses --      2.1855                 1.5608                 1.5706
 Frc consts  --      1.4992                 1.1757                 1.2393
 IR Inten    --      2.8231                 0.5798                 4.1734

                     46                     47                     48
                      A                      A                      A
 Frequencies --   1172.9493              1184.2141              1188.1747
 Red. masses --      2.4747                 1.1341                 1.2566
 Frc consts  --      2.0060                 0.9370                 1.0452
 IR Inten    --     75.7750                 6.2460                 5.4409

                     49                     50                     51
                      A                      A                      A
 Frequencies --   1245.9098              1272.8096              1298.1516
 Red. masses --      2.2374                 2.0189                 2.5800
 Frc consts  --      2.0463                 1.9271                 2.5616
 IR Inten    --      2.2808                29.0961                24.3401

                     52                     53                     54
                      A                      A                      A
 Frequencies --   1324.1845              1327.7445              1340.6887
 Red. masses --      1.4966                 5.0780                 1.9067
 Frc consts  --      1.5461                 5.2744                 2.0192
 IR Inten    --      2.0497                 8.3705                40.1620

                     55                     56                     57
                      A                      A                      A
 Frequencies --   1349.7545              1383.3729              1425.7308
 Red. masses --      1.7732                 3.9600                 2.0479
 Frc consts  --      1.9033                 4.4650                 2.4526
 IR Inten    --      9.9796               387.1681                35.4984

                     58                     59                     60
                      A                      A                      A
 Frequencies --   1451.5111              1457.9317              1512.3349
 Red. masses --      1.7145                 1.8487                 2.4601
 Frc consts  --      2.1283                 2.3152                 3.3151
 IR Inten    --      8.2475                29.2613               155.1013

                     61                     62                     63
                      A                      A                      A
 Frequencies --   1525.4313              1528.7191              1535.3421
 Red. masses --      2.1682                 2.3759                 1.2493
 Frc consts  --      2.9727                 3.2714                 1.7350
 IR Inten    --     28.4895                44.9705                 1.7750

                     64                     65                     66
                      A                      A                      A
 Frequencies --   1625.8882              1639.3130              1653.5291
 Red. masses --      6.1442                 5.9921                 5.4664
 Frc consts  --      9.5697                 9.4876                 8.8059
 IR Inten    --     14.9197                30.2128               159.4391

                     67                     68                     69
                      A                      A                      A
 Frequencies --   1654.7849              1694.7664              1772.8110
 Red. masses --      5.4524                 1.1043                 8.9925
 Frc consts  --      8.7967                 1.8688                16.6516
 IR Inten    --      3.7278                30.1393               371.7734

                     70                     71                     72
                      A                      A                      A
 Frequencies --   2959.6110              3043.3011              3173.2285
 Red. masses --      1.0735                 1.0874                 1.0893
 Frc consts  --      5.5400                 5.9338                 6.4624
 IR Inten    --     78.6076                24.5041                20.9538

                     73                     74                     75
                      A                      A                      A
 Frequencies --   3182.2074              3194.8000              3202.9189
 Red. masses --      1.0901                 1.0877                 1.0906
 Frc consts  --      6.5040                 6.5409                 6.5916
 IR Inten    --     18.3793                 7.4014                 6.8718

                     76                     77                     78
                      A                      A                      A
 Frequencies --   3210.3759              3221.5168              3236.4044
 Red. masses --      1.0933                 1.0975                 1.0931
 Frc consts  --      6.6388                 6.7109                 6.7456
 IR Inten    --     17.9408                15.3498                 1.8785

                     79                     80                     81
                      A                      A                      A
 Frequencies --   3472.7854              3561.5901              3593.0786
 Red. masses --      1.0497                 1.0930                 1.0757
 Frc consts  --      7.4591                 8.1691                 8.1820
 IR Inten    --      1.5137                 0.3559                37.3896

 - Thermochemistry -
 -------------------
 Temperature   298.150 Kelvin.  Pressure   1.00000 Atm.
 Atom     1 has atomic number  6 and mass  12.00000

 Molecular mass:   228.10111 amu.
 Principal axes and moments of inertia in atomic units:
                           1         2         3
     Eigenvalues --  2471.113775827.144607458.20721
           X            0.99997   0.00537  -0.00506
           Y           -0.00535   0.99998   0.00401
           Z            0.00508  -0.00398   0.99998
 This molecule is an asymmetric top.
 Rotational symmetry number  1.
 Warning -- assumption of classical behavior for rotation
           may cause significant error
 Rotational temperatures (Kelvin)      0.03505     0.01486     0.01161
 Rotational constants (GHZ):           0.73034     0.30971     0.24198
 Zero-point vibrational energy     606626.4 (Joules/Mol)
                                  144.98720 (Kcal/Mol)
 Warning -- explicit consideration of  21 degrees of freedom as
           vibrations may cause significant error
 Vibrational temperatures:     44.03    57.75    59.55    95.92   131.01
          (Kelvin)            172.94   201.41   310.24   333.87   397.47
                              436.26   459.44   520.95   597.50   610.79
                              619.58   714.67   732.49   752.10   767.85
                              878.49   920.18   951.71   972.86  1024.39
                             1054.19  1084.70  1132.40  1154.73  1207.17
                             1238.92  1271.35  1275.30  1354.10  1393.13
                             1399.13  1427.40  1431.48  1456.20  1457.00
                             1507.18  1548.92  1552.45  1626.83  1665.07
                             1687.61  1703.82  1709.52  1792.59  1831.29
                             1867.75  1905.21  1910.33  1928.95  1942.00
                             1990.37  2051.31  2088.40  2097.64  2175.91
                             2194.76  2199.49  2209.01  2339.29  2358.61
                             2379.06  2380.87  2438.39  2550.68  4258.22
                             4378.63  4565.57  4578.49  4596.60  4608.29
                             4619.01  4635.04  4656.46  4996.56  5124.33
                             5169.64

 Zero-point correction=                           0.231052 (Hartree/Particle)
 Thermal correction to Energy=                    0.245595
 Thermal correction to Enthalpy=                  0.246539
 Thermal correction to Gibbs Free Energy=         0.187403
 Sum of electronic and zero-point Energies=           -758.560670
 Sum of electronic and thermal Energies=              -758.546126
 Sum of electronic and thermal Enthalpies=            -758.545182
 Sum of electronic and thermal Free Energies=         -758.604318

                     E (Thermal)             CV                S
                      KCal/Mol        Cal/Mol-Kelvin    Cal/Mol-Kelvin
 Total                  154.113             55.277            124.463
 Electronic               0.000              0.000              0.000
 Translational            0.889              2.981             42.176
 Rotational               0.889              2.981             33.040
 Vibrational            152.336             49.316             49.247
 Vibration     1          0.594              1.984              5.790
 Vibration     2          0.594              1.981              5.252
 Vibration     3          0.594              1.981              5.191
 Vibration     4          0.598              1.970              4.249
 Vibration     5          0.602              1.956              3.637
 Vibration     6          0.609              1.932              3.097
 Vibration     7          0.615              1.913              2.804
 Vibration     8          0.645              1.817              1.995
 Vibration     9          0.653              1.792              1.863
 Vibration    10          0.678              1.717              1.557
 Vibration    11          0.695              1.668              1.399
 Vibration    12          0.705              1.637              1.314
 Vibration    13          0.736              1.550              1.113
 Vibration    14          0.779              1.437              0.908
 Vibration    15          0.787              1.417              0.877
 Vibration    16          0.792              1.404              0.857
 Vibration    17          0.852              1.257              0.666
 Vibration    18          0.864              1.230              0.636
 Vibration    19          0.878              1.200              0.604
 Vibration    20          0.889              1.176              0.579
 Vibration    21          0.970              1.009              0.432

 Optimization completed.
    -- Stationary point found.
 Normal termination of Gaussian 16 at Mon Dec 14 16:54:17 2020.

 ----------------------------------------------------------------------
 # B3LYP/6-311++G(d,p) empiricaldispersion=gd3bj scf=xqc pop=npa geom=c
 heck
 ----------------------------------------------------------------------

 --------------------------------------
 CID_63723853_JID_7408_Energie_neutraal
 --------------------------------------
 Structure from the checkpoint file:  "JID_7408.chk"
 Charge =  0 Multiplicity = 1

 SCF Done:  E(RB3LYP) =  -759.004500017     A.U. after   16 cycles
 Normal termination of Gaussian 16 at Mon Dec 14 16:59:16 2020.

 ----------------------------------------------------------------------
 # B3LYP/6-311++G(d,p) empiricaldispersion=gd3bj scf=xqc pop=npa geom=c
 heck
 ----------------------------------------------------------------------

 ------------------------------------
 CID_63723853_JID_7408_Energie_kation
 ------------------------------------
 Structure from the checkpoint file:  "JID_7408.chk"
 Charge =  1 Multiplicity = 2

 SCF Done:  E(UB3LYP) =  -758.703695688     A.U. after   33 cycles
 SCF Done:  E(UB3LYP) =  -758.703695688     a.u. after    1 cycles
 Normal termination of Gaussian 16 at Mon Dec 14 17:14:05 2020.
 Gaussian 16:  ES64L-G16RevA.03 25-Dec-2016

 ----------------------------------------------------------------------
 # B3LYP/6-311++G(d,p) empiricaldispersion=gd3bj scf=xqc pop=npa geom=c
 heck
 ----------------------------------------------------------------------

 -----------------------------------
 CID_63723853_JID_7408_Energie_anion
 -----------------------------------
 Structure from the checkpoint file:  "JID_7408.chk"
 Charge = -1 Multiplicity = 2

                         Standard orientation:
 ---------------------------------------------------------------------
 Center     Atomic      Atomic             Coordinates (Angstroms)
 Number     Number       Type             X           Y           Z
 ---------------------------------------------------------------------
      1          6           0        3.758861   -1.668965   -0.525733
      2          6           0        3.191576   -2.275726    0.596252
      3          6           0        2.207822   -1.573029    1.289446
      4          7           0        1.789124   -0.349426    0.953065
      5          6           0        2.317228    0.204606   -0.141334
      6          6           0        3.311494   -0.411953   -0.913417
      7          7           0        1.876774    1.491883   -0.495674
      8          6           0        0.670697    2.095137   -0.189683
      9          8           0        0.579782    3.315388   -0.141525
     10          6           0       -0.537264    1.219535   -0.025586
     11          7           0       -0.583036    0.066433   -0.707563
     12          6           0       -1.688203   -0.672276   -0.603457
     13          6           0       -2.795011   -0.318546    0.183400
     14          6           0       -2.733233    0.897974    0.865402
     15          6           0       -1.593360    1.688055    0.756767
     16          6           0       -3.998463   -1.227544    0.295026
     17          7           0       -4.271606   -1.910123   -0.972616
     18          1           0        4.528299   -2.175360   -1.101555
     19          1           0        3.504758   -3.260174    0.927765
     20          1           0        1.742635   -2.002894    2.174688
     21          1           0        3.699089    0.079655   -1.800172
     22          1           0        2.582635    2.158870   -0.783735
     23          1           0       -1.717412   -1.594255   -1.177720
     24          1           0       -3.574699    1.226137    1.471474
     25          1           0       -1.507990    2.649757    1.249100
     26          1           0       -3.791006   -2.005846    1.042542
     27          1           0       -4.846050   -0.640682    0.691821
     28          1           0       -5.043108   -2.563352   -0.853820
     29          1           0       -4.567062   -1.229934   -1.671170
 ---------------------------------------------------------------------

 SCF Done:  E(UB3LYP) =  -759.010690047     A.U. after   33 cycles
 SCF Done:  E(UB3LYP) =  -759.010690047     a.u. after    1 cycles

 The electronic state is 2-A.
 Alpha  occ. eigenvalues --  -18.94219 -14.21133 -14.18867 -14.18427 -14.16189
 Alpha  occ. eigenvalues --  -10.12498 -10.11752 -10.09560 -10.08684 -10.08046
 Alpha  occ. eigenvalues --  -10.07001 -10.06336 -10.06317 -10.05741 -10.04944
 Alpha  occ. eigenvalues --  -10.04236 -10.04019  -0.90007  -0.84535  -0.80290
 Alpha  occ. eigenvalues --   -0.77978  -0.77667  -0.69434  -0.67192  -0.64167
 Alpha  occ. eigenvalues --   -0.63335  -0.56334  -0.53010  -0.52319  -0.49925
 Alpha  occ. eigenvalues --   -0.48635  -0.44801  -0.43116  -0.39508  -0.38596
 Alpha  occ. eigenvalues --   -0.38007  -0.36955  -0.35655  -0.33545  -0.32893
 Alpha  occ. eigenvalues --   -0.31326  -0.30599  -0.30080  -0.29864  -0.28957
 Alpha  occ. eigenvalues --   -0.27914  -0.27427  -0.26678  -0.26261  -0.24117
 Alpha  occ. eigenvalues --   -0.22777  -0.18968  -0.17522  -0.15765  -0.14971
 Alpha  occ. eigenvalues --   -0.14568  -0.13038  -0.11708  -0.11450  -0.10809
 Alpha  occ. eigenvalues --    0.04106
 Alpha virt. eigenvalues --    0.06455   0.07247   0.07779   0.08723   0.09178
 Alpha virt. eigenvalues --    0.09204   0.09887   0.10025   0.10903   0.11231
 Alpha virt. eigenvalues --    0.11612   0.12256   0.12712   0.13671   0.13982

  Beta  occ. eigenvalues --  -18.93882 -14.21194 -14.18820 -14.18329 -14.16013
  Beta  occ. eigenvalues --  -10.12370 -10.11530 -10.09585 -10.08695 -10.07989
  Beta  occ. eigenvalues --  -10.07026 -10.06393 -10.06228 -10.05569 -10.04903
  Beta  occ. eigenvalues --  -10.04017 -10.03999  -0.89489  -0.84307  -0.79980
  Beta  occ. eigenvalues --   -0.77850  -0.77546  -0.69286  -0.66880  -0.63978
  Beta  occ. eigenvalues --   -0.63073  -0.56044  -0.52878  -0.52151  -0.49721
  Beta  occ. eigenvalues --   -0.48413  -0.44573  -0.43035  -0.39397  -0.38478
  Beta  occ. eigenvalues --   -0.37884  -0.36815  -0.35555  -0.33470  -0.32711
  Beta  occ. eigenvalues --   -0.31192  -0.30348  -0.29832  -0.29617  -0.28681
  Beta  occ. eigenvalues --   -0.27538  -0.26978  -0.26514  -0.25886  -0.23417
  Beta  occ. eigenvalues --   -0.22598  -0.18179  -0.17111  -0.15276  -0.14674
  Beta  occ. eigenvalues --   -0.14267  -0.12727  -0.11053  -0.10965  -0.10258
  Beta virt. eigenvalues --    0.06879   0.07158   0.07920   0.08524   0.08968
  Beta virt. eigenvalues --    0.09234   0.09692   0.10056   0.10559   0.11066
  Beta virt. eigenvalues --    0.11344   0.11699   0.12297   0.12773   0.13629

 Mulliken charges and spin densities:
               1          2
     1  C   -0.545052   0.031143
     2  C   -0.016888   0.068262
     3  C   -0.185311  -0.019795
     4  N    0.063169   0.054079
     5  C   -0.841712   0.038103
     6  C    0.633287   0.014802
     7  N   -0.150075  -0.034433
     8  C   -0.139837   0.111868
     9  O   -0.397563   0.118893
    10  C    0.002454   0.029544
    11  N    0.142211   0.086952
    12  C   -0.668022   0.042511
    13  C    0.743582   0.384300
    14  C   -0.527700  -0.165887
    15  C   -0.003098   0.059431
    16  C   -0.162401  -0.534591
    17  N   -0.321766  -0.013518
    18  H    0.130121   0.000797
    19  H    0.136219  -0.004841
    20  H    0.152361   0.001460
    21  H    0.137344   0.026195
    22  H    0.274850   0.024750
    23  H    0.206721  -0.014566
    24  H    0.110828  -0.009637
    25  H    0.187201   0.006566
    26  H   -0.038085   0.200361
    27  H    0.043201   0.106409
    28  H   -0.079402   0.308007
    29  H    0.113366   0.082836
 Sum of Mulliken charges =  -1.00000   1.00000

 Dipole moment (field-independent basis, Debye):
    X=              3.2696    Y=             -2.2734    Z=              0.4310  Tot=              4.0055
 Quadrupole moment (field-independent basis, Debye-Ang):
   XX=           -133.6114   YY=           -136.8952   ZZ=           -110.2851
   XY=            -13.2363   XZ=             -6.9665   YZ=             -2.6392

 Summary of Natural Population Analysis:

                                       Natural Population
                Natural  -----------------------------------------------
    Atom  No    Charge         Core      Valence    Rydberg      Total
 -----------------------------------------------------------------------
      C    1   -0.07598      0.99958     2.06781    0.00859     3.07598
      C    2   -0.13065      0.99957     2.12229    0.00879     3.13065
      C    3    0.02857      0.99960     1.95821    0.01363     2.97143
      N    4   -0.22272      0.99967     2.71179    0.01126     3.72272
      C    5    0.22326      0.99953     1.76200    0.01521     2.77674
      C    6   -0.13785      0.99952     2.13060    0.00773     3.13785
      N    7   -0.32433      0.99964     2.81421    0.01047     3.82433
      C    8    0.36586      0.99964     1.61298    0.02152     2.63414
      O    9   -0.29004      0.99988     3.28462    0.00554     4.29004
      C   10    0.08724      0.99949     1.89658    0.01670     2.91276
      N   11   -0.20459      0.99968     2.69296    0.01194     3.70459
      C   12    0.01470      0.99954     1.97263    0.01312     2.98530
      C   13   -0.01098      0.99950     2.00101    0.01047     3.01098
      C   14   -0.08742      0.99953     2.07940    0.00849     3.08742
      C   15   -0.09643      0.99953     2.08915    0.00776     3.09643
      C   16   -0.09607      0.99961     2.08382    0.01264     3.09607
      N   17   -0.41928      0.99978     2.90873    0.01078     3.91928
      H   18    0.09411      0.00000     0.40494    0.00095     0.40589
      H   19    0.09584      0.00000     0.40308    0.00107     0.40416
      H   20    0.08605      0.00000     0.41280    0.00115     0.41395
      H   21    0.09960      0.00000     0.39903    0.00137     0.40040
      H   22    0.19280      0.00000     0.30551    0.00169     0.30720
      H   23    0.09327      0.00000     0.40513    0.00160     0.40673
      H   24    0.09140      0.00000     0.40739    0.00122     0.40860
      H   25    0.10671      0.00000     0.39232    0.00097     0.39329
      H   26    0.09544      0.00000     0.40313    0.00142     0.40456
      H   27    0.07680      0.00000     0.42154    0.00166     0.42320
      H   28    0.17302      0.00000     0.32426    0.00271     0.32698
      H   29    0.17166      0.00000     0.32677    0.00157     0.32834
 =======================================================================
   * Total *    0.00000     16.99327    42.79470    0.21203    60.00000

 Normal termination of Gaussian 16 at Mon Dec 14 17:28:40 2020.
