 Gaussian 16, Revision A.03,

 -----------------------------------------------------------
 # opt freq B3LYP/6-31G(d) empiricaldispersion=gd3bj scf=xqc
 -----------------------------------------------------------

 -------------------------------
 CID_111484264_JID_8394_neutraal
 -------------------------------
 Symbolic Z-matrix:
 Charge =  0 Multiplicity = 1

 SCF Done:  E(RB3LYP) =  -826.625482017     A.U. after   15 cycles
 SCF Done:  E(RB3LYP) =  -826.627914673     A.U. after   12 cycles
 SCF Done:  E(RB3LYP) =  -826.628122434     A.U. after   12 cycles
 SCF Done:  E(RB3LYP) =  -826.628644604     A.U. after   12 cycles
 SCF Done:  E(RB3LYP) =  -826.629130125     A.U. after   12 cycles
 SCF Done:  E(RB3LYP) =  -826.629653758     A.U. after   12 cycles
 SCF Done:  E(RB3LYP) =  -826.629446906     A.U. after   13 cycles
 SCF Done:  E(RB3LYP) =  -826.630159382     A.U. after   12 cycles
 SCF Done:  E(RB3LYP) =  -826.630485115     A.U. after   11 cycles
 SCF Done:  E(RB3LYP) =  -826.630540401     A.U. after   11 cycles
 SCF Done:  E(RB3LYP) =  -826.630577558     A.U. after    9 cycles
 SCF Done:  E(RB3LYP) =  -826.630579948     A.U. after    9 cycles
 SCF Done:  E(RB3LYP) =  -826.630580633     A.U. after    8 cycles
 SCF Done:  E(RB3LYP) =  -826.630580810     A.U. after    7 cycles
 SCF Done:  E(RB3LYP) =  -826.630580859     A.U. after    7 cycles
 Optimization completed.
    -- Stationary point found.
 Normal termination of Gaussian 16 at Fri Dec 11 20:26:15 2020.

 --------------------------------------------------------------------
 #N Geom=AllCheck Guess=TCheck SCRF=Check GenChk RB3LYP/6-31G(d) Freq
 --------------------------------------------------------------------

 Structure from the checkpoint file:  "JID_8394.chk"
 -------------------------------
 CID_111484264_JID_8394_neutraal
 -------------------------------
 Charge =  0 Multiplicity = 1

 SCF Done:  E(RB3LYP) =  -826.630580859     A.U. after    1 cycles

  Exact polarizability: 200.982  22.944 132.731  -6.676   8.792 149.064
 Approx polarizability: 255.932  43.168 199.199  -8.536  22.802 261.494

                      1                      2                      3
                      A                      A                      A
 Frequencies --     22.0435                33.8146                45.1156
 Red. masses --      4.7851                 3.8027                 3.7369
 Frc consts  --      0.0014                 0.0026                 0.0045
 IR Inten    --      1.3292                 0.6941                 0.2316

                      4                      5                      6
                      A                      A                      A
 Frequencies --     66.6896                77.2803                90.6075
 Red. masses --      2.8037                 3.3528                 6.1472
 Frc consts  --      0.0073                 0.0118                 0.0297
 IR Inten    --      0.2060                 2.8930                 0.5166

                      7                      8                      9
                      A                      A                      A
 Frequencies --    115.9013               159.0596               189.6993
 Red. masses --      4.0306                 5.3080                 1.8095
 Frc consts  --      0.0319                 0.0791                 0.0384
 IR Inten    --      1.7639                 3.8015                 2.6852

                     10                     11                     12
                      A                      A                      A
 Frequencies --    203.9131               207.8816               221.6134
 Red. masses --      2.0449                 1.1032                 1.8017
 Frc consts  --      0.0501                 0.0281                 0.0521
 IR Inten    --      1.9639                 0.0859                 0.8980

                     13                     14                     15
                      A                      A                      A
 Frequencies --    272.5064               278.0166               283.8617
 Red. masses --      2.0291                 2.6935                 2.4452
 Frc consts  --      0.0888                 0.1227                 0.1161
 IR Inten    --      0.7470                 2.1689                 5.9351

                     16                     17                     18
                      A                      A                      A
 Frequencies --    292.2898               306.7695               325.7880
 Red. masses --      2.1015                 2.9823                 1.5052
 Frc consts  --      0.1058                 0.1654                 0.0941
 IR Inten    --      4.8307                 7.6386                 5.5458

                     19                     20                     21
                      A                      A                      A
 Frequencies --    350.4868               380.7004               386.2114
 Red. masses --      3.7217                 2.5531                 2.7483
 Frc consts  --      0.2694                 0.2180                 0.2415
 IR Inten    --      0.9288                 2.6706                 1.7845

                     22                     23                     24
                      A                      A                      A
 Frequencies --    396.6230               431.6457               441.1239
 Red. masses --      3.2344                 2.3096                 1.5930
 Frc consts  --      0.2998                 0.2535                 0.1826
 IR Inten    --     15.9019                67.4881               128.8199

                     25                     26                     27
                      A                      A                      A
 Frequencies --    452.4233               463.9652               519.8151
 Red. masses --      2.5810                 2.0187                 3.9078
 Frc consts  --      0.3113                 0.2560                 0.6221
 IR Inten    --      0.2197                49.5764                 2.6767

                     28                     29                     30
                      A                      A                      A
 Frequencies --    549.4419               575.7754               587.3860
 Red. masses --      3.3533                 4.8183                 3.2228
 Frc consts  --      0.5964                 0.9411                 0.6551
 IR Inten    --      3.2399                 9.8033                17.9524

                     31                     32                     33
                      A                      A                      A
 Frequencies --    607.8023               637.0096               695.8296
 Red. masses --      3.4183                 4.5848                 2.7645
 Frc consts  --      0.7440                 1.0961                 0.7886
 IR Inten    --      6.8607                21.6456                 9.3856

                     34                     35                     36
                      A                      A                      A
 Frequencies --    708.0333               728.8386               760.5251
 Red. masses --      2.5208                 5.5396                 2.1492
 Frc consts  --      0.7446                 1.7338                 0.7324
 IR Inten    --      3.7856                17.8122                15.3863

                     37                     38                     39
                      A                      A                      A
 Frequencies --    803.7179               818.4523               857.0256
 Red. masses --      1.4789                 2.4658                 2.6245
 Frc consts  --      0.5628                 0.9732                 1.1358
 IR Inten    --     75.3013                63.2649                10.2943

                     40                     41                     42
                      A                      A                      A
 Frequencies --    887.5741               897.0543               905.3760
 Red. masses --      3.7560                 1.4185                 1.5529
 Frc consts  --      1.7434                 0.6725                 0.7500
 IR Inten    --     19.6755                 3.2958                 9.4610

                     43                     44                     45
                      A                      A                      A
 Frequencies --    930.8191               939.1833               942.3507
 Red. masses --      1.8144                 1.7335                 1.4639
 Frc consts  --      0.9262                 0.9009                 0.7659
 IR Inten    --      0.2610                 6.8176                 3.0863

                     46                     47                     48
                      A                      A                      A
 Frequencies --    970.5844               980.4970               995.4423
 Red. masses --      1.2535                 1.5207                 1.5947
 Frc consts  --      0.6957                 0.8614                 0.9310
 IR Inten    --      1.5988                 3.1403                20.5392

                     49                     50                     51
                      A                      A                      A
 Frequencies --   1017.6500              1043.0887              1073.5510
 Red. masses --      5.8845                 2.4055                 1.6914
 Frc consts  --      3.5905                 1.5420                 1.1485
 IR Inten    --      0.5945                20.8600                59.8497

                     52                     53                     54
                      A                      A                      A
 Frequencies --   1093.2156              1102.8739              1127.7954
 Red. masses --      3.0702                 1.8749                 1.7118
 Frc consts  --      2.1618                 1.3436                 1.2828
 IR Inten    --     64.4985                 2.1337                 2.7667

                     55                     56                     57
                      A                      A                      A
 Frequencies --   1151.7829              1166.1080              1186.5272
 Red. masses --      2.0934                 2.5139                 1.2716
 Frc consts  --      1.6362                 2.0141                 1.0548
 IR Inten    --     25.6971                15.4157                 0.8169

                     58                     59                     60
                      A                      A                      A
 Frequencies --   1195.7515              1205.7251              1217.1243
 Red. masses --      1.9625                 1.1554                 1.9453
 Frc consts  --      1.6533                 0.9897                 1.6979
 IR Inten    --     33.8564                 1.8722                19.5001

                     61                     62                     63
                      A                      A                      A
 Frequencies --   1221.3061              1227.8893              1290.3708
 Red. masses --      1.5865                 2.2200                 3.2647
 Frc consts  --      1.3942                 1.9721                 3.2027
 IR Inten    --      6.8680                22.9374                96.5763

                     64                     65                     66
                      A                      A                      A
 Frequencies --   1314.1642              1327.4957              1333.9052
 Red. masses --      1.7833                 1.4563                 1.6810
 Frc consts  --      1.8145                 1.5120                 1.7623
 IR Inten    --     81.0419                20.8991               106.2408

                     67                     68                     69
                      A                      A                      A
 Frequencies --   1365.0528              1370.7250              1377.5849
 Red. masses --      1.3782                 1.3457                 5.0280
 Frc consts  --      1.5131                 1.4897                 5.6219
 IR Inten    --      2.2716                 9.5406                 6.1510

                     70                     71                     72
                      A                      A                      A
 Frequencies --   1396.4122              1420.9366              1431.6609
 Red. masses --      2.3205                 1.4346                 1.2957
 Frc consts  --      2.6659                 1.7066                 1.5648
 IR Inten    --    291.4784                17.2055                 1.6229

                     73                     74                     75
                      A                      A                      A
 Frequencies --   1437.5079              1451.9280              1488.8605
 Red. masses --      1.3210                 1.2242                 1.7858
 Frc consts  --      1.6083                 1.5206                 2.3323
 IR Inten    --     13.8242                 5.9849                62.9066

                     76                     77                     78
                      A                      A                      A
 Frequencies --   1492.6969              1505.1164              1509.3449
 Red. masses --      1.3926                 1.3432                 1.2642
 Frc consts  --      1.8282                 1.7928                 1.6968
 IR Inten    --     74.8602                11.9833                22.0184

                     79                     80                     81
                      A                      A                      A
 Frequencies --   1517.6200              1520.8218              1521.6103
 Red. masses --      1.0749                 1.0817                 1.0477
 Frc consts  --      1.4587                 1.4740                 1.4293
 IR Inten    --      9.7385                 9.9005                 5.3636

                     82                     83                     84
                      A                      A                      A
 Frequencies --   1526.9796              1536.3327              1537.3845
 Red. masses --      1.0467                 1.2268                 1.8503
 Frc consts  --      1.4379                 1.7061                 2.5766
 IR Inten    --      2.1828                27.2501                 7.1955

                     85                     86                     87
                      A                      A                      A
 Frequencies --   1541.0779              1545.6177              1557.4266
 Red. masses --      1.0556                 1.0593                 1.0529
 Frc consts  --      1.4770                 1.4910                 1.5048
 IR Inten    --      8.6430                 4.7427                16.2389

                     88                     89                     90
                      A                      A                      A
 Frequencies --   1639.6769              1672.4898              1758.1678
 Red. masses --      5.5663                 6.1300                 8.0483
 Frc consts  --      8.8173                10.1027                14.6581
 IR Inten    --     70.8994                35.7291               249.0927

                     91                     92                     93
                      A                      A                      A
 Frequencies --   3020.8292              3024.6561              3040.5239
 Red. masses --      1.0834                 1.0350                 1.0383
 Frc consts  --      5.8248                 5.5790                 5.6554
 IR Inten    --     16.5042                56.9080                24.8008

                     94                     95                     96
                      A                      A                      A
 Frequencies --   3060.8732              3064.3367              3076.8997
 Red. masses --      1.0369                 1.0397                 1.0677
 Frc consts  --      5.7235                 5.7521                 5.9558
 IR Inten    --     20.8079                11.6292                35.3880

                     97                     98                     99
                      A                      A                      A
 Frequencies --   3083.0165              3105.6371              3114.1076
 Red. masses --      1.1066                 1.0996                 1.1007
 Frc consts  --      6.1972                 6.2486                 6.2891
 IR Inten    --     43.7319                28.6504                35.6926

                    100                    101                    102
                      A                      A                      A
 Frequencies --   3125.5002              3131.6995              3139.2742
 Red. masses --      1.1008                 1.1016                 1.1024
 Frc consts  --      6.3357                 6.3655                 6.4007
 IR Inten    --     36.1302                27.9078                23.8537

                    103                    104                    105
                      A                      A                      A
 Frequencies --   3153.8378              3159.9751              3160.8166
 Red. masses --      1.0968                 1.0988                 1.0994
 Frc consts  --      6.4275                 6.4648                 6.4718
 IR Inten    --     18.3483                23.8948                26.4012

                    106                    107                    108
                      A                      A                      A
 Frequencies --   3191.8034              3215.9746              3230.5584
 Red. masses --      1.0875                 1.0927                 1.0921
 Frc consts  --      6.5277                 6.6582                 6.7152
 IR Inten    --     10.7692                 9.6474                12.0559

                    109                    110                    111
                      A                      A                      A
 Frequencies --   3237.6508              3580.8664              3734.5183
 Red. masses --      1.0910                 1.0736                 1.0659
 Frc consts  --      6.7382                 8.1112                 8.7585
 IR Inten    --      0.5021                21.4280                13.0142

 - Thermochemistry -
 -------------------
 Temperature   298.150 Kelvin.  Pressure   1.00000 Atm.
 Atom     1 has atomic number  6 and mass  12.00000

 Molecular mass:   251.15214 amu.
 Principal axes and moments of inertia in atomic units:
                           1         2         3
     Eigenvalues --  2333.481908303.670618725.65054
           X            0.99999   0.00131  -0.00370
           Y           -0.00122   0.99967   0.02575
           Z            0.00374  -0.02575   0.99966
 This molecule is an asymmetric top.
 Rotational symmetry number  1.
 Warning -- assumption of classical behavior for rotation
           may cause significant error
 Rotational temperatures (Kelvin)      0.03712     0.01043     0.00993
 Rotational constants (GHZ):           0.77341     0.21734     0.20683
 Zero-point vibrational energy     884442.7 (Joules/Mol)
                                  211.38689 (Kcal/Mol)
 Warning -- explicit consideration of  31 degrees of freedom as
           vibrations may cause significant error
 Vibrational temperatures:     31.72    48.65    64.91    95.95   111.19
          (Kelvin)            130.36   166.76   228.85   272.93   293.39
                              299.10   318.85   392.08   400.00   408.41
                              420.54   441.37   468.74   504.27   547.74
                              555.67   570.65   621.04   634.68   650.94
                              667.54   747.90   790.52   828.41   845.12
                              874.49   916.51  1001.14  1018.70  1048.64
                             1094.23  1156.37  1177.57  1233.07  1277.02
                             1290.66  1302.63  1339.24  1351.28  1355.83
                             1396.45  1410.72  1432.22  1464.17  1500.77
                             1544.60  1572.89  1586.79  1622.65  1657.16
                             1677.77  1707.15  1720.42  1734.77  1751.17
                             1757.19  1766.66  1856.56  1890.79  1909.97
                             1919.19  1964.01  1972.17  1982.04  2009.13
                             2044.41  2059.84  2068.25  2089.00  2142.14
                             2147.66  2165.53  2171.61  2183.52  2188.12
                             2189.26  2196.98  2210.44  2211.95  2217.27
                             2223.80  2240.79  2359.13  2406.34  2529.61
                             4346.30  4351.81  4374.64  4403.91  4408.90
                             4426.97  4435.77  4468.32  4480.51  4496.90
                             4505.82  4516.72  4537.67  4546.50  4547.71
                             4592.29  4627.07  4648.05  4658.26  5152.07
                             5373.14

 Zero-point correction=                           0.336866 (Hartree/Particle)
 Thermal correction to Energy=                    0.355704
 Thermal correction to Enthalpy=                  0.356648
 Thermal correction to Gibbs Free Energy=         0.289195
 Sum of electronic and zero-point Energies=           -826.293714
 Sum of electronic and thermal Energies=              -826.274877
 Sum of electronic and thermal Enthalpies=            -826.273932
 Sum of electronic and thermal Free Energies=         -826.341386

                     E (Thermal)             CV                S
                      KCal/Mol        Cal/Mol-Kelvin    Cal/Mol-Kelvin
 Total                  223.208             71.975            141.968
 Electronic               0.000              0.000              0.000
 Translational            0.889              2.981             42.463
 Rotational               0.889              2.981             33.491
 Vibrational            221.430             66.013             66.014
 Vibration     1          0.593              1.985              6.441
 Vibration     2          0.594              1.983              5.592
 Vibration     3          0.595              1.979              5.021
 Vibration     4          0.598              1.970              4.249
 Vibration     5          0.599              1.964              3.959
 Vibration     6          0.602              1.956              3.647
 Vibration     7          0.608              1.936              3.168
 Vibration     8          0.621              1.892              2.561
 Vibration     9          0.633              1.854              2.231
 Vibration    10          0.640              1.834              2.097
 Vibration    11          0.641              1.829              2.062
 Vibration    12          0.648              1.808              1.946
 Vibration    13          0.676              1.724              1.580
 Vibration    14          0.679              1.714              1.546
 Vibration    15          0.682              1.704              1.510
 Vibration    16          0.688              1.688              1.461
 Vibration    17          0.697              1.661              1.380
 Vibration    18          0.710              1.624              1.281
 Vibration    19          0.727              1.574              1.164
 Vibration    20          0.750              1.511              1.036
 Vibration    21          0.755              1.500              1.015
 Vibration    22          0.763              1.477              0.975
 Vibration    23          0.793              1.401              0.853
 Vibration    24          0.801              1.380              0.823
 Vibration    25          0.811              1.356              0.788
 Vibration    26          0.822              1.330              0.755
 Vibration    27          0.875              1.206              0.610
 Vibration    28          0.905              1.141              0.545
 Vibration    29          0.932              1.084              0.493
 Vibration    30          0.945              1.059              0.472
 Vibration    31          0.967              1.015              0.436

                           ! Non-Optimized Parameters !
 Normal termination of Gaussian 16 at Fri Dec 11 20:42:53 2020.

 ----------------------------------------------------------------------
 # B3LYP/6-311++G(d,p) empiricaldispersion=gd3bj scf=xqc pop=npa geom=c
 heck
 ----------------------------------------------------------------------

 ---------------------------------------
 CID_111484264_JID_8394_Energie_neutraal
 ---------------------------------------
 Structure from the checkpoint file:  "JID_8394.chk"
 Charge =  0 Multiplicity = 1

 SCF Done:  E(RB3LYP) =  -826.872836623     A.U. after   15 cycles
 Normal termination of Gaussian 16 at Fri Dec 11 20:49:38 2020.

 ----------------------------------------------------------------------
 # B3LYP/6-311++G(d,p) empiricaldispersion=gd3bj scf=xqc pop=npa geom=c
 heck
 ----------------------------------------------------------------------

 -------------------------------------
 CID_111484264_JID_8394_Energie_kation
 -------------------------------------
 Structure from the checkpoint file:  "JID_8394.chk"
 Charge =  1 Multiplicity = 2

 SCF Done:  E(UB3LYP) =  -826.575520025     A.U. after   27 cycles
 Normal termination of Gaussian 16 at Fri Dec 11 21:05:35 2020.
 Gaussian 16:  ES64L-G16RevA.03 25-Dec-2016

 ----------------------------------------------------------------------
 # B3LYP/6-311++G(d,p) empiricaldispersion=gd3bj scf=xqc pop=npa geom=c
 heck
 ----------------------------------------------------------------------

 ------------------------------------
 CID_111484264_JID_8394_Energie_anion
 ------------------------------------
 Structure from the checkpoint file:  "JID_8394.chk"
 Charge = -1 Multiplicity = 2

                         Standard orientation:
 ---------------------------------------------------------------------
 Center     Atomic      Atomic             Coordinates (Angstroms)
 Number     Number       Type             X           Y           Z
 ---------------------------------------------------------------------
      1          6           0        4.255474   -1.801740   -0.466282
      2          6           0        3.732134   -0.514215    0.187412
      3          6           0        4.094916    0.689321   -0.699931
      4          6           0        2.213710   -0.612831    0.527911
      5          6           0        1.955819   -1.700401    1.573605
      6          6           0        1.641839    0.725751    1.101902
      7          7           0        1.227879    1.694204    0.090678
      8          6           0        0.126475    1.494756   -0.728140
      9          8           0        0.180574    1.765782   -1.924770
     10          6           0       -1.132603    1.005391   -0.085349
     11          6           0       -1.945684    0.145754   -0.817440
     12          6           0       -3.150811   -0.314690   -0.276432
     13          6           0       -3.550649    0.109701    0.996844
     14          6           0       -2.737650    0.991840    1.714106
     15          6           0       -1.530743    1.439445    1.188536
     16          8           0       -3.864157   -1.168058   -1.065263
     17          6           0       -5.098194   -1.657942   -0.569459
     18          8           0        1.449473   -1.007730   -0.613535
     19          1           0        3.706186   -2.013482   -1.388869
     20          1           0        4.153040   -2.671207    0.188526
     21          1           0        5.317533   -1.697955   -0.713610
     22          1           0        4.252381   -0.378079    1.146780
     23          1           0        3.517845    0.703480   -1.633628
     24          1           0        3.950030    1.646709   -0.187570
     25          1           0        5.151644    0.641761   -0.982739
     26          1           0        2.450701   -1.453727    2.519659
     27          1           0        0.879597   -1.783652    1.751979
     28          1           0        2.315328   -2.673945    1.234889
     29          1           0        0.768705    0.490173    1.710343
     30          1           0        2.378665    1.200437    1.759073
     31          1           0        1.984745    2.087803   -0.456970
     32          1           0       -1.647175   -0.176095   -1.808163
     33          1           0       -4.483036   -0.230930    1.431018
     34          1           0       -3.061424    1.331742    2.693824
     35          1           0       -0.911381    2.139158    1.739659
     36          1           0       -4.960728   -2.235451    0.354395
     37          1           0       -5.809347   -0.842647   -0.381431
     38          1           0       -5.495496   -2.311332   -1.347809
     39          1           0        1.575722   -0.352981   -1.319250
 ---------------------------------------------------------------------

 SCF Done:  E(UB3LYP) =  -826.866604639     A.U. after   33 cycles
 SCF Done:  E(UB3LYP) =  -826.866604665     a.u. after    2 cycles

 The electronic state is 2-A.
 Alpha  occ. eigenvalues --  -19.05414 -19.01979 -18.96947 -14.21570 -10.14627
 Alpha  occ. eigenvalues --  -10.13395 -10.13142 -10.12419 -10.09909 -10.08269
 Alpha  occ. eigenvalues --  -10.07047 -10.06722 -10.06375 -10.06321 -10.06123
 Alpha  occ. eigenvalues --  -10.06043 -10.05914 -10.05173  -0.97078  -0.93026
 Alpha  occ. eigenvalues --   -0.91707  -0.80543  -0.74479  -0.71318  -0.65778
 Alpha  occ. eigenvalues --   -0.65603  -0.64742  -0.60026  -0.59706  -0.58061
 Alpha  occ. eigenvalues --   -0.53024  -0.52158  -0.49442  -0.46983  -0.46391
 Alpha  occ. eigenvalues --   -0.42861  -0.40928  -0.38678  -0.38237  -0.38115
 Alpha  occ. eigenvalues --   -0.37731  -0.37099  -0.36004  -0.35485  -0.32692
 Alpha  occ. eigenvalues --   -0.32560  -0.31759  -0.31194  -0.30770  -0.29692
 Alpha  occ. eigenvalues --   -0.29168  -0.28704  -0.28365  -0.27639  -0.27193
 Alpha  occ. eigenvalues --   -0.26545  -0.26368  -0.25750  -0.24234  -0.24021
 Alpha  occ. eigenvalues --   -0.22981  -0.22207  -0.21810  -0.18578  -0.15865
 Alpha  occ. eigenvalues --   -0.14378  -0.13354  -0.12111   0.04178
 Alpha virt. eigenvalues --    0.05618   0.05927   0.07450   0.07760   0.07946
 Alpha virt. eigenvalues --    0.08962   0.09324   0.09731   0.10214   0.10335
 Alpha virt. eigenvalues --    0.10786   0.11037   0.11408   0.11866   0.12326

  Beta  occ. eigenvalues --  -19.05409 -19.01971 -18.96792 -14.21557 -10.14486
  Beta  occ. eigenvalues --  -10.13378 -10.13140 -10.12445 -10.09885 -10.08256
  Beta  occ. eigenvalues --  -10.07024 -10.06714 -10.06361 -10.06310 -10.06017
  Beta  occ. eigenvalues --  -10.05893 -10.05888 -10.05058  -0.97068  -0.92950
  Beta  occ. eigenvalues --   -0.91476  -0.80426  -0.74302  -0.71288  -0.65729
  Beta  occ. eigenvalues --   -0.65521  -0.64449  -0.59970  -0.59588  -0.57996
  Beta  occ. eigenvalues --   -0.52719  -0.52072  -0.49376  -0.46942  -0.46276
  Beta  occ. eigenvalues --   -0.42782  -0.40888  -0.38634  -0.38139  -0.37994
  Beta  occ. eigenvalues --   -0.37700  -0.36968  -0.35927  -0.35388  -0.32647
  Beta  occ. eigenvalues --   -0.32440  -0.31664  -0.31099  -0.30714  -0.29621
  Beta  occ. eigenvalues --   -0.29097  -0.28607  -0.28077  -0.27583  -0.27060
  Beta  occ. eigenvalues --   -0.26357  -0.26248  -0.25639  -0.24099  -0.23968
  Beta  occ. eigenvalues --   -0.22913  -0.22117  -0.21611  -0.18503  -0.15504
  Beta  occ. eigenvalues --   -0.13865  -0.12911  -0.11685
  Beta virt. eigenvalues --    0.05932   0.06419   0.07578   0.07859   0.08111
  Beta virt. eigenvalues --    0.08370   0.09158   0.09516   0.09870   0.10336
  Beta virt. eigenvalues --    0.10479   0.10899   0.11215   0.11412   0.12018

 Mulliken charges and spin densities:
               1          2
     1  C    0.077163  -0.687981
     2  C   -0.468751   0.695614
     3  C    0.174039  -0.826736
     4  C   -0.073302   0.117254
     5  C    0.234451  -0.767200
     6  C   -0.027301  -0.421686
     7  N   -0.175708   0.065392
     8  C   -0.937571   0.055754
     9  O   -0.237027   0.054429
    10  C    0.971720   0.022125
    11  C   -0.050200   0.097053
    12  C   -0.572417   0.060720
    13  C    0.400124  -0.045190
    14  C   -0.213246  -0.100776
    15  C   -0.457371  -0.004905
    16  O   -0.174710   0.018819
    17  C    0.034501  -0.376590
    18  O   -0.010117   0.001199
    19  H    0.086266   0.084870
    20  H   -0.005700   0.124700
    21  H   -0.051140   0.181209
    22  H   -0.287683   0.479375
    23  H    0.153962   0.014057
    24  H   -0.159798   0.294813
    25  H   -0.189986   0.351516
    26  H   -0.048110   0.203001
    27  H    0.175076  -0.033059
    28  H    0.107729   0.022692
    29  H    0.217723  -0.082830
    30  H   -0.383542   0.598354
    31  H    0.293678   0.020472
    32  H    0.212981  -0.004031
    33  H    0.021309   0.115530
    34  H    0.008415   0.143823
    35  H    0.082357   0.081610
    36  H   -0.053134   0.200475
    37  H    0.045744   0.097478
    38  H    0.017967   0.135864
    39  H    0.261611   0.012786
 Sum of Mulliken charges =  -1.00000   1.00000

 Dipole moment (field-independent basis, Debye):
    X=             -2.4727    Y=             -2.1001    Z=              0.7492  Tot=              3.3296
 Quadrupole moment (field-independent basis, Debye-Ang):
   XX=           -184.8701   YY=           -144.6965   ZZ=           -140.5369
   XY=             -1.7786   XZ=             -7.2749   YZ=              3.4887

 Summary of Natural Population Analysis:

                                       Natural Population
                Natural  -----------------------------------------------
    Atom  No    Charge         Core      Valence    Rydberg      Total
 -----------------------------------------------------------------------
      C    1   -0.28645      0.99965     2.27993    0.00687     3.28645
      C    2   -0.12323      0.99956     2.11210    0.01157     3.12323
      C    3   -0.29111      0.99965     2.28426    0.00721     3.29111
      C    4    0.12877      0.99951     1.85624    0.01548     2.87123
      C    5   -0.29122      0.99961     2.28482    0.00678     3.29122
      C    6   -0.10033      0.99955     2.08805    0.01272     3.10033
      N    7   -0.33076      0.99968     2.82010    0.01098     3.83076
      C    8    0.35593      0.99961     1.62003    0.02443     2.64407
      O    9   -0.31259      0.99988     3.30755    0.00516     4.31259
      C   10   -0.04167      0.99945     2.03188    0.01033     3.04167
      C   11   -0.07393      0.99949     2.06601    0.00843     3.07393
      C   12    0.15091      0.99939     1.83614    0.01356     2.84909
      C   13   -0.12311      0.99952     2.11440    0.00919     3.12311
      C   14   -0.09943      0.99958     2.09029    0.00956     3.09943
      C   15   -0.10857      0.99953     2.09939    0.00964     3.10857
      O   16   -0.27363      0.99985     3.26475    0.00903     4.27363
      C   17   -0.09896      0.99961     2.09134    0.00801     3.09896
      O   18   -0.37558      0.99988     3.36921    0.00648     4.37558
      H   19    0.10238      0.00000     0.39675    0.00087     0.39762
      H   20    0.09909      0.00000     0.40017    0.00074     0.40091
      H   21    0.09717      0.00000     0.40204    0.00078     0.40283
      H   22    0.09854      0.00000     0.39884    0.00261     0.40146
      H   23    0.09587      0.00000     0.40299    0.00114     0.40413
      H   24    0.09958      0.00000     0.39916    0.00126     0.40042
      H   25    0.10236      0.00000     0.39682    0.00082     0.39764
      H   26    0.09989      0.00000     0.39932    0.00078     0.40011
      H   27    0.10633      0.00000     0.39280    0.00087     0.39367
      H   28    0.10265      0.00000     0.39656    0.00079     0.39735
      H   29    0.10610      0.00000     0.39238    0.00152     0.39390
      H   30    0.09988      0.00000     0.39882    0.00129     0.40012
      H   31    0.18968      0.00000     0.30786    0.00246     0.31032
      H   32    0.10973      0.00000     0.38882    0.00145     0.39027
      H   33    0.09827      0.00000     0.40052    0.00121     0.40173
      H   34    0.09599      0.00000     0.40321    0.00080     0.40401
      H   35    0.10234      0.00000     0.39630    0.00137     0.39766
      H   36    0.08292      0.00000     0.41515    0.00193     0.41708
      H   37    0.08147      0.00000     0.41685    0.00168     0.41853
      H   38    0.08993      0.00000     0.40902    0.00105     0.41007
      H   39    0.23474      0.00000     0.26268    0.00258     0.26526
 =======================================================================
   * Total *    0.00000     17.99301    49.79357    0.21342    68.00000

 Normal termination of Gaussian 16 at Fri Dec 11 21:43:03 2020.
