 Gaussian 16, Revision A.03,

 -----------------------------------------------------------
 # opt freq B3LYP/6-31G(d) empiricaldispersion=gd3bj scf=xqc
 -----------------------------------------------------------

 ------------------------------
 CID_21900047_JID_4490_neutraal
 ------------------------------
 Symbolic Z-matrix:
 Charge =  0 Multiplicity = 1

 SCF Done:  E(RB3LYP) =  -647.023919760     A.U. after   15 cycles
 SCF Done:  E(RB3LYP) =  -647.042828077     A.U. after   14 cycles
 SCF Done:  E(RB3LYP) =  -647.046748300     A.U. after   13 cycles
 SCF Done:  E(RB3LYP) =  -647.049273774     A.U. after   14 cycles
 SCF Done:  E(RB3LYP) =  -647.050134252     A.U. after   12 cycles
 SCF Done:  E(RB3LYP) =  -647.050520115     A.U. after   12 cycles
 SCF Done:  E(RB3LYP) =  -647.050709756     A.U. after   12 cycles
 SCF Done:  E(RB3LYP) =  -647.050782215     A.U. after   11 cycles
 SCF Done:  E(RB3LYP) =  -647.050823230     A.U. after   11 cycles
 SCF Done:  E(RB3LYP) =  -647.050837938     A.U. after   11 cycles
 SCF Done:  E(RB3LYP) =  -647.052447136     A.U. after   13 cycles
 SCF Done:  E(RB3LYP) =  -647.052577146     A.U. after   11 cycles
 SCF Done:  E(RB3LYP) =  -647.052583535     A.U. after   12 cycles
 SCF Done:  E(RB3LYP) =  -647.052588504     A.U. after   10 cycles
 SCF Done:  E(RB3LYP) =  -647.052590941     A.U. after   10 cycles
 SCF Done:  E(RB3LYP) =  -647.052591399     A.U. after    8 cycles
 Optimization completed.
    -- Stationary point found.
 Normal termination of Gaussian 16 at Thu Dec 10 10:03:18 2020.

 --------------------------------------------------------------------
 #N Geom=AllCheck Guess=TCheck SCRF=Check GenChk RB3LYP/6-31G(d) Freq
 --------------------------------------------------------------------

 Structure from the checkpoint file:  "JID_4490.chk"
 ------------------------------
 CID_21900047_JID_4490_neutraal
 ------------------------------
 Charge =  0 Multiplicity = 1

 SCF Done:  E(RB3LYP) =  -647.052591399     A.U. after    1 cycles

  Exact polarizability: 119.880   0.978 108.748   0.320  -6.396 102.473
 Approx polarizability: 189.686  -4.515 181.315   2.365 -18.628 165.769

                      1                      2                      3
                      A                      A                      A
 Frequencies --     35.1574                43.6255                72.8148
 Red. masses --      9.1286                 9.4636                 7.7265
 Frc consts  --      0.0066                 0.0106                 0.0241
 IR Inten    --      0.1237                 0.2145                 0.3529

                      4                      5                      6
                      A                      A                      A
 Frequencies --    101.5949               147.1190               217.8257
 Red. masses --      7.8844                 4.2608                 3.7870
 Frc consts  --      0.0479                 0.0543                 0.1059
 IR Inten    --      1.7975                 0.5540                 2.3332

                      7                      8                      9
                      A                      A                      A
 Frequencies --    254.1186               259.1029               271.6651
 Red. masses --      2.2102                 1.2294                 2.6790
 Frc consts  --      0.0841                 0.0486                 0.1165
 IR Inten    --      0.5075                 0.3357                 2.4204

                     10                     11                     12
                      A                      A                      A
 Frequencies --    296.1105               333.1295               355.3683
 Red. masses --      1.7068                 5.3133                 3.0955
 Frc consts  --      0.0882                 0.3474                 0.2303
 IR Inten    --      0.6037                 4.4958                 4.6663

                     13                     14                     15
                      A                      A                      A
 Frequencies --    362.3424               413.5728               437.1930
 Red. masses --      1.7535                 4.1693                 3.2782
 Frc consts  --      0.1356                 0.4202                 0.3692
 IR Inten    --      1.7393                 5.9456                 4.1423

                     16                     17                     18
                      A                      A                      A
 Frequencies --    483.6039               496.4201               551.7512
 Red. masses --      4.5043                 3.4402                 4.4421
 Frc consts  --      0.6207                 0.4995                 0.7968
 IR Inten    --      1.2972                 2.4782                 5.4819

                     19                     20                     21
                      A                      A                      A
 Frequencies --    575.5098               578.3195               587.2263
 Red. masses --     12.3264                11.2996                 4.8231
 Frc consts  --      2.4054                 2.2266                 0.9799
 IR Inten    --      2.8211                35.4564                 3.8713

                     22                     23                     24
                      A                      A                      A
 Frequencies --    617.8555               651.0139               685.6161
 Red. masses --      6.2596                 6.8265                 4.1166
 Frc consts  --      1.4079                 1.7046                 1.1401
 IR Inten    --      9.9561                16.9080                22.6933

                     25                     26                     27
                      A                      A                      A
 Frequencies --    731.1430               778.6402               795.7415
 Red. masses --      2.1033                 2.7943                 1.6646
 Frc consts  --      0.6624                 0.9981                 0.6210
 IR Inten    --     24.1709                43.7371                10.1813

                     28                     29                     30
                      A                      A                      A
 Frequencies --    868.2136               910.2303               949.3134
 Red. masses --      2.6188                 2.1970                 2.2581
 Frc consts  --      1.1631                 1.0724                 1.1990
 IR Inten    --     25.5021                 8.8966                 2.6013

                     31                     32                     33
                      A                      A                      A
 Frequencies --    965.8820               981.8151               989.1353
 Red. masses --      2.0163                 1.3061                 1.3813
 Frc consts  --      1.1083                 0.7418                 0.7962
 IR Inten    --      2.2766                 0.4721                 0.1725

                     34                     35                     36
                      A                      A                      A
 Frequencies --   1010.3696              1096.8967              1140.8298
 Red. masses --      1.7435                 3.6009                 3.4844
 Frc consts  --      1.0487                 2.5526                 2.6719
 IR Inten    --      0.4763                61.2215                23.7621

                     37                     38                     39
                      A                      A                      A
 Frequencies --   1149.9134              1164.4191              1179.5428
 Red. masses --      1.9422                 1.3951                 2.0967
 Frc consts  --      1.5132                 1.1145                 1.7188
 IR Inten    --     43.8243                 0.8652                12.6794

                     40                     41                     42
                      A                      A                      A
 Frequencies --   1211.9301              1234.3376              1281.5083
 Red. masses --      1.8978                 1.5741                 2.0616
 Frc consts  --      1.6423                 1.4130                 1.9948
 IR Inten    --      3.3601                 0.8341                 0.7559

                     43                     44                     45
                      A                      A                      A
 Frequencies --   1394.3797              1428.9106              1436.1099
 Red. masses --      1.4514                 1.2679                 1.3270
 Frc consts  --      1.6626                 1.5253                 1.6125
 IR Inten    --      1.7693                 4.6214                11.9213

                     46                     47                     48
                      A                      A                      A
 Frequencies --   1442.7687              1452.1936              1463.5801
 Red. masses --     11.2263                 1.6165                 8.5646
 Frc consts  --     13.7683                 2.0086                10.8091
 IR Inten    --     22.4737                 0.4817                21.0710

                     49                     50                     51
                      A                      A                      A
 Frequencies --   1513.7872              1517.2749              1526.9755
 Red. masses --      1.0530                 1.0562                 1.0546
 Frc consts  --      1.4218                 1.4326                 1.4487
 IR Inten    --      2.6209                 5.5597                 2.7262

                     52                     53                     54
                      A                      A                      A
 Frequencies --   1539.1357              1656.3321              1723.0342
 Red. masses --      1.0538                 8.6314                 5.7278
 Frc consts  --      1.4708                13.9517                10.0190
 IR Inten    --      0.3399                 0.4062                 1.9015

                     55                     56                     57
                      A                      A                      A
 Frequencies --   2338.9232              2357.6296              3074.1016
 Red. masses --     12.6995                12.7066                 1.0345
 Frc consts  --     40.9325                41.6131                 5.7597
 IR Inten    --    526.2239              1378.9026                 7.2682

                     58                     59                     60
                      A                      A                      A
 Frequencies --   3077.5016              3145.6153              3150.7338
 Red. masses --      1.0342                 1.1036                 1.1030
 Frc consts  --      5.7709                 6.4340                 6.4513
 IR Inten    --     16.5431                20.4502                 7.2576

                     61                     62                     63
                      A                      A                      A
 Frequencies --   3158.4953              3161.9531              3184.4779
 Red. masses --      1.1035                 1.1040                 1.0849
 Frc consts  --      6.4862                 6.5032                 6.4820
 IR Inten    --     16.2605                10.2597                 0.7570

                     64                     65                     66
                      A                      A                      A
 Frequencies --   3193.8387              3205.6717              3214.9447
 Red. masses --      1.0870                 1.0967                 1.0990
 Frc consts  --      6.5328                 6.6401                 6.6925
 IR Inten    --      6.1519                20.7358                11.7250

 - Thermochemistry -
 -------------------
 Temperature   298.150 Kelvin.  Pressure   1.00000 Atm.
 Atom     1 has atomic number  6 and mass  12.00000

 Molecular mass:   190.07423 amu.
 Principal axes and moments of inertia in atomic units:
                           1         2         3
     Eigenvalues --  2080.270162397.474773031.86619
           X            0.99969  -0.02424  -0.00535
           Y            0.02405   0.99915  -0.03346
           Z            0.00615   0.03332   0.99943
 This molecule is an asymmetric top.
 Rotational symmetry number  1.
 Warning -- assumption of classical behavior for rotation
           may cause significant error
 Rotational temperatures (Kelvin)      0.04164     0.03613     0.02857
 Rotational constants (GHZ):           0.86755     0.75277     0.59526
 Zero-point vibrational energy     488233.6 (Joules/Mol)
                                  116.69064 (Kcal/Mol)
 Warning -- explicit consideration of  22 degrees of freedom as
           vibrations may cause significant error
 Vibrational temperatures:     50.58    62.77   104.76   146.17   211.67
          (Kelvin)            313.40   365.62   372.79   390.87   426.04
                              479.30   511.30   521.33   595.04   629.02
                              695.80   714.24   793.85   828.03   832.07
                              844.89   888.96   936.66   986.45  1051.95
                             1120.29  1144.89  1249.17  1309.62  1365.85
                             1389.69  1412.61  1423.15  1453.70  1578.19
                             1641.40  1654.47  1675.34  1697.10  1743.70
                             1775.94  1843.80  2006.20  2055.88  2066.24
                             2075.82  2089.38  2105.77  2178.00  2183.02
                             2196.98  2214.47  2383.09  2479.06  3365.19
                             3392.10  4422.95  4427.84  4525.84  4533.20
                             4544.37  4549.35  4581.75  4595.22  4612.25
                             4625.59

 Zero-point correction=                           0.185958 (Hartree/Particle)
 Thermal correction to Energy=                    0.199052
 Thermal correction to Enthalpy=                  0.199997
 Thermal correction to Gibbs Free Energy=         0.145997
 Sum of electronic and zero-point Energies=           -646.866633
 Sum of electronic and thermal Energies=              -646.853539
 Sum of electronic and thermal Enthalpies=            -646.852595
 Sum of electronic and thermal Free Energies=         -646.906594

                     E (Thermal)             CV                S
                      KCal/Mol        Cal/Mol-Kelvin    Cal/Mol-Kelvin
 Total                  124.907             49.528            113.652
 Electronic               0.000              0.000              0.000
 Translational            0.889              2.981             41.632
 Rotational               0.889              2.981             31.092
 Vibrational            123.130             43.566             40.927
 Vibration     1          0.594              1.982              5.515
 Vibration     2          0.595              1.980              5.087
 Vibration     3          0.599              1.967              4.076
 Vibration     4          0.604              1.948              3.423
 Vibration     5          0.617              1.906              2.709
 Vibration     6          0.646              1.814              1.977
 Vibration     7          0.665              1.756              1.702
 Vibration     8          0.668              1.747              1.668
 Vibration     9          0.675              1.725              1.586
 Vibration    10          0.690              1.681              1.439
 Vibration    11          0.715              1.609              1.245
 Vibration    12          0.731              1.564              1.142
 Vibration    13          0.736              1.550              1.112
 Vibration    14          0.777              1.441              0.914
 Vibration    15          0.798              1.389              0.835
 Vibration    16          0.840              1.286              0.700
 Vibration    17          0.852              1.258              0.667
 Vibration    18          0.907              1.136              0.541
 Vibration    19          0.932              1.084              0.494
 Vibration    20          0.935              1.078              0.488
 Vibration    21          0.944              1.059              0.472
 Vibration    22          0.978              0.994              0.420

 Optimization completed.
    -- Stationary point found.
 Normal termination of Gaussian 16 at Thu Dec 10 10:10:54 2020.

 ----------------------------------------------------------------------
 # B3LYP/6-311++G(d,p) empiricaldispersion=gd3bj scf=xqc pop=npa geom=c
 heck
 ----------------------------------------------------------------------

 --------------------------------------
 CID_21900047_JID_4490_Energie_neutraal
 --------------------------------------
 Structure from the checkpoint file:  "JID_4490.chk"
 Charge =  0 Multiplicity = 1

 SCF Done:  E(RB3LYP) =  -647.237481561     A.U. after   16 cycles
 Normal termination of Gaussian 16 at Thu Dec 10 10:14:03 2020.

 ----------------------------------------------------------------------
 # B3LYP/6-311++G(d,p) empiricaldispersion=gd3bj scf=xqc pop=npa geom=c
 heck
 ----------------------------------------------------------------------

 ------------------------------------
 CID_21900047_JID_4490_Energie_kation
 ------------------------------------
 Structure from the checkpoint file:  "JID_4490.chk"
 Charge =  1 Multiplicity = 2

 SCF Done:  E(UB3LYP) =  -646.916363518     A.U. after   22 cycles
 Normal termination of Gaussian 16 at Thu Dec 10 10:18:48 2020.
 Gaussian 16:  ES64L-G16RevA.03 25-Dec-2016

 ----------------------------------------------------------------------
 # B3LYP/6-311++G(d,p) empiricaldispersion=gd3bj scf=xqc pop=npa geom=c
 heck
 ----------------------------------------------------------------------

 -----------------------------------
 CID_21900047_JID_4490_Energie_anion
 -----------------------------------
 Structure from the checkpoint file:  "JID_4490.chk"
 Charge = -1 Multiplicity = 2

                         Standard orientation:
 ---------------------------------------------------------------------
 Center     Atomic      Atomic             Coordinates (Angstroms)
 Number     Number       Type             X           Y           Z
 ---------------------------------------------------------------------
      1          6           0        0.265098   -0.944418    2.208972
      2          6           0        0.463317   -0.166493    0.906729
      3          6           0        1.874828    0.391649    0.809806
      4          6           0        2.409897    0.716761   -0.376296
      5          6           0        1.672350    0.477157   -1.617693
      6          6           0        0.583933   -0.305792   -1.620594
      7          6           0        0.146052   -1.039201   -0.363137
      8          6           0        0.893757   -2.386186   -0.319633
      9          7           0       -1.275930   -1.343495   -0.426833
     10          6           0       -2.283138   -0.665804   -0.392410
     11          8           0       -3.347536   -0.162955   -0.390527
     12          7           0       -0.489821    0.959904    0.942705
     13          6           0       -0.532363    2.024435    0.359651
     14          8           0       -0.688358    3.086899   -0.120842
     15          1           0       -0.732500   -1.389510    2.244196
     16          1           0        0.369029   -0.258918    3.054795
     17          1           0        1.014134   -1.733458    2.311113
     18          1           0        2.386566    0.601859    1.744845
     19          1           0        3.388289    1.186198   -0.430987
     20          1           0        2.022565    0.943159   -2.534281
     21          1           0        0.024217   -0.515516   -2.527055
     22          1           0        0.522444   -3.008542    0.498212
     23          1           0        0.723247   -2.921880   -1.256968
     24          1           0        1.967034   -2.222455   -0.196404
 ---------------------------------------------------------------------

 SCF Done:  E(UB3LYP) =  -647.247224125     A.U. after   27 cycles

 The electronic state is 2-A.
 Alpha  occ. eigenvalues --  -19.04084 -19.03115 -14.20232 -14.19246 -10.17519
 Alpha  occ. eigenvalues --  -10.16388 -10.10258 -10.10141 -10.03956 -10.03388
 Alpha  occ. eigenvalues --  -10.00879 -10.00668 -10.00062  -9.99912  -0.97820
 Alpha  occ. eigenvalues --   -0.96829  -0.83500  -0.80703  -0.70159  -0.63770
 Alpha  occ. eigenvalues --   -0.62972  -0.56400  -0.53892  -0.49295  -0.46319
 Alpha  occ. eigenvalues --   -0.41525  -0.39744  -0.37986  -0.37259  -0.35205
 Alpha  occ. eigenvalues --   -0.33967  -0.33706  -0.32443  -0.31519  -0.31362
 Alpha  occ. eigenvalues --   -0.29296  -0.27751  -0.27182  -0.26317  -0.25995
 Alpha  occ. eigenvalues --   -0.25725  -0.24512  -0.22393  -0.19630  -0.17794
 Alpha  occ. eigenvalues --   -0.17236  -0.16140  -0.15198  -0.13873  -0.08079
 Alpha  occ. eigenvalues --    0.05013
 Alpha virt. eigenvalues --    0.08600   0.09892   0.10055   0.10761   0.11937
 Alpha virt. eigenvalues --    0.12194   0.12808   0.13264   0.13520   0.13843
 Alpha virt. eigenvalues --    0.14864   0.15220   0.15767   0.15938   0.17213

  Beta  occ. eigenvalues --  -19.04079 -19.03054 -14.20203 -14.19216 -10.17504
  Beta  occ. eigenvalues --  -10.16331 -10.10270 -10.10131 -10.03929 -10.03324
  Beta  occ. eigenvalues --  -10.00796 -10.00507  -9.99629  -9.99515  -0.97801
  Beta  occ. eigenvalues --   -0.96718  -0.83398  -0.80597  -0.69812  -0.63416
  Beta  occ. eigenvalues --   -0.62570  -0.55874  -0.53733  -0.49161  -0.45534
  Beta  occ. eigenvalues --   -0.41247  -0.39478  -0.37894  -0.37132  -0.35006
  Beta  occ. eigenvalues --   -0.33833  -0.33539  -0.32299  -0.31315  -0.31235
  Beta  occ. eigenvalues --   -0.29041  -0.27613  -0.27041  -0.26194  -0.25828
  Beta  occ. eigenvalues --   -0.25571  -0.24321  -0.22210  -0.19402  -0.17286
  Beta  occ. eigenvalues --   -0.16806  -0.15621  -0.14468  -0.13685  -0.05914
  Beta virt. eigenvalues --    0.08477   0.09844   0.09979   0.10585   0.11532
  Beta virt. eigenvalues --    0.11890   0.12133   0.12841   0.13287   0.13687
  Beta virt. eigenvalues --    0.13951   0.14799   0.15439   0.15721   0.15952

 Mulliken charges and spin densities:
               1          2
     1  C    0.174862  -0.388645
     2  C   -0.220109   0.273975
     3  C   -0.510720   0.289468
     4  C   -0.426698   0.199706
     5  C   -0.361862   0.131618
     6  C   -0.251971   0.303842
     7  C   -0.243899   0.140033
     8  C   -0.311117  -0.339758
     9  N    0.066035   0.006160
    10  C    0.412413   0.007229
    11  O   -0.314448  -0.003119
    12  N   -0.017875  -0.046807
    13  C    0.384249   0.017666
    14  O   -0.309829   0.012878
    15  H    0.127409   0.020760
    16  H    0.149042   0.011413
    17  H   -0.023378   0.162437
    18  H    0.084421   0.020582
    19  H    0.098024   0.000748
    20  H    0.106853  -0.004333
    21  H    0.136657  -0.029255
    22  H   -0.002808   0.139793
    23  H    0.088468   0.061804
    24  H    0.166280   0.011802
 Sum of Mulliken charges =  -1.00000   1.00000

 Dipole moment (field-independent basis, Debye):
    X=             -0.1210    Y=             -1.6491    Z=              1.0258  Tot=              1.9458
 Quadrupole moment (field-independent basis, Debye-Ang):
   XX=           -112.0552   YY=           -108.4408   ZZ=            -95.0029
   XY=              3.2057   XZ=             -0.3312   YZ=              1.8215

 Summary of Natural Population Analysis:

                                       Natural Population
                Natural  -----------------------------------------------
    Atom  No    Charge         Core      Valence    Rydberg      Total
 -----------------------------------------------------------------------
      C    1   -0.28261      0.99963     2.27460    0.00838     3.28261
      C    2    0.05707      0.99948     1.92929    0.01416     2.94293
      C    3   -0.04313      0.99950     2.03030    0.01333     3.04313
      C    4   -0.08552      0.99953     2.07728    0.00872     3.08552
      C    5   -0.10735      0.99953     2.09896    0.00886     3.10735
      C    6   -0.02020      0.99950     2.01055    0.01015     3.02020
      C    7    0.04855      0.99947     1.93714    0.01484     2.95145
      C    8   -0.27749      0.99962     2.27018    0.00769     3.27749
      N    9   -0.28349      0.99951     2.77295    0.01103     3.78349
      C   10    0.42731      0.99960     1.55433    0.01877     2.57269
      O   11   -0.27503      0.99987     3.26791    0.00725     4.27503
      N   12   -0.29913      0.99952     2.78878    0.01083     3.79913
      C   13    0.44362      0.99959     1.53845    0.01833     2.55638
      O   14   -0.26575      0.99987     3.25863    0.00725     4.26575
      H   15    0.09980      0.00000     0.39923    0.00097     0.40020
      H   16    0.10052      0.00000     0.39854    0.00095     0.39948
      H   17    0.10226      0.00000     0.39693    0.00081     0.39774
      H   18    0.08722      0.00000     0.41161    0.00117     0.41278
      H   19    0.08883      0.00000     0.40959    0.00158     0.41117
      H   20    0.09059      0.00000     0.40771    0.00171     0.40941
      H   21    0.08954      0.00000     0.40952    0.00094     0.41046
      H   22    0.09606      0.00000     0.40284    0.00110     0.40394
      H   23    0.09947      0.00000     0.39942    0.00111     0.40053
      H   24    0.10886      0.00000     0.39044    0.00069     0.39114
 =======================================================================
   * Total *    0.00000     13.99421    35.83518    0.17061    50.00000

 Normal termination of Gaussian 16 at Thu Dec 10 10:24:33 2020.
