 Gaussian 16, Revision A.03,

 -----------------------------------------------------------
 # opt freq B3LYP/6-31G(d) empiricaldispersion=gd3bj scf=xqc
 -----------------------------------------------------------

 -------------------------------
 CID_112659442_JID_5299_neutraal
 -------------------------------
 Symbolic Z-matrix:
 Charge =  0 Multiplicity = 1

 SCF Done:  E(RB3LYP) =  -1035.27654831     A.U. after   15 cycles
 SCF Done:  E(RB3LYP) =  -1035.27632629     A.U. after   13 cycles
 SCF Done:  E(RB3LYP) =  -1035.28135003     A.U. after   13 cycles
 SCF Done:  E(RB3LYP) =  -1035.28205719     A.U. after   13 cycles
 SCF Done:  E(RB3LYP) =  -1035.28240341     A.U. after   13 cycles
 SCF Done:  E(RB3LYP) =  -1035.28277056     A.U. after   12 cycles
 SCF Done:  E(RB3LYP) =  -1035.28287882     A.U. after   11 cycles
 SCF Done:  E(RB3LYP) =  -1035.28286074     A.U. after   11 cycles
 SCF Done:  E(RB3LYP) =  -1035.28284603     A.U. after   11 cycles
 SCF Done:  E(RB3LYP) =  -1035.28293578     A.U. after   12 cycles
 SCF Done:  E(RB3LYP) =  -1035.28465581     A.U. after    7 cycles
 SCF Done:  E(RB3LYP) =  -1035.28465589     A.U. after    6 cycles
 SCF Done:  E(RB3LYP) =  -1035.28465594     A.U. after    6 cycles
 SCF Done:  E(RB3LYP) =  -1035.28465595     A.U. after    6 cycles
 Optimization completed.
    -- Stationary point found.
 Normal termination of Gaussian 16 at Thu Dec 10 15:49:49 2020.

 --------------------------------------------------------------------
 #N Geom=AllCheck Guess=TCheck SCRF=Check GenChk RB3LYP/6-31G(d) Freq
 --------------------------------------------------------------------

 Structure from the checkpoint file:  "JID_5299.chk"
 -------------------------------
 CID_112659442_JID_5299_neutraal
 -------------------------------
 Charge =  0 Multiplicity = 1

 SCF Done:  E(RB3LYP) =  -1035.28465595     A.U. after    1 cycles

  Exact polarizability: 149.474  -3.997 136.782  -3.318   5.876 136.156
 Approx polarizability: 183.781  -7.532 196.455  -6.348  19.049 226.420

                      1                      2                      3
                      A                      A                      A
 Frequencies --     25.3803                26.6080                46.3759
 Red. masses --      4.6618                 4.3569                 3.3055
 Frc consts  --      0.0018                 0.0018                 0.0042
 IR Inten    --      0.5529                 1.9801                 4.8346

                      4                      5                      6
                      A                      A                      A
 Frequencies --     55.2862                78.5119                81.7798
 Red. masses --      3.3499                 4.1230                 3.7231
 Frc consts  --      0.0060                 0.0150                 0.0147
 IR Inten    --      0.9985                 0.7613                 2.1127

                      7                      8                      9
                      A                      A                      A
 Frequencies --    115.7423               123.7395               130.0100
 Red. masses --      1.1429                 2.0787                 3.1964
 Frc consts  --      0.0090                 0.0188                 0.0318
 IR Inten    --      0.2056                 0.5337                10.1284

                     10                     11                     12
                      A                      A                      A
 Frequencies --    157.6583               171.7328               211.7913
 Red. masses --      2.5499                 4.0929                 1.6752
 Frc consts  --      0.0373                 0.0711                 0.0443
 IR Inten    --      1.6985                 0.8131                 0.4807

                     13                     14                     15
                      A                      A                      A
 Frequencies --    213.1088               226.6946               228.9390
 Red. masses --      1.3235                 1.2926                 2.4447
 Frc consts  --      0.0354                 0.0391                 0.0755
 IR Inten    --      0.2566                 0.3250                 5.1665

                     16                     17                     18
                      A                      A                      A
 Frequencies --    251.1430               267.5703               285.1511
 Red. masses --      2.1271                 2.1634                 2.8978
 Frc consts  --      0.0790                 0.0913                 0.1388
 IR Inten    --      0.4755                 1.5700                 6.7084

                     19                     20                     21
                      A                      A                      A
 Frequencies --    322.1154               347.9849               368.7946
 Red. masses --      2.9463                 2.6164                 2.6112
 Frc consts  --      0.1801                 0.1867                 0.2092
 IR Inten    --      9.5014                 3.0049                 0.1012

                     22                     23                     24
                      A                      A                      A
 Frequencies --    418.2326               432.0906               467.1522
 Red. masses --      3.3332                 2.8712                 2.0103
 Frc consts  --      0.3435                 0.3158                 0.2585
 IR Inten    --     24.3056                 3.1450                 0.2519

                     25                     26                     27
                      A                      A                      A
 Frequencies --    499.5574               572.8393               593.8446
 Red. masses --      2.5517                 4.2495                 4.6127
 Frc consts  --      0.3752                 0.8216                 0.9584
 IR Inten    --      2.8554                16.4862                 4.0999

                     28                     29                     30
                      A                      A                      A
 Frequencies --    622.5289               657.0224               684.8582
 Red. masses --      4.2663                 3.4985                 3.4867
 Frc consts  --      0.9741                 0.8898                 0.9635
 IR Inten    --      2.1739                 6.5448                 4.0136

                     31                     32                     33
                      A                      A                      A
 Frequencies --    722.5125               759.3214               770.8528
 Red. masses --      4.4436                 2.5375                 3.0188
 Frc consts  --      1.3667                 0.8620                 1.0569
 IR Inten    --      1.1706                 0.7134                 5.7117

                     34                     35                     36
                      A                      A                      A
 Frequencies --    792.7129               838.7480               884.3625
 Red. masses --      1.5054                 1.8704                 1.9489
 Frc consts  --      0.5573                 0.7753                 0.8980
 IR Inten    --      3.6969                 3.4633                 2.2269

                     37                     38                     39
                      A                      A                      A
 Frequencies --    909.0669               947.9776               970.8030
 Red. masses --      1.9340                 1.6634                 1.7105
 Frc consts  --      0.9417                 0.8807                 0.9498
 IR Inten    --      1.5186                 2.5470                 0.6870

                     40                     41                     42
                      A                      A                      A
 Frequencies --    995.2472              1001.7488              1012.0431
 Red. masses --      2.3043                 1.7036                 1.5995
 Frc consts  --      1.3448                 1.0073                 0.9652
 IR Inten    --     12.0761                 6.0182                 7.0422

                     43                     44                     45
                      A                      A                      A
 Frequencies --   1022.3868              1048.1469              1073.1459
 Red. masses --      1.4728                 1.8906                 2.0503
 Frc consts  --      0.9070                 1.2237                 1.3912
 IR Inten    --     14.0113                13.0086                 4.9898

                     46                     47                     48
                      A                      A                      A
 Frequencies --   1088.1324              1117.0089              1138.4896
 Red. masses --      2.0195                 1.9423                 1.5476
 Frc consts  --      1.4088                 1.4278                 1.1819
 IR Inten    --      7.1763                28.2185                 8.4633

                     49                     50                     51
                      A                      A                      A
 Frequencies --   1156.3037              1169.0518              1201.6331
 Red. masses --      1.3121                 1.9246                 2.0934
 Frc consts  --      1.0336                 1.5498                 1.7809
 IR Inten    --     18.6230                51.5589                52.7104

                     52                     53                     54
                      A                      A                      A
 Frequencies --   1220.6352              1237.7140              1256.2375
 Red. masses --      1.5844                 1.7084                 1.4158
 Frc consts  --      1.3909                 1.5420                 1.3164
 IR Inten    --     13.9386                 5.8519                 8.5763

                     55                     56                     57
                      A                      A                      A
 Frequencies --   1277.4264              1280.0006              1325.1072
 Red. masses --      1.6808                 1.2469                 1.3196
 Frc consts  --      1.6160                 1.2037                 1.3651
 IR Inten    --      7.9918                 1.4616                25.9396

                     58                     59                     60
                      A                      A                      A
 Frequencies --   1341.2281              1368.5145              1379.4885
 Red. masses --      1.5336                 1.3628                 1.3051
 Frc consts  --      1.6254                 1.5038                 1.4633
 IR Inten    --     41.9396                 9.6675                 7.0391

                     61                     62                     63
                      A                      A                      A
 Frequencies --   1389.2349              1394.7859              1415.1882
 Red. masses --      1.1928                 1.5319                 1.4477
 Frc consts  --      1.3563                 1.7558                 1.7083
 IR Inten    --     17.0500                 9.9629                59.8212

                     64                     65                     66
                      A                      A                      A
 Frequencies --   1424.9055              1442.1708              1456.1616
 Red. masses --      1.5880                 1.2450                 1.4403
 Frc consts  --      1.8996                 1.5256                 1.7993
 IR Inten    --     57.8880                 8.4240                15.4361

                     67                     68                     69
                      A                      A                      A
 Frequencies --   1474.2502              1484.8716              1493.8226
 Red. masses --      1.0895                 1.0912                 1.0749
 Frc consts  --      1.3952                 1.4176                 1.4133
 IR Inten    --     19.0156                 2.0403                 1.5493

                     70                     71                     72
                      A                      A                      A
 Frequencies --   1495.0883              1500.9479              1504.2314
 Red. masses --      1.0560                 1.2273                 1.1444
 Frc consts  --      1.3908                 1.6290                 1.5256
 IR Inten    --     14.0329                49.1996                12.4081

                     73                     74                     75
                      A                      A                      A
 Frequencies --   1505.6193              1508.5545              1532.1535
 Red. masses --      1.0647                 1.0741                 1.0525
 Frc consts  --      1.4220                 1.4402                 1.4557
 IR Inten    --      7.5465                 1.4725                 6.2431

                     76                     77                     78
                      A                      A                      A
 Frequencies --   1534.6538              1539.4448              1541.7485
 Red. masses --      1.0504                 1.0614                 1.1064
 Frc consts  --      1.4575                 1.4821                 1.5495
 IR Inten    --      5.3344                10.5256                 9.8804

                     79                     80                     81
                      A                      A                      A
 Frequencies --   1559.8629              1735.8392              1806.7658
 Red. masses --      1.0845                 9.2573                 9.9678
 Frc consts  --      1.5547                16.4344                19.1714
 IR Inten    --     32.2816               199.2526               131.8435

                     82                     83                     84
                      A                      A                      A
 Frequencies --   3020.7095              3039.7793              3042.0527
 Red. masses --      1.0818                 1.0478                 1.0561
 Frc consts  --      5.8160                 5.7042                 5.7583
 IR Inten    --     18.2257                39.2447                37.6874

                     85                     86                     87
                      A                      A                      A
 Frequencies --   3042.2084              3052.3820              3059.9903
 Red. masses --      1.0452                 1.0413                 1.0320
 Frc consts  --      5.6995                 5.7161                 5.6936
 IR Inten    --      6.3297                 9.1393                30.5529

                     88                     89                     90
                      A                      A                      A
 Frequencies --   3067.8165              3084.0909              3090.7046
 Red. masses --      1.0595                 1.0708                 1.0816
 Frc consts  --      5.8753                 6.0006                 6.0874
 IR Inten    --     34.9287                 8.2150                 3.5577

                     91                     92                     93
                      A                      A                      A
 Frequencies --   3096.7868              3102.3709              3111.2368
 Red. masses --      1.0933                 1.0925                 1.0989
 Frc consts  --      6.1776                 6.1955                 6.2674
 IR Inten    --      2.7924                30.9792                10.3355

                     94                     95                     96
                      A                      A                      A
 Frequencies --   3112.8448              3118.8490              3123.6874
 Red. masses --      1.1040                 1.0991                 1.0900
 Frc consts  --      6.3026                 6.2989                 6.2664
 IR Inten    --     31.6203                29.9654                23.0369

                     97                     98                     99
                      A                      A                      A
 Frequencies --   3143.3667              3162.1989              3166.7817
 Red. masses --      1.1038                 1.1031                 1.1024
 Frc consts  --      6.4257                 6.4987                 6.5136
 IR Inten    --     12.7664                 4.1700                 9.8794

                    100                    101                    102
                      A                      A                      A
 Frequencies --   3172.4205              3179.0872              3180.8439
 Red. masses --      1.1057                 1.0922                 1.0948
 Frc consts  --      6.5566                 6.5039                 6.5263
 IR Inten    --      1.7068                12.2005                13.8983

 - Thermochemistry -
 -------------------
 Temperature   298.150 Kelvin.  Pressure   1.00000 Atm.
 Atom     1 has atomic number  6 and mass  12.00000

 Molecular mass:   231.12930 amu.
 Principal axes and moments of inertia in atomic units:
                           1         2         3
     Eigenvalues --  2242.238425825.443436362.19533
           X            0.99966  -0.02601  -0.00193
           Y            0.02600   0.99966  -0.00338
           Z            0.00202   0.00333   0.99999
 This molecule is an asymmetric top.
 Rotational symmetry number  1.
 Warning -- assumption of classical behavior for rotation
           may cause significant error
 Rotational temperatures (Kelvin)      0.03863     0.01487     0.01361
 Rotational constants (GHZ):           0.80488     0.30980     0.28367
 Zero-point vibrational energy     824830.0 (Joules/Mol)
                                  197.13909 (Kcal/Mol)
 Warning -- explicit consideration of  27 degrees of freedom as
           vibrations may cause significant error
 Vibrational temperatures:     36.52    38.28    66.72    79.54   112.96
          (Kelvin)            117.66   166.53   178.03   187.06   226.84
                              247.09   304.72   306.62   326.16   329.39
                              361.34   384.97   410.27   463.45   500.67
                              530.61   601.74   621.68   672.13   718.75
                              824.19   854.41   895.68   945.31   985.36
                             1039.53  1092.49  1109.09  1140.54  1206.77
                             1272.40  1307.94  1363.93  1396.77  1431.94
                             1441.29  1456.10  1470.99  1508.05  1544.02
                             1565.58  1607.13  1638.03  1663.66  1682.00
                             1728.88  1756.22  1780.79  1807.45  1837.93
                             1841.64  1906.53  1929.73  1968.99  1984.78
                             1998.80  2006.79  2036.14  2050.12  2074.96
                             2095.09  2121.12  2136.40  2149.28  2151.10
                             2159.53  2164.25  2166.25  2170.47  2204.43
                             2208.02  2214.92  2218.23  2244.29  2497.49
                             2599.53  4346.13  4373.56  4376.84  4377.06
                             4391.70  4402.64  4413.90  4437.32  4446.83
                             4455.59  4463.62  4476.38  4478.69  4487.33
                             4494.29  4522.60  4549.70  4556.29  4564.41
                             4574.00  4576.52

 Zero-point correction=                           0.314161 (Hartree/Particle)
 Thermal correction to Energy=                    0.332839
 Thermal correction to Enthalpy=                  0.333783
 Thermal correction to Gibbs Free Energy=         0.265759
 Sum of electronic and zero-point Energies=          -1034.970495
 Sum of electronic and thermal Energies=             -1034.951817
 Sum of electronic and thermal Enthalpies=           -1034.950873
 Sum of electronic and thermal Free Energies=        -1035.018897

                     E (Thermal)             CV                S
                      KCal/Mol        Cal/Mol-Kelvin    Cal/Mol-Kelvin
 Total                  208.859             66.686            143.168
 Electronic               0.000              0.000              0.000
 Translational            0.889              2.981             42.215
 Rotational               0.889              2.981             32.785
 Vibrational            207.082             60.724             68.167
 Vibration     1          0.593              1.985              6.161
 Vibration     2          0.593              1.984              6.067
 Vibration     3          0.595              1.979              4.966
 Vibration     4          0.596              1.975              4.619
 Vibration     5          0.600              1.964              3.928
 Vibration     6          0.600              1.962              3.848
 Vibration     7          0.608              1.936              3.170
 Vibration     8          0.610              1.929              3.041
 Vibration     9          0.612              1.923              2.946
 Vibration    10          0.621              1.894              2.578
 Vibration    11          0.626              1.877              2.416
 Vibration    12          0.643              1.823              2.028
 Vibration    13          0.644              1.821              2.017
 Vibration    14          0.650              1.800              1.905
 Vibration    15          0.652              1.797              1.887
 Vibration    16          0.663              1.761              1.723
 Vibration    17          0.673              1.733              1.612
 Vibration    18          0.683              1.701              1.503
 Vibration    19          0.707              1.631              1.299
 Vibration    20          0.726              1.579              1.175
 Vibration    21          0.741              1.536              1.085
 Vibration    22          0.781              1.431              0.898
 Vibration    23          0.793              1.400              0.852
 Vibration    24          0.824              1.323              0.746
 Vibration    25          0.855              1.251              0.659
 Vibration    26          0.929              1.090              0.499
 Vibration    27          0.951              1.045              0.460

 Optimization completed.
    -- Stationary point found.
 Normal termination of Gaussian 16 at Thu Dec 10 16:02:08 2020.

 ----------------------------------------------------------------------
 # B3LYP/6-311++G(d,p) empiricaldispersion=gd3bj scf=xqc pop=npa geom=c
 heck
 ----------------------------------------------------------------------

 ---------------------------------------
 CID_112659442_JID_5299_Energie_neutraal
 ---------------------------------------
 Structure from the checkpoint file:  "JID_5299.chk"
 Charge =  0 Multiplicity = 1

 SCF Done:  E(RB3LYP) =  -1035.49683170     A.U. after   16 cycles
 Normal termination of Gaussian 16 at Thu Dec 10 16:08:08 2020.

 ----------------------------------------------------------------------
 # B3LYP/6-311++G(d,p) empiricaldispersion=gd3bj scf=xqc pop=npa geom=c
 heck
 ----------------------------------------------------------------------

 -------------------------------------
 CID_112659442_JID_5299_Energie_kation
 -------------------------------------
 Structure from the checkpoint file:  "JID_5299.chk"
 Charge =  1 Multiplicity = 2

 SCF Done:  E(UB3LYP) =  -1035.20328213     A.U. after   33 cycles
 SCF Done:  E(UB3LYP) =  -1035.20328213     a.u. after    1 cycles
 Normal termination of Gaussian 16 at Thu Dec 10 16:24:12 2020.
 Gaussian 16:  ES64L-G16RevA.03 25-Dec-2016

 ----------------------------------------------------------------------
 # B3LYP/6-311++G(d,p) empiricaldispersion=gd3bj scf=xqc pop=npa geom=c
 heck
 ----------------------------------------------------------------------

 ------------------------------------
 CID_112659442_JID_5299_Energie_anion
 ------------------------------------
 Structure from the checkpoint file:  "JID_5299.chk"
 Charge = -1 Multiplicity = 2

                         Standard orientation:
 ---------------------------------------------------------------------
 Center     Atomic      Atomic             Coordinates (Angstroms)
 Number     Number       Type             X           Y           Z
 ---------------------------------------------------------------------
      1          6           0       -2.509560    2.907398   -0.719831
      2          6           0       -1.462325    1.788219   -0.757005
      3          6           0       -1.412696    1.015283    0.574363
      4          6           0       -2.638349    0.093407    0.829307
      5         16           0       -2.567238   -1.638745    0.250561
      6          6           0       -2.666959   -1.467575   -1.565524
      7          7           0       -0.151610    0.310001    0.855554
      8          6           0        0.167503    0.136899    2.273091
      9          6           0        0.498841   -0.408312   -0.109379
     10          8           0        0.265057   -0.294811   -1.314837
     11          6           0        1.582211   -1.405205    0.310042
     12          6           0        2.861706   -1.146538   -0.483191
     13          6           0        3.549162    0.144993   -0.068338
     14          8           0        3.187082    0.781549    0.906168
     15          6           0        4.699956    0.609105   -0.938174
     16          1           0       -3.525891    2.522160   -0.575660
     17          1           0       -2.505541    3.465472   -1.662211
     18          1           0       -2.308150    3.619670    0.090259
     19          1           0       -1.652486    1.119283   -1.594442
     20          1           0       -0.473297    2.221524   -0.933102
     21          1           0       -1.472551    1.788414    1.352015
     22          1           0       -2.781768   -0.018745    1.909491
     23          1           0       -3.545533    0.567079    0.440592
     24          1           0       -3.492435   -0.805950   -1.845661
     25          1           0       -1.720338   -1.100680   -1.964973
     26          1           0       -2.871835   -2.467313   -1.958343
     27          1           0       -0.150575   -0.840474    2.658934
     28          1           0        1.238055    0.271875    2.433131
     29          1           0       -0.355362    0.910319    2.840209
     30          1           0        1.797086   -1.410693    1.376647
     31          1           0        1.185347   -2.392043    0.047287
     32          1           0        3.579825   -1.968776   -0.354171
     33          1           0        2.629749   -1.100835   -1.553489
     34          1           0        5.400213   -0.210149   -1.138677
     35          1           0        4.307583    0.939149   -1.908597
     36          1           0        5.220917    1.440696   -0.459906
 ---------------------------------------------------------------------

 SCF Done:  E(UB3LYP) =  -1035.48466826     A.U. after   33 cycles
 SCF Done:  E(UB3LYP) =  -1035.48466826     a.u. after    1 cycles

 The electronic state is 2-A.
 Alpha  occ. eigenvalues --  -88.74561 -19.00889 -18.98037 -14.24321 -10.16895
 Alpha  occ. eigenvalues --  -10.15507 -10.12270 -10.10665 -10.10178 -10.09462
 Alpha  occ. eigenvalues --  -10.07579 -10.07526 -10.07361 -10.07021 -10.06901
 Alpha  occ. eigenvalues --   -7.83156  -5.79569  -5.79182  -5.78512  -0.94233
 Alpha  occ. eigenvalues --   -0.93364  -0.83913  -0.72093  -0.69326  -0.68278
 Alpha  occ. eigenvalues --   -0.64612  -0.63056  -0.60856  -0.58516  -0.55129
 Alpha  occ. eigenvalues --   -0.51666  -0.49497  -0.43517  -0.41878  -0.40732
 Alpha  occ. eigenvalues --   -0.39201  -0.38124  -0.37399  -0.36691  -0.35269
 Alpha  occ. eigenvalues --   -0.34590  -0.33907  -0.33483  -0.32731  -0.32137
 Alpha  occ. eigenvalues --   -0.31625  -0.31042  -0.30736  -0.29727  -0.28805
 Alpha  occ. eigenvalues --   -0.28114  -0.27330  -0.26424  -0.26287  -0.25008
 Alpha  occ. eigenvalues --   -0.24819  -0.24474  -0.23616  -0.21542  -0.15590
 Alpha  occ. eigenvalues --   -0.15055  -0.14548  -0.13221   0.04191
 Alpha virt. eigenvalues --    0.05539   0.06706   0.07185   0.07428   0.08330
 Alpha virt. eigenvalues --    0.08574   0.08978   0.09749   0.09912   0.10419
 Alpha virt. eigenvalues --    0.10796   0.11185   0.11329   0.11959   0.12260

  Beta  occ. eigenvalues --  -88.74560 -19.00818 -18.98024 -14.24320 -10.16885
  Beta  occ. eigenvalues --  -10.15416 -10.12260 -10.10644 -10.10158 -10.09452
  Beta  occ. eigenvalues --  -10.07563 -10.07517 -10.07338 -10.07016 -10.06872
  Beta  occ. eigenvalues --   -7.83155  -5.79568  -5.79179  -5.78511  -0.94096
  Beta  occ. eigenvalues --   -0.93334  -0.83901  -0.72070  -0.69265  -0.68250
  Beta  occ. eigenvalues --   -0.64531  -0.63021  -0.60820  -0.58473  -0.55070
  Beta  occ. eigenvalues --   -0.51624  -0.49457  -0.43411  -0.41779  -0.40683
  Beta  occ. eigenvalues --   -0.39163  -0.38094  -0.37321  -0.36647  -0.35125
  Beta  occ. eigenvalues --   -0.34533  -0.33882  -0.33455  -0.32693  -0.32101
  Beta  occ. eigenvalues --   -0.31593  -0.31012  -0.30690  -0.29694  -0.28758
  Beta  occ. eigenvalues --   -0.28049  -0.27294  -0.26367  -0.26219  -0.24800
  Beta  occ. eigenvalues --   -0.24754  -0.24410  -0.23589  -0.21519  -0.15552
  Beta  occ. eigenvalues --   -0.15012  -0.14517  -0.13212
  Beta virt. eigenvalues --    0.06218   0.06945   0.07127   0.07442   0.07864
  Beta virt. eigenvalues --    0.08747   0.09075   0.09358   0.09918   0.10163
  Beta virt. eigenvalues --    0.10884   0.11006   0.11378   0.11494   0.12073

 Mulliken charges and spin densities:
               1          2
     1  C    0.907020  -1.546122
     2  C   -1.065280   0.872620
     3  C    0.217360  -0.058798
     4  C    0.088197  -0.866019
     5  S    0.397326   0.027618
     6  C   -0.493860  -0.276559
     7  N    0.425080  -0.024541
     8  C    0.213623  -0.626197
     9  C    0.480529  -0.747256
    10  O   -0.257888   0.002605
    11  C   -1.648858   1.360291
    12  C    0.647904  -1.063366
    13  C   -0.697694   1.073008
    14  O   -0.268560   0.032144
    15  C    0.958318  -1.696571
    16  H   -0.097658   0.213943
    17  H   -0.060948   0.198983
    18  H   -0.262067   0.401723
    19  H    0.153202   0.019189
    20  H    0.196003  -0.012689
    21  H    0.101918   0.063698
    22  H   -0.126804   0.366868
    23  H   -0.058245   0.244259
    24  H    0.063674   0.095177
    25  H    0.128287   0.074537
    26  H    0.112213   0.057614
    27  H   -0.009752   0.182399
    28  H    0.092114   0.115699
    29  H   -0.241883   0.369833
    30  H   -0.016871   0.173714
    31  H    0.047084   0.151239
    32  H   -0.780905   1.001657
    33  H    0.244581  -0.050227
    34  H   -0.456396   0.626539
    35  H    0.080000   0.076986
    36  H   -0.010764   0.166001
 Sum of Mulliken charges =  -1.00000   1.00000

 Dipole moment (field-independent basis, Debye):
    X=             -4.1085    Y=             -0.1129    Z=             -1.4140  Tot=              4.3465
 Quadrupole moment (field-independent basis, Debye-Ang):
   XX=           -193.9160   YY=           -145.7703   ZZ=           -133.8275
   XY=             16.1756   XZ=              5.8698   YZ=             -3.6055

 Summary of Natural Population Analysis:

                                       Natural Population
                Natural  -----------------------------------------------
    Atom  No    Charge         Core      Valence    Rydberg      Total
 -----------------------------------------------------------------------
      C    1   -0.28592      0.99966     2.28141    0.00484     3.28592
      C    2   -0.19703      0.99961     2.18754    0.00988     3.19703
      C    3   -0.00419      0.99955     1.98902    0.01562     3.00419
      C    4   -0.25971      0.99955     2.24780    0.01235     3.25971
      S    5    0.08752      4.99963     2.89527    0.01758     7.91248
      C    6   -0.35497      0.99961     2.34992    0.00544     3.35497
      N    7   -0.25606      0.99962     2.74440    0.01205     3.75606
      C    8   -0.18187      0.99963     2.17458    0.00766     3.18187
      C    9    0.35941      0.99964     1.61551    0.02544     2.64059
      O   10   -0.34197      0.99988     3.33689    0.00520     4.34197
      C   11   -0.23140      0.99959     2.22147    0.01034     3.23140
      C   12   -0.23827      0.99958     2.22943    0.00926     3.23827
      C   13    0.30580      0.99968     1.67396    0.02056     2.69420
      O   14   -0.28993      0.99987     3.28355    0.00651     4.28993
      C   15   -0.33359      0.99962     2.32865    0.00531     3.33359
      H   16    0.09477      0.00000     0.40404    0.00119     0.40523
      H   17    0.09929      0.00000     0.40002    0.00069     0.40071
      H   18    0.09631      0.00000     0.40255    0.00114     0.40369
      H   19    0.10705      0.00000     0.39139    0.00157     0.39295
      H   20    0.10581      0.00000     0.39308    0.00111     0.39419
      H   21    0.09800      0.00000     0.40028    0.00172     0.40200
      H   22    0.10889      0.00000     0.38960    0.00152     0.39111
      H   23    0.10544      0.00000     0.39302    0.00154     0.39456
      H   24    0.09858      0.00000     0.40007    0.00135     0.40142
      H   25    0.11902      0.00000     0.37934    0.00164     0.38098
      H   26    0.10269      0.00000     0.39637    0.00094     0.39731
      H   27    0.09173      0.00000     0.40720    0.00107     0.40827
      H   28    0.11392      0.00000     0.38490    0.00117     0.38608
      H   29    0.09851      0.00000     0.40043    0.00106     0.40149
      H   30    0.10673      0.00000     0.39166    0.00162     0.39327
      H   31    0.11336      0.00000     0.38528    0.00136     0.38664
      H   32    0.11630      0.00000     0.37913    0.00457     0.38370
      H   33    0.11641      0.00000     0.38228    0.00131     0.38359
      H   34    0.11224      0.00000     0.38473    0.00303     0.38776
      H   35    0.10927      0.00000     0.38986    0.00087     0.39073
      H   36    0.10786      0.00000     0.39119    0.00095     0.39214
 =======================================================================
   * Total *    0.00000     18.99472    43.80582    0.19947    63.00000

 Normal termination of Gaussian 16 at Thu Dec 10 16:40:39 2020.
