 Gaussian 16, Revision A.03,

 -----------------------------------------------------------
 # opt freq B3LYP/6-31G(d) empiricaldispersion=gd3bj scf=xqc
 -----------------------------------------------------------

 --------------------------------
 CID_103332761_JID_10800_neutraal
 --------------------------------
 Symbolic Z-matrix:
 Charge =  0 Multiplicity = 1

 SCF Done:  E(RB3LYP) =  -1574.59395639     A.U. after   15 cycles
 SCF Done:  E(RB3LYP) =  -1574.60523851     A.U. after   13 cycles
 SCF Done:  E(RB3LYP) =  -1574.60781401     A.U. after   12 cycles
 SCF Done:  E(RB3LYP) =  -1574.60899067     A.U. after   12 cycles
 SCF Done:  E(RB3LYP) =  -1574.61025466     A.U. after   12 cycles
 SCF Done:  E(RB3LYP) =  -1574.61090690     A.U. after   12 cycles
 SCF Done:  E(RB3LYP) =  -1574.61125240     A.U. after   12 cycles
 SCF Done:  E(RB3LYP) =  -1574.61145975     A.U. after   11 cycles
 SCF Done:  E(RB3LYP) =  -1574.61163820     A.U. after   12 cycles
 SCF Done:  E(RB3LYP) =  -1574.61171916     A.U. after   11 cycles
 SCF Done:  E(RB3LYP) =  -1574.61185620     A.U. after   10 cycles
 SCF Done:  E(RB3LYP) =  -1574.61185312     A.U. after   10 cycles
 SCF Done:  E(RB3LYP) =  -1574.61185764     A.U. after   10 cycles
 SCF Done:  E(RB3LYP) =  -1574.61185768     A.U. after    8 cycles
 SCF Done:  E(RB3LYP) =  -1574.61185790     A.U. after    8 cycles
 Optimization completed.
    -- Stationary point found.
 Normal termination of Gaussian 16 at Thu Dec 17 20:21:58 2020.

 --------------------------------------------------------------------
 #N Geom=AllCheck Guess=TCheck SCRF=Check GenChk RB3LYP/6-31G(d) Freq
 --------------------------------------------------------------------

 Structure from the checkpoint file:  "JID_10800.chk"
 --------------------------------
 CID_103332761_JID_10800_neutraal
 --------------------------------
 Charge =  0 Multiplicity = 1

 SCF Done:  E(RB3LYP) =  -1574.61185790     A.U. after    1 cycles

  Exact polarizability: 247.949  12.695 243.846  28.648  -7.599 120.862
 Approx polarizability: 370.558  18.122 398.910  64.035 -18.088 205.424

                      1                      2                      3
                      A                      A                      A
 Frequencies --     22.9511                27.8244                33.0109
 Red. masses --      5.4800                 8.1673                 5.0821
 Frc consts  --      0.0017                 0.0037                 0.0033
 IR Inten    --      0.3450                 0.3469                 0.3718

                      4                      5                      6
                      A                      A                      A
 Frequencies --     71.7428                83.8400                98.2404
 Red. masses --      5.0839                 4.9450                 5.4986
 Frc consts  --      0.0154                 0.0205                 0.0313
 IR Inten    --      0.5415                 1.1001                 1.4966

                      7                      8                      9
                      A                      A                      A
 Frequencies --    126.8705               136.0538               159.4670
 Red. masses --      2.0776                 2.1987                 2.4508
 Frc consts  --      0.0197                 0.0240                 0.0367
 IR Inten    --      0.9043                 0.5650                 1.2557

                     10                     11                     12
                      A                      A                      A
 Frequencies --    164.7348               190.4417               219.1584
 Red. masses --      3.3059                 1.4733                 3.0350
 Frc consts  --      0.0529                 0.0315                 0.0859
 IR Inten    --      3.2080                12.5593                 2.0173

                     13                     14                     15
                      A                      A                      A
 Frequencies --    224.5917               230.4048               269.7224
 Red. masses --      3.7642                 4.4350                 4.1875
 Frc consts  --      0.1119                 0.1387                 0.1795
 IR Inten    --      7.3770                 7.8084                 2.5686

                     16                     17                     18
                      A                      A                      A
 Frequencies --    300.6551               336.0086               357.7321
 Red. masses --      4.3725                 2.6769                 4.3114
 Frc consts  --      0.2329                 0.1781                 0.3251
 IR Inten    --      7.8592                 0.8425                 2.7765

                     19                     20                     21
                      A                      A                      A
 Frequencies --    378.3092               394.6090               425.0933
 Red. masses --      3.3725                 4.5172                 6.5883
 Frc consts  --      0.2844                 0.4144                 0.7014
 IR Inten    --      0.8336                18.3579                 2.8584

                     22                     23                     24
                      A                      A                      A
 Frequencies --    457.7713               469.5879               490.2871
 Red. masses --      4.1019                 5.1715                 3.8389
 Frc consts  --      0.5064                 0.6719                 0.5437
 IR Inten    --      1.0175                28.0349                24.2734

                     25                     26                     27
                      A                      A                      A
 Frequencies --    521.0545               534.9711               555.5046
 Red. masses --      3.5473                 1.6757                 3.9499
 Frc consts  --      0.5674                 0.2826                 0.7181
 IR Inten    --      5.5439               132.0815                15.1984

                     28                     29                     30
                      A                      A                      A
 Frequencies --    562.1511               605.8964               643.8587
 Red. masses --      4.8526                 2.3185                 5.7240
 Frc consts  --      0.9035                 0.5015                 1.3981
 IR Inten    --     22.6629                74.0258                18.7627

                     31                     32                     33
                      A                      A                      A
 Frequencies --    655.9675               665.3777               683.0933
 Red. masses --      5.0257                 2.6350                 2.3299
 Frc consts  --      1.2741                 0.6873                 0.6405
 IR Inten    --      9.3112                47.2465                11.8787

                     34                     35                     36
                      A                      A                      A
 Frequencies --    688.0175               704.9583               723.6327
 Red. masses --      1.4557                 2.8580                 6.0782
 Frc consts  --      0.4060                 0.8368                 1.8753
 IR Inten    --      2.7040                26.8910                 3.7047

                     37                     38                     39
                      A                      A                      A
 Frequencies --    738.5248               786.3665               792.8846
 Red. masses --      3.1430                 4.4575                 1.3612
 Frc consts  --      1.0100                 1.6240                 0.5042
 IR Inten    --     49.2671                37.8731                42.1795

                     40                     41                     42
                      A                      A                      A
 Frequencies --    818.7132               827.6724               858.6650
 Red. masses --      1.8060                 4.4549                 3.6202
 Frc consts  --      0.7132                 1.7981                 1.5726
 IR Inten    --      1.7247                 8.0613                 6.9114

                     43                     44                     45
                      A                      A                      A
 Frequencies --    867.7543               884.3880               905.9417
 Red. masses --      5.9982                 2.6274                 1.3364
 Frc consts  --      2.6611                 1.2108                 0.6462
 IR Inten    --      5.1436                45.2109                 5.1436

                     46                     47                     48
                      A                      A                      A
 Frequencies --    920.0907               940.1337               976.9425
 Red. masses --      3.0013                 3.7556                 2.6298
 Frc consts  --      1.4970                 1.9557                 1.4788
 IR Inten    --     19.5798                67.4807                 8.8402

                     49                     50                     51
                      A                      A                      A
 Frequencies --    983.4346              1023.6619              1049.5665
 Red. masses --      2.9082                 1.6476                 2.8070
 Frc consts  --      1.6571                 1.0172                 1.8218
 IR Inten    --     19.6643                 2.3596                55.2573

                     52                     53                     54
                      A                      A                      A
 Frequencies --   1070.9370              1074.2340              1130.7948
 Red. masses --      2.1816                 1.4074                 1.1161
 Frc consts  --      1.4742                 0.9569                 0.8409
 IR Inten    --      2.3363                 1.1853                 0.1634

                     55                     56                     57
                      A                      A                      A
 Frequencies --   1157.7269              1161.6357              1192.0610
 Red. masses --      2.6905                 2.8167                 1.4142
 Frc consts  --      2.1247                 2.2394                 1.1840
 IR Inten    --     10.5017                40.7831                 1.7969

                     58                     59                     60
                      A                      A                      A
 Frequencies --   1206.3432              1229.5914              1256.0556
 Red. masses --      1.8693                 1.9471                 2.0094
 Frc consts  --      1.6027                 1.7345                 1.8678
 IR Inten    --      5.7013                 5.8294                56.3826

                     61                     62                     63
                      A                      A                      A
 Frequencies --   1277.6154              1295.6298              1338.0336
 Red. masses --      1.5279                 1.3282                 6.9542
 Frc consts  --      1.4694                 1.3137                 7.3355
 IR Inten    --     14.0031                25.4708                14.7607

                     64                     65                     66
                      A                      A                      A
 Frequencies --   1344.9788              1354.1574              1376.4927
 Red. masses --      2.5586                 3.4444                 1.3922
 Frc consts  --      2.7270                 3.7213                 1.5541
 IR Inten    --     44.7401                21.8842                47.9933

                     67                     68                     69
                      A                      A                      A
 Frequencies --   1382.2836              1389.0809              1415.9912
 Red. masses --      1.3873                 1.4701                 1.5357
 Frc consts  --      1.5618                 1.6713                 1.8141
 IR Inten    --     17.0961                29.2238                28.8826

                     70                     71                     72
                      A                      A                      A
 Frequencies --   1434.3849              1444.8159              1473.6182
 Red. masses --      2.8067                 1.2516                 4.2060
 Frc consts  --      3.4024                 1.5394                 5.3814
 IR Inten    --      1.0614                10.5197                77.3104

                     73                     74                     75
                      A                      A                      A
 Frequencies --   1479.2002              1505.2319              1507.7755
 Red. masses --      2.3470                 1.0425                 2.1767
 Frc consts  --      3.0256                 1.3917                 2.9155
 IR Inten    --    112.3674                 7.2698               174.8443

                     76                     77                     78
                      A                      A                      A
 Frequencies --   1513.9458              1521.6477              1529.1565
 Red. masses --      1.1345                 1.0946                 1.4013
 Frc consts  --      1.5320                 1.4932                 1.9305
 IR Inten    --     23.7455                 4.8137                74.9391

                     79                     80                     81
                      A                      A                      A
 Frequencies --   1581.0870              1587.5866              1605.1795
 Red. masses --      3.4062                 4.9551                 5.5499
 Frc consts  --      5.0169                 7.3584                 8.4253
 IR Inten    --    304.1801               515.9771                 3.7508

                     82                     83                     84
                      A                      A                      A
 Frequencies --   1627.7376              1630.7280              1747.5243
 Red. masses --      4.3829                 5.8916                 1.0639
 Frc consts  --      6.8419                 9.2310                 1.9142
 IR Inten    --    378.5847               110.1914                32.8695

                     85                     86                     87
                      A                      A                      A
 Frequencies --   3041.7495              3055.4676              3083.5434
 Red. masses --      1.0364                 1.0599                 1.0698
 Frc consts  --      5.6495                 5.8298                 5.9931
 IR Inten    --     49.9859                17.0339                17.3942

                     88                     89                     90
                      A                      A                      A
 Frequencies --   3092.7776              3100.3559              3126.5467
 Red. masses --      1.1016                 1.0936                 1.1009
 Frc consts  --      6.2083                 6.1933                 6.3403
 IR Inten    --     16.2436                41.5509                14.2965

                     91                     92                     93
                      A                      A                      A
 Frequencies --   3127.4832              3227.2423              3245.7940
 Red. masses --      1.1060                 1.0914                 1.0911
 Frc consts  --      6.3735                 6.6972                 6.7725
 IR Inten    --     31.0722                 1.4849                12.5034

                     94                     95                     96
                      A                      A                      A
 Frequencies --   3260.5154              3273.1449              3429.0195
 Red. masses --      1.0935                 1.0970                 1.0494
 Frc consts  --      6.8492                 6.9243                 7.2699
 IR Inten    --      0.9877                 0.1933                 6.6098

                     97                     98                     99
                      A                      A                      A
 Frequencies --   3506.2962              3579.7039              3622.6691
 Red. masses --      1.0921                 1.0751                 1.0775
 Frc consts  --      7.9109                 8.1169                 8.3312
 IR Inten    --      0.3746                28.7094                59.9302

 - Thermochemistry -
 -------------------
 Temperature   298.150 Kelvin.  Pressure   1.00000 Atm.
 Atom     1 has atomic number  6 and mass  12.00000

 Molecular mass:   305.07689 amu.
 Principal axes and moments of inertia in atomic units:
                           1         2         3
     Eigenvalues --  4592.44176********************
           X            0.99998   0.00428   0.00403
           Y           -0.00425   0.99997  -0.00648
           Z           -0.00406   0.00647   0.99997
 This molecule is an asymmetric top.
 Rotational symmetry number  1.
 Warning -- assumption of classical behavior for rotation
           may cause significant error
 Rotational temperatures (Kelvin)      0.01886     0.00850     0.00644
 Rotational constants (GHZ):           0.39298     0.17702     0.13414
 Zero-point vibrational energy     724960.3 (Joules/Mol)
                                  173.26968 (Kcal/Mol)
 Warning -- explicit consideration of  29 degrees of freedom as
           vibrations may cause significant error
 Vibrational temperatures:     33.02    40.03    47.50   103.22   120.63
          (Kelvin)            141.35   182.54   195.75   229.44   237.02
                              274.00   315.32   323.14   331.50   388.07
                              432.58   483.44   514.70   544.30   567.75
                              611.61   658.63   675.63   705.41   749.68
                              769.70   799.25   808.81   871.75   926.37
                              943.79   957.33   982.82   989.90  1014.28
                             1041.15  1062.57  1131.41  1140.78  1177.95
                             1190.84  1235.43  1248.50  1272.44  1303.45
                             1323.81  1352.64  1405.60  1414.94  1472.82
                             1510.09  1540.84  1545.58  1626.96  1665.71
                             1671.33  1715.11  1735.66  1769.11  1807.18
                             1838.20  1864.12  1925.13  1935.12  1948.33
                             1980.47  1988.80  1998.58  2037.30  2063.76
                             2078.77  2120.21  2128.24  2165.69  2169.35
                             2178.23  2189.31  2200.12  2274.83  2284.18
                             2309.50  2341.95  2346.25  2514.30  4376.40
                             4396.14  4436.53  4449.82  4460.72  4498.40
                             4499.75  4643.28  4669.97  4691.15  4709.33
                             4933.59  5044.78  5150.40  5212.21

 Zero-point correction=                           0.276123 (Hartree/Particle)
 Thermal correction to Energy=                    0.294900
 Thermal correction to Enthalpy=                  0.295844
 Thermal correction to Gibbs Free Energy=         0.227111
 Sum of electronic and zero-point Energies=          -1574.335735
 Sum of electronic and thermal Energies=             -1574.316958
 Sum of electronic and thermal Enthalpies=           -1574.316014
 Sum of electronic and thermal Free Energies=        -1574.384747

                     E (Thermal)             CV                S
                      KCal/Mol        Cal/Mol-Kelvin    Cal/Mol-Kelvin
 Total                  185.053             71.348            144.662
 Electronic               0.000              0.000              0.000
 Translational            0.889              2.981             43.043
 Rotational               0.889              2.981             34.798
 Vibrational            183.275             65.386             66.821
 Vibration     1          0.593              1.985              6.361
 Vibration     2          0.593              1.984              5.979
 Vibration     3          0.594              1.983              5.640
 Vibration     4          0.598              1.967              4.105
 Vibration     5          0.601              1.960              3.799
 Vibration     6          0.604              1.950              3.489
 Vibration     7          0.611              1.926              2.993
 Vibration     8          0.614              1.917              2.859
 Vibration     9          0.621              1.892              2.556
 Vibration    10          0.623              1.886              2.495
 Vibration    11          0.634              1.853              2.224
 Vibration    12          0.647              1.812              1.966
 Vibration    13          0.649              1.804              1.922
 Vibration    14          0.652              1.795              1.876
 Vibration    15          0.674              1.729              1.598
 Vibration    16          0.693              1.672              1.413
 Vibration    17          0.717              1.604              1.231
 Vibration    18          0.733              1.559              1.132
 Vibration    19          0.749              1.516              1.046
 Vibration    20          0.762              1.482              0.983
 Vibration    21          0.787              1.416              0.875
 Vibration    22          0.816              1.344              0.773
 Vibration    23          0.827              1.318              0.739
 Vibration    24          0.846              1.272              0.683
 Vibration    25          0.876              1.203              0.608
 Vibration    26          0.890              1.173              0.576
 Vibration    27          0.911              1.128              0.533
 Vibration    28          0.918              1.113              0.520
 Vibration    29          0.965              1.019              0.440

                           ! Non-Optimized Parameters !
 Normal termination of Gaussian 16 at Thu Dec 17 20:40:51 2020.

 ----------------------------------------------------------------------
 # B3LYP/6-311++G(d,p) empiricaldispersion=gd3bj scf=xqc pop=npa geom=c
 heck
 ----------------------------------------------------------------------

 ----------------------------------------
 CID_103332761_JID_10800_Energie_neutraal
 ----------------------------------------
 Structure from the checkpoint file:  "JID_10800.chk"
 Charge =  0 Multiplicity = 1

 SCF Done:  E(RB3LYP) =  -1574.87934915     A.U. after   15 cycles
 Normal termination of Gaussian 16 at Thu Dec 17 20:49:29 2020.

 ----------------------------------------------------------------------
 # B3LYP/6-311++G(d,p) empiricaldispersion=gd3bj scf=xqc pop=npa geom=c
 heck
 ----------------------------------------------------------------------

 --------------------------------------
 CID_103332761_JID_10800_Energie_kation
 --------------------------------------
 Structure from the checkpoint file:  "JID_10800.chk"
 Charge =  1 Multiplicity = 2

 SCF Done:  E(UB3LYP) =  -1574.61504870     A.U. after   24 cycles
 Normal termination of Gaussian 16 at Thu Dec 17 21:09:07 2020.
 Gaussian 16:  ES64L-G16RevA.03 25-Dec-2016

 ----------------------------------------------------------------------
 # B3LYP/6-311++G(d,p) empiricaldispersion=gd3bj scf=xqc pop=npa geom=c
 heck
 ----------------------------------------------------------------------

 -------------------------------------
 CID_103332761_JID_10800_Energie_anion
 -------------------------------------
 Structure from the checkpoint file:  "JID_10800.chk"
 Charge = -1 Multiplicity = 2

                         Standard orientation:
 ---------------------------------------------------------------------
 Center     Atomic      Atomic             Coordinates (Angstroms)
 Number     Number       Type             X           Y           Z
 ---------------------------------------------------------------------
      1          6           0       -3.400228   -3.620718   -0.545363
      2          6           0       -2.830828   -2.261288   -0.288890
      3          6           0       -1.696386   -1.943101    0.389933
      4          6           0       -1.427923   -0.527226    0.452355
      5          6           0       -0.400028    0.267836    1.038223
      6          7           0       -0.429795    1.603976    0.935829
      7          6           0       -1.456032    2.173186    0.276770
      8          7           0       -2.483695    1.550448   -0.317417
      9          6           0       -2.425699    0.222456   -0.208383
     10         16           0       -3.657391   -0.822770   -0.899005
     11          7           0       -1.415367    3.543069    0.190776
     12          7           0       -2.536366    4.294723   -0.211824
     13          7           0        0.662073   -0.216442    1.757807
     14          6           0        1.272947   -1.527608    1.590895
     15          6           0        1.817247   -1.799421    0.171832
     16          6           0        2.910881   -0.841757   -0.221160
     17          6           0        4.242166   -1.168224   -0.242120
     18         16           0        5.246188    0.177394   -0.681006
     19          6           0        3.857138    1.207030   -0.838603
     20          6           0        2.697439    0.536964   -0.568993
     21          1           0       -3.476084   -3.834819   -1.618633
     22          1           0       -4.405161   -3.728722   -0.118948
     23          1           0       -2.758115   -4.383284   -0.093566
     24          1           0       -1.076693   -2.710985    0.833340
     25          1           0       -0.818458    4.004412    0.862954
     26          1           0       -2.589456    4.231106   -1.228445
     27          1           0       -3.373588    3.814327    0.125844
     28          1           0        1.309501    0.532864    1.973633
     29          1           0        2.095804   -1.578404    2.309790
     30          1           0        0.560270   -2.304669    1.878804
     31          1           0        2.193505   -2.828906    0.141748
     32          1           0        0.987021   -1.743379   -0.542089
     33          1           0        4.689461   -2.129977   -0.028427
     34          1           0        3.978607    2.241960   -1.127613
     35          1           0        1.720524    1.005315   -0.613380
 ---------------------------------------------------------------------

 SCF Done:  E(UB3LYP) =  -1574.87047215     A.U. after   33 cycles
 SCF Done:  E(UB3LYP) =  -1574.87047215     a.u. after    1 cycles

 The electronic state is 2-A.
 Alpha  occ. eigenvalues --  -88.78496 -88.77673 -14.26825 -14.25662 -14.24249
 Alpha  occ. eigenvalues --  -14.21286 -14.20875 -10.18075 -10.16694 -10.14326
 Alpha  occ. eigenvalues --  -10.11787 -10.11433 -10.10704 -10.10071 -10.09134
 Alpha  occ. eigenvalues --  -10.09103 -10.08376 -10.08371 -10.08335 -10.08330
 Alpha  occ. eigenvalues --   -7.87119  -7.86333  -5.83400  -5.83040  -5.82736
 Alpha  occ. eigenvalues --   -5.82626  -5.82286  -5.81878  -0.93421  -0.88844
 Alpha  occ. eigenvalues --   -0.85119  -0.79868  -0.79013  -0.76853  -0.72330
 Alpha  occ. eigenvalues --   -0.68924  -0.67016  -0.64934  -0.63887  -0.62704
 Alpha  occ. eigenvalues --   -0.59858  -0.55929  -0.54303  -0.51440  -0.48032
 Alpha  occ. eigenvalues --   -0.47901  -0.45994  -0.44932  -0.43454  -0.42699
 Alpha  occ. eigenvalues --   -0.41261  -0.40682  -0.39689  -0.37403  -0.36781
 Alpha  occ. eigenvalues --   -0.35711  -0.35183  -0.33967  -0.33289  -0.32333
 Alpha  occ. eigenvalues --   -0.31655  -0.30704  -0.30269  -0.28965  -0.28677
 Alpha  occ. eigenvalues --   -0.27319  -0.27163  -0.26864  -0.25689  -0.25182
 Alpha  occ. eigenvalues --   -0.24717  -0.22645  -0.20971  -0.19535  -0.17082
 Alpha  occ. eigenvalues --   -0.16669  -0.16131  -0.15603  -0.14517  -0.11234
 Alpha  occ. eigenvalues --    0.04101
 Alpha virt. eigenvalues --    0.06024   0.06229   0.06369   0.06751   0.06887
 Alpha virt. eigenvalues --    0.07274   0.08000   0.08339   0.09029   0.09672
 Alpha virt. eigenvalues --    0.10004   0.10098   0.10132   0.10675   0.11221

  Beta  occ. eigenvalues --  -88.78486 -88.77668 -14.26826 -14.25658 -14.24246
  Beta  occ. eigenvalues --  -14.21271 -14.20825 -10.18069 -10.16647 -10.14213
  Beta  occ. eigenvalues --  -10.11766 -10.11438 -10.10651 -10.09995 -10.09150
  Beta  occ. eigenvalues --  -10.09102 -10.08358 -10.08349 -10.08326 -10.08292
  Beta  occ. eigenvalues --   -7.87110  -7.86327  -5.83396  -5.83036  -5.82703
  Beta  occ. eigenvalues --   -5.82624  -5.82283  -5.81864  -0.93388  -0.88798
  Beta  occ. eigenvalues --   -0.85069  -0.79790  -0.78949  -0.76818  -0.72308
  Beta  occ. eigenvalues --   -0.68876  -0.66973  -0.64874  -0.63812  -0.62625
  Beta  occ. eigenvalues --   -0.59789  -0.55863  -0.54252  -0.51368  -0.47922
  Beta  occ. eigenvalues --   -0.47862  -0.45945  -0.44875  -0.43409  -0.42680
  Beta  occ. eigenvalues --   -0.41214  -0.40653  -0.39651  -0.37340  -0.36724
  Beta  occ. eigenvalues --   -0.35657  -0.35066  -0.33895  -0.33228  -0.32282
  Beta  occ. eigenvalues --   -0.31593  -0.30662  -0.30211  -0.28898  -0.28522
  Beta  occ. eigenvalues --   -0.27201  -0.27101  -0.26782  -0.25541  -0.25140
  Beta  occ. eigenvalues --   -0.24652  -0.22582  -0.20949  -0.19445  -0.17029
  Beta  occ. eigenvalues --   -0.16615  -0.15993  -0.15435  -0.14251  -0.11115
  Beta virt. eigenvalues --    0.06202   0.06699   0.06745   0.06901   0.07097
  Beta virt. eigenvalues --    0.07190   0.07392   0.08346   0.08863   0.09233
  Beta virt. eigenvalues --    0.09721   0.10069   0.10340   0.10513   0.11006

 Mulliken charges and spin densities:
               1          2
     1  C    2.181676  -2.547355
     2  C   -1.833354   1.612942
     3  C   -0.015051  -0.315847
     4  C    0.386047  -0.270727
     5  C    0.339756  -0.409318
     6  N   -0.194567   0.045493
     7  C   -0.088987   0.077323
     8  N   -0.124553   0.019565
     9  C   -0.261528   0.493552
    10  S   -0.470270   0.022870
    11  N   -0.224760  -0.006355
    12  N   -0.258854   0.006362
    13  N   -0.073007   0.100076
    14  C    0.676126  -1.102662
    15  C    0.876019  -1.295613
    16  C   -0.400155   0.453340
    17  C    0.977423  -0.591799
    18  S   -0.218589  -0.263609
    19  C    0.051946  -0.077983
    20  C   -1.414135   1.042095
    21  H   -0.054685   0.213297
    22  H   -0.207249   0.368425
    23  H   -0.780131   0.964569
    24  H    0.330048  -0.228350
    25  H    0.298307   0.005952
    26  H    0.245614   0.004133
    27  H    0.212054   0.026116
    28  H    0.238049   0.036532
    29  H    0.028065   0.149246
    30  H   -0.635563   0.823682
    31  H   -0.652047   0.863015
    32  H    0.215106  -0.077230
    33  H   -0.473009   0.747409
    34  H    0.221771   0.029417
    35  H    0.102491   0.081438
 Sum of Mulliken charges =  -1.00000   1.00000

 Dipole moment (field-independent basis, Debye):
    X=              0.4235    Y=              9.4470    Z=             -0.9479  Tot=              9.5039
 Quadrupole moment (field-independent basis, Debye-Ang):
   XX=           -205.5320   YY=           -213.4090   ZZ=           -157.0389
   XY=              0.6738   XZ=              1.4195   YZ=              4.3751

 Summary of Natural Population Analysis:

                                       Natural Population
                Natural  -----------------------------------------------
    Atom  No    Charge         Core      Valence    Rydberg      Total
 -----------------------------------------------------------------------
      C    1   -0.29954      0.99961     2.29274    0.00720     3.29954
      C    2   -0.08666      0.99950     2.07468    0.01248     3.08666
      C    3   -0.11955      0.99942     2.10847    0.01166     3.11955
      C    4   -0.11517      0.99940     2.10710    0.00867     3.11517
      C    5    0.24024      0.99951     1.74464    0.01561     2.75976
      N    6   -0.29616      0.99964     2.78590    0.01062     3.79616
      C    7    0.29518      0.99960     1.68752    0.01770     2.70482
      N    8   -0.30196      0.99962     2.79053    0.01181     3.80196
      C    9    0.06924      0.99946     1.91414    0.01715     2.93076
      S   10    0.18616      4.99940     2.79384    0.02060     7.81384
      N   11   -0.22699      0.99965     2.71471    0.01263     3.72699
      N   12   -0.31720      0.99978     2.80738    0.01004     3.81720
      N   13   -0.30236      0.99967     2.79316    0.00953     3.80236
      C   14   -0.08274      0.99961     2.07148    0.01165     3.08274
      C   15   -0.20546      0.99958     2.19570    0.01017     3.20546
      C   16   -0.04531      0.99948     2.03421    0.01162     3.04531
      C   17   -0.18178      0.99946     2.16998    0.01234     3.18178
      S   18    0.19178      4.99946     2.78614    0.02262     7.80822
      C   19   -0.18699      0.99954     2.17691    0.01054     3.18699
      C   20   -0.12960      0.99948     2.12107    0.00904     3.12960
      H   21    0.10450      0.00000     0.39443    0.00107     0.39550
      H   22    0.10617      0.00000     0.39241    0.00141     0.39383
      H   23    0.11395      0.00000     0.38385    0.00220     0.38605
      H   24    0.11133      0.00000     0.38646    0.00222     0.38867
      H   25    0.18781      0.00000     0.30979    0.00241     0.31219
      H   26    0.17211      0.00000     0.32578    0.00212     0.32789
      H   27    0.17402      0.00000     0.32364    0.00234     0.32598
      H   28    0.19384      0.00000     0.30335    0.00281     0.30616
      H   29    0.09937      0.00000     0.39936    0.00126     0.40063
      H   30    0.10044      0.00000     0.39739    0.00217     0.39956
      H   31    0.11134      0.00000     0.38592    0.00274     0.38866
      H   32    0.10695      0.00000     0.39147    0.00158     0.39305
      H   33    0.11185      0.00000     0.38668    0.00147     0.38815
      H   34    0.10712      0.00000     0.39211    0.00077     0.39288
      H   35    0.11410      0.00000     0.38391    0.00199     0.38590
 =======================================================================
   * Total *   -0.00000     27.99086    51.72689    0.28225    80.00000

 Normal termination of Gaussian 16 at Thu Dec 17 21:36:32 2020.
