 Gaussian 16, Revision A.03,

 -----------------------------------------------------------
 # opt freq B3LYP/6-31G(d) empiricaldispersion=gd3bj scf=xqc
 -----------------------------------------------------------

 -------------------------------
 CID_116092186_JID_3418_neutraal
 -------------------------------
 Symbolic Z-matrix:
 Charge =  0 Multiplicity = 1

 SCF Done:  E(RB3LYP) =  -636.025399344     A.U. after   13 cycles
 SCF Done:  E(RB3LYP) =  -636.029116746     A.U. after   11 cycles
 SCF Done:  E(RB3LYP) =  -636.029885660     A.U. after   11 cycles
 SCF Done:  E(RB3LYP) =  -636.029979157     A.U. after   11 cycles
 SCF Done:  E(RB3LYP) =  -636.030083698     A.U. after   10 cycles
 SCF Done:  E(RB3LYP) =  -636.030095990     A.U. after    9 cycles
 SCF Done:  E(RB3LYP) =  -636.030098124     A.U. after    7 cycles
 SCF Done:  E(RB3LYP) =  -636.030098407     A.U. after    7 cycles
 SCF Done:  E(RB3LYP) =  -636.030098463     A.U. after    6 cycles
 SCF Done:  E(RB3LYP) =  -636.030098480     A.U. after    6 cycles
 Optimization completed.
    -- Stationary point found.
 Normal termination of Gaussian 16 at Wed Dec  9 23:10:11 2020.

 --------------------------------------------------------------------
 #N Geom=AllCheck Guess=TCheck SCRF=Check GenChk RB3LYP/6-31G(d) Freq
 --------------------------------------------------------------------

 Structure from the checkpoint file:  "JID_3418.chk"
 -------------------------------
 CID_116092186_JID_3418_neutraal
 -------------------------------
 Charge =  0 Multiplicity = 1

 SCF Done:  E(RB3LYP) =  -636.030098480     A.U. after    1 cycles

  Exact polarizability: 137.254   2.304 111.358   1.187  -0.913  96.828
 Approx polarizability: 156.265   1.214 150.396   1.832   0.474 148.862

                      1                      2                      3
                      A                      A                      A
 Frequencies --     30.0039                37.2779                57.7344
 Red. masses --      3.9504                 3.2292                 3.6795
 Frc consts  --      0.0021                 0.0026                 0.0072
 IR Inten    --      0.3860                 0.4256                 1.6726

                      4                      5                      6
                      A                      A                      A
 Frequencies --     64.2294                88.6587               107.3561
 Red. masses --      3.1579                 2.6800                 2.7576
 Frc consts  --      0.0077                 0.0124                 0.0187
 IR Inten    --      0.9571                 4.6679                 5.5077

                      7                      8                      9
                      A                      A                      A
 Frequencies --    117.7329               169.3680               194.7693
 Red. masses --      2.4610                 2.7023                 3.4510
 Frc consts  --      0.0201                 0.0457                 0.0771
 IR Inten    --      2.8450                 0.8074                 1.2110

                     10                     11                     12
                      A                      A                      A
 Frequencies --    204.9096               222.4924               231.1883
 Red. masses --      2.1170                 1.4681                 3.3335
 Frc consts  --      0.0524                 0.0428                 0.1050
 IR Inten    --      3.8609                 0.3333                 0.9082

                     13                     14                     15
                      A                      A                      A
 Frequencies --    237.7167               259.4792               287.7794
 Red. masses --      1.3153                 1.6153                 1.7348
 Frc consts  --      0.0438                 0.0641                 0.0846
 IR Inten    --      1.6199                 3.0906                 3.8376

                     16                     17                     18
                      A                      A                      A
 Frequencies --    321.3475               348.8567               372.0429
 Red. masses --      2.0945                 2.7729                 2.1077
 Frc consts  --      0.1274                 0.1988                 0.1719
 IR Inten    --      1.6261                 3.6540                 1.1730

                     19                     20                     21
                      A                      A                      A
 Frequencies --    409.7052               427.8887               487.7226
 Red. masses --      2.5719                 2.5697                 3.2506
 Frc consts  --      0.2544                 0.2772                 0.4556
 IR Inten    --      2.7023                 2.9128                 0.5855

                     22                     23                     24
                      A                      A                      A
 Frequencies --    558.1478               572.5237               594.7844
 Red. masses --      1.7597                 1.7051                 2.2990
 Frc consts  --      0.3230                 0.3293                 0.4792
 IR Inten    --     24.1749                50.6498                24.2013

                     25                     26                     27
                      A                      A                      A
 Frequencies --    704.3092               792.2670               816.6883
 Red. masses --      3.1605                 2.1994                 1.5057
 Frc consts  --      0.9237                 0.8134                 0.5917
 IR Inten    --      4.8224                38.9582                42.1008

                     28                     29                     30
                      A                      A                      A
 Frequencies --    885.2730               914.8520               925.6026
 Red. masses --      1.9112                 2.1646                 2.1739
 Frc consts  --      0.8825                 1.0674                 1.0973
 IR Inten    --     33.4668                 1.2822                 6.0017

                     31                     32                     33
                      A                      A                      A
 Frequencies --    942.4815               966.6030               992.5034
 Red. masses --      2.0621                 2.1579                 1.5875
 Frc consts  --      1.0792                 1.1879                 0.9214
 IR Inten    --     12.6513                27.7625                 1.9421

                     34                     35                     36
                      A                      A                      A
 Frequencies --   1006.6074              1044.5212              1059.5520
 Red. masses --      2.1413                 2.3743                 2.1970
 Frc consts  --      1.2784                 1.5262                 1.4532
 IR Inten    --     10.2479                46.0282                33.6313

                     37                     38                     39
                      A                      A                      A
 Frequencies --   1097.5352              1104.8006              1145.9879
 Red. masses --      2.1949                 2.4070                 2.0063
 Frc consts  --      1.5577                 1.7310                 1.5524
 IR Inten    --     77.2744                14.3458                34.4211

                     40                     41                     42
                      A                      A                      A
 Frequencies --   1148.8502              1164.1048              1171.8772
 Red. masses --      2.1000                 3.4784                 2.2762
 Frc consts  --      1.6330                 2.7772                 1.8417
 IR Inten    --     12.3465               136.4252                52.9389

                     43                     44                     45
                      A                      A                      A
 Frequencies --   1179.8575              1192.3477              1198.0683
 Red. masses --      2.5987                 1.5988                 1.4996
 Frc consts  --      2.1314                 1.3392                 1.2682
 IR Inten    --     77.0653                26.4205                 3.7731

                     46                     47                     48
                      A                      A                      A
 Frequencies --   1202.2404              1226.2473              1237.8659
 Red. masses --      1.6611                 1.5024                 1.7260
 Frc consts  --      1.4146                 1.3310                 1.5582
 IR Inten    --     11.6957                38.4758                37.7621

                     49                     50                     51
                      A                      A                      A
 Frequencies --   1267.3206              1271.2742              1284.5628
 Red. masses --      1.2425                 1.2457                 1.1701
 Frc consts  --      1.1758                 1.1862                 1.1376
 IR Inten    --      3.7284                26.7329                 4.0063

                     52                     53                     54
                      A                      A                      A
 Frequencies --   1297.1108              1323.2420              1350.4318
 Red. masses --      1.3523                 1.3435                 1.2983
 Frc consts  --      1.3405                 1.3860                 1.3950
 IR Inten    --     17.9533                 7.1497                 4.5771

                     55                     56                     57
                      A                      A                      A
 Frequencies --   1375.2873              1398.8479              1413.8399
 Red. masses --      1.5290                 1.3016                 1.4289
 Frc consts  --      1.7039                 1.5006                 1.6829
 IR Inten    --      3.7316                28.6239                 4.9859

                     58                     59                     60
                      A                      A                      A
 Frequencies --   1415.7764              1425.0877              1431.4364
 Red. masses --      1.3841                 1.2968                 1.3403
 Frc consts  --      1.6346                 1.5517                 1.6180
 IR Inten    --      5.2751                17.8742                11.5193

                     61                     62                     63
                      A                      A                      A
 Frequencies --   1449.4943              1465.9779              1502.8388
 Red. masses --      1.2466                 1.2683                 1.1552
 Frc consts  --      1.5431                 1.6059                 1.5371
 IR Inten    --     12.1052               101.4821                 6.0206

                     64                     65                     66
                      A                      A                      A
 Frequencies --   1502.9086              1503.5067              1514.3461
 Red. masses --      1.1191                 1.1267                 1.0482
 Frc consts  --      1.4893                 1.5006                 1.4162
 IR Inten    --      1.9870                 4.4778                 4.2048

                     67                     68                     69
                      A                      A                      A
 Frequencies --   1515.0973              1523.0276              1530.3623
 Red. masses --      1.0486                 1.1157                 1.0801
 Frc consts  --      1.4182                 1.5248                 1.4904
 IR Inten    --      5.2677                 5.4861                 5.1104

                     70                     71                     72
                      A                      A                      A
 Frequencies --   1531.9118              1533.2547              1538.0440
 Red. masses --      1.0633                 1.0749                 1.0855
 Frc consts  --      1.4702                 1.4888                 1.5129
 IR Inten    --      8.4044                24.4221                16.1742

                     73                     74                     75
                      A                      A                      A
 Frequencies --   1548.6790              1556.9955              1558.0200
 Red. masses --      1.0820                 1.0938                 1.0855
 Frc consts  --      1.5289                 1.5623                 1.5525
 IR Inten    --     21.4331                 6.0524                 1.5953

                     76                     77                     78
                      A                      A                      A
 Frequencies --   2971.1627              2982.6440              2987.9897
 Red. masses --      1.0623                 1.0515                 1.0423
 Frc consts  --      5.5252                 5.5113                 5.4830
 IR Inten    --     39.9600                32.6631               110.7481

                     79                     80                     81
                      A                      A                      A
 Frequencies --   2997.7460              3009.1574              3019.4246
 Red. masses --      1.0404                 1.0869                 1.0835
 Frc consts  --      5.5085                 5.7989                 5.8202
 IR Inten    --     66.7059                40.3630                60.4703

                     82                     83                     84
                      A                      A                      A
 Frequencies --   3022.7423              3029.6488              3041.0936
 Red. masses --      1.0835                 1.1030                 1.1052
 Frc consts  --      5.8328                 5.9652                 6.0221
 IR Inten    --     33.6903                71.6079                61.6143

                     85                     86                     87
                      A                      A                      A
 Frequencies --   3041.8995              3052.2687              3057.0255
 Red. masses --      1.0944                 1.0366                 1.0608
 Frc consts  --      5.9665                 5.6898                 5.8410
 IR Inten    --     32.1206                24.3762                52.5666

                     88                     89                     90
                      A                      A                      A
 Frequencies --   3077.3368              3091.4341              3100.7822
 Red. masses --      1.0958                 1.0863                 1.1063
 Frc consts  --      6.1140                 6.1169                 6.2673
 IR Inten    --     40.5377                28.0549                35.2310

                     91                     92                     93
                      A                      A                      A
 Frequencies --   3112.7264              3130.9017              3132.1819
 Red. masses --      1.1016                 1.0966                 1.1020
 Frc consts  --      6.2887                 6.3333                 6.3697
 IR Inten    --     34.1704                39.3337                19.2593

                     94                     95                     96
                      A                      A                      A
 Frequencies --   3139.6163              3498.2419              3626.6949
 Red. masses --      1.0972                 1.0725                 1.0649
 Frc consts  --      6.3723                 7.7330                 8.2521
 IR Inten    --     28.5083                 1.1107                72.5472

 - Thermochemistry -
 -------------------
 Temperature   298.150 Kelvin.  Pressure   1.00000 Atm.
 Atom     1 has atomic number  6 and mass  12.00000

 Molecular mass:   191.15214 amu.
 Principal axes and moments of inertia in atomic units:
                           1         2         3
     Eigenvalues --  1277.990515356.129786235.92737
           X            0.99998   0.00090  -0.00673
           Y           -0.00091   1.00000  -0.00152
           Z            0.00673   0.00153   0.99998
 This molecule is an asymmetric top.
 Rotational symmetry number  1.
 Warning -- assumption of classical behavior for rotation
           may cause significant error
 Rotational temperatures (Kelvin)      0.06777     0.01617     0.01389
 Rotational constants (GHZ):           1.41217     0.33695     0.28941
 Zero-point vibrational energy     811523.7 (Joules/Mol)
                                  193.95881 (Kcal/Mol)
 Warning -- explicit consideration of  24 degrees of freedom as
           vibrations may cause significant error
 Vibrational temperatures:     43.17    53.63    83.07    92.41   127.56
          (Kelvin)            154.46   169.39   243.68   280.23   294.82
                              320.12   332.63   342.02   373.33   414.05
                              462.35   501.93   535.29   589.47   615.64
                              701.72   803.05   823.73   855.76  1013.34
                             1139.90  1175.03  1273.71  1316.27  1331.74
                             1356.02  1390.73  1427.99  1448.28  1502.83
                             1524.46  1579.11  1589.56  1648.82  1652.94
                             1674.89  1686.07  1697.55  1715.52  1723.75
                             1729.76  1764.30  1781.01  1823.39  1829.08
                             1848.20  1866.25  1903.85  1942.97  1978.73
                             2012.63  2034.20  2036.99  2050.38  2059.52
                             2085.50  2109.22  2162.25  2162.35  2163.21
                             2178.81  2179.89  2191.30  2201.85  2204.08
                             2206.01  2212.90  2228.20  2240.17  2241.64
                             4274.84  4291.36  4299.05  4313.09  4329.51
                             4344.28  4349.05  4358.99  4375.46  4376.61
                             4391.53  4398.38  4427.60  4447.88  4461.33
                             4478.52  4504.67  4506.51  4517.21  5033.19
                             5218.01

 Zero-point correction=                           0.309093 (Hartree/Particle)
 Thermal correction to Energy=                    0.325138
 Thermal correction to Enthalpy=                  0.326082
 Thermal correction to Gibbs Free Energy=         0.264465
 Sum of electronic and zero-point Energies=           -635.721005
 Sum of electronic and thermal Energies=              -635.704960
 Sum of electronic and thermal Enthalpies=            -635.704016
 Sum of electronic and thermal Free Energies=         -635.765633

                     E (Thermal)             CV                S
                      KCal/Mol        Cal/Mol-Kelvin    Cal/Mol-Kelvin
 Total                  204.027             57.338            129.684
 Electronic               0.000              0.000              0.000
 Translational            0.889              2.981             41.649
 Rotational               0.889              2.981             32.123
 Vibrational            202.250             51.376             55.911
 Vibration     1          0.594              1.984              5.829
 Vibration     2          0.594              1.982              5.399
 Vibration     3          0.596              1.974              4.533
 Vibration     4          0.597              1.971              4.323
 Vibration     5          0.601              1.957              3.689
 Vibration     6          0.606              1.943              3.316
 Vibration     7          0.608              1.935              3.137
 Vibration     8          0.625              1.880              2.442
 Vibration     9          0.635              1.847              2.182
 Vibration    10          0.640              1.833              2.089
 Vibration    11          0.648              1.807              1.939
 Vibration    12          0.653              1.793              1.870
 Vibration    13          0.656              1.783              1.820
 Vibration    14          0.668              1.747              1.665
 Vibration    15          0.685              1.696              1.487
 Vibration    16          0.707              1.633              1.303
 Vibration    17          0.726              1.578              1.171
 Vibration    18          0.744              1.530              1.071
 Vibration    19          0.774              1.449              0.928
 Vibration    20          0.789              1.410              0.866
 Vibration    21          0.844              1.277              0.690
 Vibration    22          0.914              1.122              0.528
 Vibration    23          0.929              1.091              0.499
 Vibration    24          0.952              1.043              0.459

 Optimization completed.
    -- Stationary point found.
 Normal termination of Gaussian 16 at Wed Dec  9 23:18:50 2020.

 ----------------------------------------------------------------------
 # B3LYP/6-311++G(d,p) empiricaldispersion=gd3bj scf=xqc pop=npa geom=c
 heck
 ----------------------------------------------------------------------

 ---------------------------------------
 CID_116092186_JID_3418_Energie_neutraal
 ---------------------------------------
 Structure from the checkpoint file:  "JID_3418.chk"
 Charge =  0 Multiplicity = 1

 SCF Done:  E(RB3LYP) =  -636.231963600     A.U. after   14 cycles
 Normal termination of Gaussian 16 at Wed Dec  9 23:23:07 2020.

 ----------------------------------------------------------------------
 # B3LYP/6-311++G(d,p) empiricaldispersion=gd3bj scf=xqc pop=npa geom=c
 heck
 ----------------------------------------------------------------------

 -------------------------------------
 CID_116092186_JID_3418_Energie_kation
 -------------------------------------
 Structure from the checkpoint file:  "JID_3418.chk"
 Charge =  1 Multiplicity = 2

 SCF Done:  E(UB3LYP) =  -635.922519230     A.U. after   29 cycles
 Normal termination of Gaussian 16 at Wed Dec  9 23:35:53 2020.
 Gaussian 16:  ES64L-G16RevA.03 25-Dec-2016

 ----------------------------------------------------------------------
 # B3LYP/6-311++G(d,p) empiricaldispersion=gd3bj scf=xqc pop=npa geom=c
 heck
 ----------------------------------------------------------------------

 ------------------------------------
 CID_116092186_JID_3418_Energie_anion
 ------------------------------------
 Structure from the checkpoint file:  "JID_3418.chk"
 Charge = -1 Multiplicity = 2

                         Standard orientation:
 ---------------------------------------------------------------------
 Center     Atomic      Atomic             Coordinates (Angstroms)
 Number     Number       Type             X           Y           Z
 ---------------------------------------------------------------------
      1          6           0        0.756472    1.621123   -0.112249
      2          6           0        1.292843    0.256377   -0.566346
      3          6           0        2.806655    0.290853   -0.764450
      4          8           0        3.417468    0.676565    0.456892
      5          6           0        4.823837    0.648000    0.389849
      6          6           0        0.926023   -0.903666    0.390706
      7          6           0       -0.554275   -0.937682    0.779176
      8          7           0       -1.347925   -1.216775   -0.422254
      9          6           0       -2.767858   -1.450702   -0.173760
     10          6           0       -3.502959   -0.253618    0.431946
     11          8           0       -3.233791    0.868359   -0.391393
     12          6           0       -3.820689    2.058039    0.091261
     13          8           0        1.275014   -2.155287   -0.194646
     14          1           0        1.090073    1.852916    0.903982
     15          1           0       -0.338124    1.654787   -0.136651
     16          1           0        1.128555    2.415365   -0.769692
     17          1           0        0.865113    0.014978   -1.550630
     18          1           0        3.159292   -0.704872   -1.070420
     19          1           0        3.071900    1.009891   -1.559228
     20          1           0        5.199506   -0.360467    0.153483
     21          1           0        5.209980    1.345810   -0.371624
     22          1           0        5.203244    0.948786    1.370249
     23          1           0        1.531057   -0.798367    1.297227
     24          1           0       -0.706286   -1.768243    1.478756
     25          1           0       -0.839774   -0.010718    1.298612
     26          1           0       -1.288416   -0.408967   -1.040517
     27          1           0       -3.237618   -1.707364   -1.130319
     28          1           0       -2.878217   -2.316195    0.490954
     29          1           0       -4.586640   -0.453105    0.479198
     30          1           0       -3.159087   -0.057168    1.460509
     31          1           0       -4.918895    1.982543    0.126051
     32          1           0       -3.457684    2.306877    1.100945
     33          1           0       -3.539784    2.859745   -0.596221
     34          1           0        0.497458   -2.378248   -0.742506
 ---------------------------------------------------------------------

 SCF Done:  E(UB3LYP) =  -636.217114530     A.U. after   28 cycles

 The electronic state is 2-A.
 Alpha  occ. eigenvalues --  -19.03466 -19.03334 -19.01901 -14.21322 -10.12231
 Alpha  occ. eigenvalues --  -10.12161 -10.11951 -10.11880 -10.11159 -10.10434
 Alpha  occ. eigenvalues --  -10.09904 -10.08257 -10.06296  -0.94862  -0.94612
 Alpha  occ. eigenvalues --   -0.92620  -0.81870  -0.71085  -0.66351  -0.62365
 Alpha  occ. eigenvalues --   -0.60685  -0.57450  -0.56514  -0.53279  -0.50564
 Alpha  occ. eigenvalues --   -0.47035  -0.42090  -0.40732  -0.40308  -0.39645
 Alpha  occ. eigenvalues --   -0.38599  -0.37889  -0.37294  -0.36099  -0.35305
 Alpha  occ. eigenvalues --   -0.34359  -0.32121  -0.31808  -0.30757  -0.30145
 Alpha  occ. eigenvalues --   -0.28884  -0.28259  -0.27319  -0.26157  -0.25780
 Alpha  occ. eigenvalues --   -0.25228  -0.23329  -0.22993  -0.22254  -0.17765
 Alpha  occ. eigenvalues --   -0.17130  -0.17092  -0.14871   0.04316
 Alpha virt. eigenvalues --    0.05597   0.07021   0.07324   0.07960   0.08667
 Alpha virt. eigenvalues --    0.08913   0.09713   0.10259   0.10391   0.10652
 Alpha virt. eigenvalues --    0.10879   0.11775   0.12342   0.12855   0.13265

  Beta  occ. eigenvalues --  -19.03459 -19.03322 -19.01898 -14.21322 -10.12201
  Beta  occ. eigenvalues --  -10.12159 -10.11941 -10.11846 -10.11106 -10.10420
  Beta  occ. eigenvalues --  -10.09892 -10.08254 -10.06281  -0.94852  -0.94593
  Beta  occ. eigenvalues --   -0.92614  -0.81861  -0.71071  -0.66315  -0.62330
  Beta  occ. eigenvalues --   -0.60649  -0.57379  -0.56461  -0.53236  -0.50495
  Beta  occ. eigenvalues --   -0.47012  -0.42071  -0.40694  -0.40247  -0.39621
  Beta  occ. eigenvalues --   -0.38571  -0.37855  -0.37257  -0.36070  -0.35284
  Beta  occ. eigenvalues --   -0.34327  -0.32095  -0.31777  -0.30738  -0.30118
  Beta  occ. eigenvalues --   -0.28862  -0.28207  -0.27294  -0.26135  -0.25761
  Beta  occ. eigenvalues --   -0.25210  -0.23254  -0.22960  -0.22239  -0.17756
  Beta  occ. eigenvalues --   -0.17111  -0.17064  -0.14862
  Beta virt. eigenvalues --    0.06235   0.06867   0.07482   0.07656   0.08543
  Beta virt. eigenvalues --    0.09134   0.09164   0.10209   0.10755   0.10765
  Beta virt. eigenvalues --    0.10975   0.11052   0.11952   0.12623   0.13154

 Mulliken charges and spin densities:
               1          2
     1  C   -0.031744  -0.648968
     2  C    0.047947   0.453619
     3  C   -0.762915   0.245785
     4  O   -0.139335   0.043543
     5  C    0.580808  -0.817431
     6  C    0.009198  -0.700842
     7  C   -0.210016  -0.224898
     8  N   -0.162905   0.074970
     9  C   -0.183074  -0.188203
    10  C    0.425977  -0.699920
    11  O   -0.236880   0.081695
    12  C    1.091355  -1.333301
    13  O   -0.196232   0.014853
    14  H    0.003495   0.185835
    15  H    0.373259  -0.261898
    16  H   -0.145678   0.288854
    17  H    0.011686   0.176343
    18  H    0.173725  -0.015524
    19  H    0.043002   0.097983
    20  H   -0.081028   0.209545
    21  H   -0.306803   0.433242
    22  H   -0.153884   0.291290
    23  H    0.145387   0.087312
    24  H    0.083262   0.114926
    25  H    0.166612  -0.038652
    26  H    0.322888  -0.052992
    27  H   -0.032682   0.226983
    28  H   -0.058483   0.200765
    29  H   -0.646221   0.812936
    30  H   -0.145019   0.290659
    31  H   -0.538858   0.673129
    32  H   -0.317610   0.451115
    33  H   -0.361274   0.500926
    34  H    0.232037   0.026321
 Sum of Mulliken charges =  -1.00000   1.00000

 Dipole moment (field-independent basis, Debye):
    X=              4.1021    Y=             -3.4276    Z=             -1.4692  Tot=              5.5438
 Quadrupole moment (field-independent basis, Debye-Ang):
   XX=           -199.1945   YY=           -128.2168   ZZ=           -110.7060
   XY=              6.6668   XZ=              3.4794   YZ=              0.1988

 Summary of Natural Population Analysis:

                                       Natural Population
                Natural  -----------------------------------------------
    Atom  No    Charge         Core      Valence    Rydberg      Total
 -----------------------------------------------------------------------
      C    1   -0.29307      0.99964     2.28618    0.00725     3.29307
      C    2   -0.13252      0.99958     2.12067    0.01228     3.13252
      C    3   -0.00621      0.99956     1.99398    0.01267     3.00621
      O    4   -0.30211      0.99988     3.29269    0.00954     4.30211
      C    5   -0.09584      0.99962     2.08694    0.00928     3.09584
      C    6    0.06166      0.99953     1.92471    0.01410     2.93834
      C    7   -0.10279      0.99960     2.09235    0.01084     3.10279
      N    8   -0.35442      0.99974     2.84310    0.01157     3.85442
      C    9   -0.09266      0.99963     2.08006    0.01297     3.09266
      C   10   -0.01825      0.99959     2.00642    0.01224     3.01825
      O   11   -0.30515      0.99988     3.29520    0.01006     4.30515
      C   12   -0.09563      0.99962     2.08668    0.00933     3.09563
      O   13   -0.38046      0.99990     3.37407    0.00649     4.38046
      H   14    0.10411      0.00000     0.39443    0.00147     0.39589
      H   15    0.10223      0.00000     0.39610    0.00167     0.39777
      H   16    0.10047      0.00000     0.39859    0.00094     0.39953
      H   17    0.09693      0.00000     0.40177    0.00130     0.40307
      H   18    0.08900      0.00000     0.40942    0.00158     0.41100
      H   19    0.07815      0.00000     0.42059    0.00126     0.42185
      H   20    0.07752      0.00000     0.42117    0.00131     0.42248
      H   21    0.07800      0.00000     0.42015    0.00185     0.42200
      H   22    0.08978      0.00000     0.40915    0.00107     0.41022
      H   23    0.09357      0.00000     0.40443    0.00199     0.40643
      H   24    0.09541      0.00000     0.40346    0.00113     0.40459
      H   25    0.09152      0.00000     0.40687    0.00161     0.40848
      H   26    0.17998      0.00000     0.31645    0.00356     0.32002
      H   27    0.09525      0.00000     0.40364    0.00110     0.40475
      H   28    0.09361      0.00000     0.40527    0.00112     0.40639
      H   29    0.08600      0.00000     0.41132    0.00269     0.41400
      H   30    0.07903      0.00000     0.41918    0.00178     0.42097
      H   31    0.08191      0.00000     0.41520    0.00290     0.41809
      H   32    0.07995      0.00000     0.41807    0.00198     0.42005
      H   33    0.09043      0.00000     0.40811    0.00146     0.40957
      H   34    0.23462      0.00000     0.26223    0.00316     0.26538
 =======================================================================
   * Total *    0.00000     12.99579    39.82867    0.17554    53.00000

 Normal termination of Gaussian 16 at Wed Dec  9 23:47:45 2020.
