 Gaussian 16, Revision A.03,

 -----------------------------------------------------------
 # opt freq B3LYP/6-31G(d) empiricaldispersion=gd3bj scf=xqc
 -----------------------------------------------------------

 ------------------------------
 CID_65950325_JID_4959_neutraal
 ------------------------------
 Symbolic Z-matrix:
 Charge =  0 Multiplicity = 1

 SCF Done:  E(RB3LYP) =  -671.727031872     A.U. after   14 cycles
 SCF Done:  E(RB3LYP) =  -671.735875175     A.U. after   12 cycles
 SCF Done:  E(RB3LYP) =  -671.736666709     A.U. after   11 cycles
 SCF Done:  E(RB3LYP) =  -671.737047338     A.U. after   11 cycles
 SCF Done:  E(RB3LYP) =  -671.737203380     A.U. after   10 cycles
 SCF Done:  E(RB3LYP) =  -671.737362675     A.U. after   12 cycles
 SCF Done:  E(RB3LYP) =  -671.737605716     A.U. after   11 cycles
 SCF Done:  E(RB3LYP) =  -671.737929999     A.U. after   12 cycles
 SCF Done:  E(RB3LYP) =  -671.738015331     A.U. after   10 cycles
 SCF Done:  E(RB3LYP) =  -671.738103435     A.U. after   11 cycles
 SCF Done:  E(RB3LYP) =  -671.738207812     A.U. after   10 cycles
 SCF Done:  E(RB3LYP) =  -671.738210770     A.U. after    9 cycles
 SCF Done:  E(RB3LYP) =  -671.738208084     A.U. after   10 cycles
 SCF Done:  E(RB3LYP) =  -671.738212431     A.U. after   10 cycles
 SCF Done:  E(RB3LYP) =  -671.738212632     A.U. after    8 cycles
 SCF Done:  E(RB3LYP) =  -671.738212654     A.U. after    7 cycles
 Optimization completed.
    -- Stationary point found.
 Normal termination of Gaussian 16 at Thu Dec 10 11:10:35 2020.

 --------------------------------------------------------------------
 #N Geom=AllCheck Guess=TCheck SCRF=Check GenChk RB3LYP/6-31G(d) Freq
 --------------------------------------------------------------------

 Structure from the checkpoint file:  "JID_4959.chk"
 ------------------------------
 CID_65950325_JID_4959_neutraal
 ------------------------------
 Charge =  0 Multiplicity = 1

 SCF Done:  E(RB3LYP) =  -671.738212654     A.U. after    1 cycles

  Exact polarizability: 133.166  -0.266 109.836   0.561  -5.224 102.164
 Approx polarizability: 162.011  -4.779 172.332   5.604 -13.250 150.796

                      1                      2                      3
                      A                      A                      A
 Frequencies --     24.4137                43.5498                68.6107
 Red. masses --      4.0219                 3.3004                 3.6879
 Frc consts  --      0.0014                 0.0037                 0.0102
 IR Inten    --      0.6269                 0.4197                 1.7361

                      4                      5                      6
                      A                      A                      A
 Frequencies --     86.5147               110.6800               149.4544
 Red. masses --      4.2014                 2.2416                 3.0325
 Frc consts  --      0.0185                 0.0162                 0.0399
 IR Inten    --      1.7625                 0.7298                 0.9156

                      7                      8                      9
                      A                      A                      A
 Frequencies --    154.7673               210.9317               227.0228
 Red. masses --      3.8281                 1.7537                 2.1058
 Frc consts  --      0.0540                 0.0460                 0.0639
 IR Inten    --      8.2649                 1.0914                 4.7504

                     10                     11                     12
                      A                      A                      A
 Frequencies --    242.1397               255.0650               296.8797
 Red. masses --      2.7449                 2.8326                 2.1163
 Frc consts  --      0.0948                 0.1086                 0.1099
 IR Inten    --      2.3224                 1.9950                12.8198

                     13                     14                     15
                      A                      A                      A
 Frequencies --    323.2783               340.4247               367.1241
 Red. masses --      1.1684                 2.7700                 2.8097
 Frc consts  --      0.0719                 0.1891                 0.2231
 IR Inten    --     73.5030                 7.3960                17.0646

                     16                     17                     18
                      A                      A                      A
 Frequencies --    402.3224               439.2781               481.9240
 Red. masses --      3.0309                 3.0109                 3.8050
 Frc consts  --      0.2891                 0.3423                 0.5207
 IR Inten    --      5.7840                 4.2235                 5.1490

                     19                     20                     21
                      A                      A                      A
 Frequencies --    561.1525               616.9236               659.7739
 Red. masses --      2.7657                 3.6293                 3.1419
 Frc consts  --      0.5131                 0.8138                 0.8058
 IR Inten    --      7.9185                 2.0639                15.7929

                     22                     23                     24
                      A                      A                      A
 Frequencies --    698.0226               716.4796               769.4142
 Red. masses --      4.5077                 3.1322                 6.2158
 Frc consts  --      1.2940                 0.9474                 2.1680
 IR Inten    --     12.1336                 3.7263                 4.9707

                     25                     26                     27
                      A                      A                      A
 Frequencies --    800.4920               854.1046               879.3805
 Red. masses --      1.2516                 2.7563                 1.8584
 Frc consts  --      0.4725                 1.1847                 0.8467
 IR Inten    --      0.6522                19.2733                 3.0113

                     28                     29                     30
                      A                      A                      A
 Frequencies --    905.6819               941.9851               950.2152
 Red. masses --      2.1554                 1.4154                 2.0561
 Frc consts  --      1.0416                 0.7400                 1.0938
 IR Inten    --      5.9512                 3.9708                 4.8742

                     31                     32                     33
                      A                      A                      A
 Frequencies --    954.6731               958.1107               990.2914
 Red. masses --      2.9647                 3.0997                 2.1489
 Frc consts  --      1.5920                 1.6765                 1.2416
 IR Inten    --     18.5490                 7.8492                10.7903

                     34                     35                     36
                      A                      A                      A
 Frequencies --    993.7142              1022.7721              1028.4072
 Red. masses --      1.9836                 2.1642                 2.7895
 Frc consts  --      1.1540                 1.3338                 1.7382
 IR Inten    --      4.8310                21.4183                19.6731

                     37                     38                     39
                      A                      A                      A
 Frequencies --   1059.4232              1100.0179              1114.1145
 Red. masses --      2.2423                 2.0774                 2.2967
 Frc consts  --      1.4828                 1.4810                 1.6796
 IR Inten    --     14.3461                18.2508                13.7435

                     40                     41                     42
                      A                      A                      A
 Frequencies --   1119.2367              1139.7985              1146.1692
 Red. masses --      5.2398                 1.1066                 2.3282
 Frc consts  --      3.8673                 0.8470                 1.8021
 IR Inten    --     88.4059                 3.9042                17.5121

                     43                     44                     45
                      A                      A                      A
 Frequencies --   1164.6084              1176.9225              1197.7743
 Red. masses --      1.8032                 1.5057                 3.3207
 Frc consts  --      1.4410                 1.2288                 2.8069
 IR Inten    --     34.6941                11.3218                36.0585

                     46                     47                     48
                      A                      A                      A
 Frequencies --   1222.3676              1239.4644              1247.8707
 Red. masses --      1.2894                 1.3792                 1.7310
 Frc consts  --      1.1351                 1.2483                 1.5881
 IR Inten    --      7.0485                18.1302                34.9772

                     49                     50                     51
                      A                      A                      A
 Frequencies --   1288.1657              1291.0549              1308.4581
 Red. masses --      1.2718                 1.4372                 1.2546
 Frc consts  --      1.2434                 1.4115                 1.2656
 IR Inten    --      1.6603                 3.2160                 8.1247

                     52                     53                     54
                      A                      A                      A
 Frequencies --   1317.7203              1320.4272              1355.1815
 Red. masses --      1.3041                 1.2872                 1.3770
 Frc consts  --      1.3342                 1.3222                 1.4900
 IR Inten    --      2.5726                 6.9186                 4.1290

                     55                     56                     57
                      A                      A                      A
 Frequencies --   1358.5731              1371.6596              1375.0627
 Red. masses --      1.5907                 1.2990                 1.4761
 Frc consts  --      1.7298                 1.4400                 1.6445
 IR Inten    --      4.3029                 2.7891                29.3748

                     58                     59                     60
                      A                      A                      A
 Frequencies --   1412.9173              1432.4226              1439.9440
 Red. masses --      1.4239                 1.9765                 1.2475
 Frc consts  --      1.6748                 2.3894                 1.5240
 IR Inten    --     24.5260                15.7571                 8.8647

                     61                     62                     63
                      A                      A                      A
 Frequencies --   1463.6693              1507.5099              1527.6107
 Red. masses --      5.5019                 1.0773                 1.0454
 Frc consts  --      6.9446                 1.4425                 1.4373
 IR Inten    --    336.8284                 1.2796                 2.7116

                     64                     65                     66
                      A                      A                      A
 Frequencies --   1528.9991              1531.0077              1536.4656
 Red. masses --      1.0915                 1.0786                 1.0884
 Frc consts  --      1.5035                 1.4896                 1.5139
 IR Inten    --      6.3730                 2.7333                 1.3211

                     67                     68                     69
                      A                      A                      A
 Frequencies --   1539.6482              1551.4726              1554.8832
 Red. masses --      1.0630                 1.1107                 1.1012
 Frc consts  --      1.4847                 1.5753                 1.5686
 IR Inten    --      6.3601                 2.5770                13.3636

                     70                     71                     72
                      A                      A                      A
 Frequencies --   1754.1843              2998.0849              3015.7350
 Red. masses --     10.4957                 1.0722                 1.0714
 Frc consts  --     19.0288                 5.6784                 5.7411
 IR Inten    --    303.7351                71.8803                85.5458

                     73                     74                     75
                      A                      A                      A
 Frequencies --   3028.0182              3040.8336              3045.6191
 Red. masses --      1.0683                 1.0672                 1.0608
 Frc consts  --      5.7712                 5.8139                 5.7975
 IR Inten    --     44.6780                58.4671                12.6961

                     76                     77                     78
                      A                      A                      A
 Frequencies --   3056.1656              3082.0710              3094.4235
 Red. masses --      1.0389                 1.1019                 1.0607
 Frc consts  --      5.7169                 6.1673                 5.9841
 IR Inten    --     25.5706                17.4283                19.1063

                     79                     80                     81
                      A                      A                      A
 Frequencies --   3112.9123              3115.1230              3118.7905
 Red. masses --      1.0995                 1.0927                 1.1010
 Frc consts  --      6.2772                 6.2473                 6.3096
 IR Inten    --     27.3060                31.3870                29.0988

                     82                     83                     84
                      A                      A                      A
 Frequencies --   3121.1980              3126.6599              3141.1615
 Red. masses --      1.0950                 1.0905                 1.1008
 Frc consts  --      6.2848                 6.2814                 6.3996
 IR Inten    --     12.4101                10.3191                18.0157

                     85                     86                     87
                      A                      A                      A
 Frequencies --   3142.0217              3145.4651              3736.2336
 Red. masses --      1.0986                 1.1015                 1.0660
 Frc consts  --      6.3900                 6.4213                 8.7679
 IR Inten    --     30.4719                21.9726                 9.8142

 - Thermochemistry -
 -------------------
 Temperature   298.150 Kelvin.  Pressure   1.00000 Atm.
 Atom     1 has atomic number  6 and mass  12.00000

 Molecular mass:   199.12084 amu.
 Principal axes and moments of inertia in atomic units:
                           1         2         3
     Eigenvalues --  1576.046384222.885234669.68901
           X            0.99982   0.00618  -0.01773
           Y           -0.00617   0.99998   0.00022
           Z            0.01774  -0.00011   0.99984
 This molecule is an asymmetric top.
 Rotational symmetry number  1.
 Warning -- assumption of classical behavior for rotation
           may cause significant error
 Rotational temperatures (Kelvin)      0.05496     0.02051     0.01855
 Rotational constants (GHZ):           1.14511     0.42737     0.38648
 Zero-point vibrational energy     707838.1 (Joules/Mol)
                                  169.17738 (Kcal/Mol)
 Warning -- explicit consideration of  20 degrees of freedom as
           vibrations may cause significant error
 Vibrational temperatures:     35.13    62.66    98.72   124.48   159.24
          (Kelvin)            215.03   222.68   303.48   326.64   348.38
                              366.98   427.14   465.13   489.80   528.21
                              578.85   632.02   693.38   807.37   887.62
                              949.27  1004.30  1030.85  1107.02  1151.73
                             1228.87  1265.23  1303.07  1355.31  1367.15
                             1373.56  1378.51  1424.81  1429.73  1471.54
                             1479.65  1524.27  1582.68  1602.96  1610.33
                             1639.92  1649.08  1675.61  1693.33  1723.33
                             1758.71  1783.31  1795.41  1853.38  1857.54
                             1882.58  1895.91  1899.80  1949.80  1954.68
                             1973.51  1978.41  2032.87  2060.94  2071.76
                             2105.89  2168.97  2197.89  2199.89  2202.78
                             2210.63  2215.21  2232.22  2237.13  2523.88
                             4313.58  4338.97  4356.64  4375.08  4381.97
                             4397.14  4434.41  4452.19  4478.79  4481.97
                             4487.24  4490.71  4498.57  4519.43  4520.67
                             4525.62  5375.61

 Zero-point correction=                           0.269601 (Hartree/Particle)
 Thermal correction to Energy=                    0.283849
 Thermal correction to Enthalpy=                  0.284793
 Thermal correction to Gibbs Free Energy=         0.227350
 Sum of electronic and zero-point Energies=           -671.468611
 Sum of electronic and thermal Energies=              -671.454364
 Sum of electronic and thermal Enthalpies=            -671.453420
 Sum of electronic and thermal Free Energies=         -671.510862

                     E (Thermal)             CV                S
                      KCal/Mol        Cal/Mol-Kelvin    Cal/Mol-Kelvin
 Total                  178.118             53.093            120.898
 Electronic               0.000              0.000              0.000
 Translational            0.889              2.981             41.771
 Rotational               0.889              2.981             31.808
 Vibrational            176.340             47.131             47.319
 Vibration     1          0.593              1.985              6.238
 Vibration     2          0.595              1.980              5.091
 Vibration     3          0.598              1.969              4.193
 Vibration     4          0.601              1.959              3.737
 Vibration     5          0.607              1.941              3.257
 Vibration     6          0.618              1.903              2.679
 Vibration     7          0.620              1.897              2.613
 Vibration     8          0.643              1.824              2.036
 Vibration     9          0.651              1.800              1.902
 Vibration    10          0.658              1.776              1.787
 Vibration    11          0.665              1.754              1.695
 Vibration    12          0.691              1.680              1.434
 Vibration    13          0.708              1.629              1.293
 Vibration    14          0.720              1.595              1.210
 Vibration    15          0.740              1.540              1.092
 Vibration    16          0.768              1.465              0.954
 Vibration    17          0.799              1.385              0.829
 Vibration    18          0.838              1.290              0.705
 Vibration    19          0.917              1.115              0.522
 Vibration    20          0.977              0.996              0.421

 Optimization completed.
    -- Stationary point found.
 Normal termination of Gaussian 16 at Thu Dec 10 11:20:25 2020.

 ----------------------------------------------------------------------
 # B3LYP/6-311++G(d,p) empiricaldispersion=gd3bj scf=xqc pop=npa geom=c
 heck
 ----------------------------------------------------------------------

 --------------------------------------
 CID_65950325_JID_4959_Energie_neutraal
 --------------------------------------
 Structure from the checkpoint file:  "JID_4959.chk"
 Charge =  0 Multiplicity = 1

 SCF Done:  E(RB3LYP) =  -671.939403945     A.U. after   14 cycles
 Normal termination of Gaussian 16 at Thu Dec 10 11:24:47 2020.

 ----------------------------------------------------------------------
 # B3LYP/6-311++G(d,p) empiricaldispersion=gd3bj scf=xqc pop=npa geom=c
 heck
 ----------------------------------------------------------------------

 ------------------------------------
 CID_65950325_JID_4959_Energie_kation
 ------------------------------------
 Structure from the checkpoint file:  "JID_4959.chk"
 Charge =  1 Multiplicity = 2

 SCF Done:  E(UB3LYP) =  -671.620476751     A.U. after   27 cycles
 Normal termination of Gaussian 16 at Thu Dec 10 11:36:36 2020.
 Gaussian 16:  ES64L-G16RevA.03 25-Dec-2016

 ----------------------------------------------------------------------
 # B3LYP/6-311++G(d,p) empiricaldispersion=gd3bj scf=xqc pop=npa geom=c
 heck
 ----------------------------------------------------------------------

 -----------------------------------
 CID_65950325_JID_4959_Energie_anion
 -----------------------------------
 Structure from the checkpoint file:  "JID_4959.chk"
 Charge = -1 Multiplicity = 2

                         Standard orientation:
 ---------------------------------------------------------------------
 Center     Atomic      Atomic             Coordinates (Angstroms)
 Number     Number       Type             X           Y           Z
 ---------------------------------------------------------------------
      1          6           0        3.881099   -0.278117   -1.245455
      2          6           0        2.495240   -0.827081   -0.903037
      3          6           0        1.970499   -0.345267    0.444125
      4          6           0        1.564467    1.163094    0.472365
      5          7           0        0.161307    0.747773    0.516768
      6          6           0        0.465625   -0.686173    0.680972
      7          6           0       -0.870875    1.466562   -0.010133
      8          8           0       -0.712753    2.639853   -0.336321
      9          6           0       -2.211341    0.763661   -0.205650
     10          6           0       -2.724503   -0.069694    1.000319
     11          6           0       -3.099076   -1.421890    0.369579
     12          8           0       -2.239063   -1.563420   -0.756799
     13          6           0       -2.178397   -0.278549   -1.363524
     14          8           0        2.877397   -0.781005    1.432698
     15          1           0        3.874152    0.817147   -1.295097
     16          1           0        4.218096   -0.652343   -2.217749
     17          1           0        4.610471   -0.576410   -0.487777
     18          1           0        1.768456   -0.538004   -1.673115
     19          1           0        2.517584   -1.923987   -0.882168
     20          1           0        1.889619    1.698021    1.374798
     21          1           0        1.812578    1.769138   -0.404175
     22          1           0       -0.020013   -1.355488   -0.032025
     23          1           0        0.268048   -1.048456    1.699398
     24          1           0       -2.905826    1.567515   -0.454991
     25          1           0       -3.575054    0.409515    1.492250
     26          1           0       -1.939697   -0.196169    1.750056
     27          1           0       -2.934752   -2.281792    1.023578
     28          1           0       -4.152209   -1.422838    0.044762
     29          1           0       -3.044998   -0.128774   -2.024778
     30          1           0       -1.269847   -0.236478   -1.970324
     31          1           0        2.593170   -0.417694    2.285995
 ---------------------------------------------------------------------

 SCF Done:  E(UB3LYP) =  -671.929495851     A.U. after   30 cycles

 The electronic state is 2-A.
 Alpha  occ. eigenvalues --  -19.03557 -19.03021 -18.98740 -14.24023 -10.17077
 Alpha  occ. eigenvalues --  -10.14193 -10.12947 -10.12216 -10.10659 -10.10632
 Alpha  occ. eigenvalues --  -10.09163 -10.07989 -10.07856 -10.06912  -0.95546
 Alpha  occ. eigenvalues --   -0.94352  -0.93484  -0.85264  -0.70981  -0.69085
 Alpha  occ. eigenvalues --   -0.65428  -0.63795  -0.60307  -0.55702  -0.52334
 Alpha  occ. eigenvalues --   -0.51189  -0.47858  -0.45294  -0.42468  -0.41000
 Alpha  occ. eigenvalues --   -0.40164  -0.38804  -0.37624  -0.36989  -0.34349
 Alpha  occ. eigenvalues --   -0.33835  -0.33386  -0.32495  -0.31674  -0.31126
 Alpha  occ. eigenvalues --   -0.29468  -0.28705  -0.27316  -0.27281  -0.26359
 Alpha  occ. eigenvalues --   -0.25560  -0.25257  -0.24568  -0.23440  -0.23047
 Alpha  occ. eigenvalues --   -0.18487  -0.17150  -0.15468  -0.14605   0.04173
 Alpha virt. eigenvalues --    0.06086   0.06807   0.08058   0.08299   0.09005
 Alpha virt. eigenvalues --    0.09575   0.10313   0.10540   0.10941   0.11361
 Alpha virt. eigenvalues --    0.11489   0.11889   0.12814   0.13184   0.14479

  Beta  occ. eigenvalues --  -19.03553 -19.02973 -18.98737 -14.24021 -10.17077
  Beta  occ. eigenvalues --  -10.14193 -10.12927 -10.12186 -10.10627 -10.10609
  Beta  occ. eigenvalues --  -10.09159 -10.07965 -10.07837 -10.06898  -0.95536
  Beta  occ. eigenvalues --   -0.94305  -0.93437  -0.85246  -0.70955  -0.69052
  Beta  occ. eigenvalues --   -0.65386  -0.63770  -0.60251  -0.55650  -0.52301
  Beta  occ. eigenvalues --   -0.51109  -0.47767  -0.45236  -0.42418  -0.40954
  Beta  occ. eigenvalues --   -0.40133  -0.38773  -0.37598  -0.36953  -0.34325
  Beta  occ. eigenvalues --   -0.33808  -0.33352  -0.32468  -0.31636  -0.31097
  Beta  occ. eigenvalues --   -0.29438  -0.28677  -0.27284  -0.27251  -0.26320
  Beta  occ. eigenvalues --   -0.25529  -0.25229  -0.24538  -0.23417  -0.23014
  Beta  occ. eigenvalues --   -0.18451  -0.17117  -0.15458  -0.14583
  Beta virt. eigenvalues --    0.06428   0.06919   0.07886   0.08625   0.08712
  Beta virt. eigenvalues --    0.09432   0.09782   0.10774   0.10847   0.11179
  Beta virt. eigenvalues --    0.11560   0.11790   0.12233   0.12923   0.13307

 Mulliken charges and spin densities:
               1          2
     1  C    0.120783  -0.692023
     2  C    0.229313  -0.430946
     3  C    0.757371  -0.702802
     4  C    0.052836  -0.332886
     5  N    0.079769   0.066583
     6  C   -0.575598  -0.012796
     7  C    0.319665  -0.557645
     8  O   -0.363354   0.015743
     9  C   -0.961163   1.184863
    10  C    0.304801  -0.526872
    11  C    0.604993  -0.964105
    12  O   -0.086445   0.026185
    13  C    0.567882  -0.995555
    14  O   -0.189994   0.000612
    15  H    0.091464   0.018655
    16  H   -0.026746   0.162962
    17  H    0.048333   0.117685
    18  H   -0.109883   0.252503
    19  H    0.068847   0.103506
    20  H   -0.192872   0.357619
    21  H    0.121211   0.073800
    22  H    0.111222   0.127565
    23  H   -0.385971   0.537014
    24  H    0.048071   0.215474
    25  H   -0.522041   0.707959
    26  H   -0.176005   0.382426
    27  H   -0.228240   0.390312
    28  H   -0.221526   0.366447
    29  H   -0.191349   0.330889
    30  H    0.016332   0.158726
    31  H   -0.311706   0.618100
 Sum of Mulliken charges =  -1.00000   1.00000

 Dipole moment (field-independent basis, Debye):
    X=              1.4895    Y=              0.1505    Z=             -4.0024  Tot=              4.2732
 Quadrupole moment (field-independent basis, Debye-Ang):
   XX=           -151.0810   YY=           -127.4998   ZZ=           -129.0413
   XY=              0.4462   XZ=             -4.1476   YZ=              3.2346

 Summary of Natural Population Analysis:

                                       Natural Population
                Natural  -----------------------------------------------
    Atom  No    Charge         Core      Valence    Rydberg      Total
 -----------------------------------------------------------------------
      C    1   -0.28638      0.99966     2.28241    0.00430     3.28638
      C    2   -0.19281      0.99958     2.18524    0.00800     3.19281
      C    3    0.12747      0.99948     1.85527    0.01777     2.87253
      C    4   -0.08645      0.99960     2.07525    0.01160     3.08645
      N    5   -0.26072      0.99964     2.74929    0.01178     3.76072
      C    6   -0.09035      0.99958     2.07898    0.01179     3.09035
      C    7    0.34978      0.99959     1.62820    0.02243     2.65022
      O    8   -0.32599      0.99988     3.32081    0.00530     4.32599
      C    9   -0.16097      0.99957     2.14981    0.01160     3.16097
      C   10   -0.20311      0.99963     2.19520    0.00828     3.20311
      C   11   -0.01148      0.99960     1.99908    0.01280     3.01148
      O   12   -0.29983      0.99990     3.29090    0.00903     4.29983
      C   13   -0.00775      0.99959     1.99554    0.01262     3.00775
      O   14   -0.37125      0.99988     3.36468    0.00669     4.37125
      H   15    0.09568      0.00000     0.40331    0.00100     0.40432
      H   16    0.09635      0.00000     0.40274    0.00090     0.40365
      H   17    0.10511      0.00000     0.39371    0.00119     0.39489
      H   18    0.09877      0.00000     0.39969    0.00154     0.40123
      H   19    0.10152      0.00000     0.39728    0.00120     0.39848
      H   20    0.09837      0.00000     0.40020    0.00144     0.40163
      H   21    0.10272      0.00000     0.39615    0.00113     0.39728
      H   22    0.10832      0.00000     0.38905    0.00263     0.39168
      H   23    0.09979      0.00000     0.39774    0.00247     0.40021
      H   24    0.11373      0.00000     0.38511    0.00116     0.38627
      H   25    0.10675      0.00000     0.39172    0.00152     0.39325
      H   26    0.10581      0.00000     0.39205    0.00214     0.39419
      H   27    0.09487      0.00000     0.40359    0.00154     0.40513
      H   28    0.07865      0.00000     0.41945    0.00190     0.42135
      H   29    0.08341      0.00000     0.41522    0.00137     0.41659
      H   30    0.09356      0.00000     0.40505    0.00139     0.40644
      H   31    0.23644      0.00000     0.25325    0.01031     0.26356
 =======================================================================
   * Total *   -0.00000     13.99518    39.81598    0.18884    54.00000

 Normal termination of Gaussian 16 at Thu Dec 10 11:49:34 2020.
