 Gaussian 16, Revision A.03,

 -----------------------------------------------------------
 # opt freq B3LYP/6-31G(d) empiricaldispersion=gd3bj scf=xqc
 -----------------------------------------------------------

 -------------------------------
 CID_123284442_JID_2160_neutraal
 -------------------------------
 Symbolic Z-matrix:
 Charge =  0 Multiplicity = 1

 SCF Done:  E(RB3LYP) =  -470.604297308     A.U. after   12 cycles
 SCF Done:  E(RB3LYP) =  -470.606323666     A.U. after   10 cycles
 SCF Done:  E(RB3LYP) =  -470.606586181     A.U. after   10 cycles
 SCF Done:  E(RB3LYP) =  -470.606697172     A.U. after    9 cycles
 SCF Done:  E(RB3LYP) =  -470.606876665     A.U. after   10 cycles
 SCF Done:  E(RB3LYP) =  -470.607553248     A.U. after   10 cycles
 SCF Done:  E(RB3LYP) =  -470.607663298     A.U. after   10 cycles
 SCF Done:  E(RB3LYP) =  -470.607746335     A.U. after   10 cycles
 SCF Done:  E(RB3LYP) =  -470.607888768     A.U. after    9 cycles
 SCF Done:  E(RB3LYP) =  -470.607896058     A.U. after    7 cycles
 SCF Done:  E(RB3LYP) =  -470.607896460     A.U. after    7 cycles
 SCF Done:  E(RB3LYP) =  -470.607896592     A.U. after    6 cycles
 Optimization completed.
    -- Stationary point found.
 Normal termination of Gaussian 16 at Wed Dec  9 16:53:37 2020.

 --------------------------------------------------------------------
 #N Geom=AllCheck Guess=TCheck SCRF=Check GenChk RB3LYP/6-31G(d) Freq
 --------------------------------------------------------------------

 Structure from the checkpoint file:  "JID_2160.chk"
 -------------------------------
 CID_123284442_JID_2160_neutraal
 -------------------------------
 Charge =  0 Multiplicity = 1

 SCF Done:  E(RB3LYP) =  -470.607896592     A.U. after    1 cycles

  Exact polarizability: 127.652   0.037 119.275   0.091  -0.650 106.516
 Approx polarizability: 165.225  -0.127 168.526   0.412  -1.357 166.489

                      1                      2                      3
                      A                      A                      A
 Frequencies --     90.1392               197.9855               211.0235
 Red. masses --      2.6686                 1.5378                 1.8505
 Frc consts  --      0.0128                 0.0355                 0.0486
 IR Inten    --      0.0002                 0.0073                 0.0011

                      4                      5                      6
                      A                      A                      A
 Frequencies --    231.4843               245.6533               265.6479
 Red. masses --      1.3177                 1.3129                 1.7822
 Frc consts  --      0.0416                 0.0467                 0.0741
 IR Inten    --      0.0194                 0.0139                 0.0213

                      7                      8                      9
                      A                      A                      A
 Frequencies --    275.6268               282.7600               293.2887
 Red. masses --      1.6700                 1.2793                 1.5990
 Frc consts  --      0.0748                 0.0603                 0.0810
 IR Inten    --      0.0195                 0.0613                 0.0327

                     10                     11                     12
                      A                      A                      A
 Frequencies --    310.8776               339.5690               364.6290
 Red. masses --      1.8553                 1.7121                 2.3171
 Frc consts  --      0.1056                 0.1163                 0.1815
 IR Inten    --      0.0168                 0.0082                 0.0233

                     13                     14                     15
                      A                      A                      A
 Frequencies --    378.5618               398.2414               427.7558
 Red. masses --      1.8592                 2.3495                 2.9562
 Frc consts  --      0.1570                 0.2195                 0.3187
 IR Inten    --      0.0217                 0.0845                 0.0693

                     16                     17                     18
                      A                      A                      A
 Frequencies --    449.4893               470.4010               483.7668
 Red. masses --      2.2424                 4.3568                 2.6442
 Frc consts  --      0.2669                 0.5680                 0.3646
 IR Inten    --      0.0458                 0.1403                 0.6453

                     19                     20                     21
                      A                      A                      A
 Frequencies --    531.5880               623.4047               650.4620
 Red. masses --      3.7431                 2.7737                 2.8493
 Frc consts  --      0.6232                 0.6351                 0.7103
 IR Inten    --      0.0874                 0.1045                 1.2058

                     22                     23                     24
                      A                      A                      A
 Frequencies --    675.8586               790.4782               802.0386
 Red. masses --      3.4220                 1.7778                 2.2643
 Frc consts  --      0.9210                 0.6545                 0.8582
 IR Inten    --      0.3421                 0.1064                 1.1023

                     25                     26                     27
                      A                      A                      A
 Frequencies --    826.1573               852.2041               902.7209
 Red. masses --      1.6297                 1.5668                 1.9909
 Frc consts  --      0.6554                 0.6704                 0.9559
 IR Inten    --      0.6036                 0.4961                 0.3427

                     28                     29                     30
                      A                      A                      A
 Frequencies --    920.7953               934.2638               947.9371
 Red. masses --      2.0736                 1.7038                 1.7036
 Frc consts  --      1.0359                 0.8762                 0.9019
 IR Inten    --      0.1265                 0.4523                 0.0491

                     31                     32                     33
                      A                      A                      A
 Frequencies --    990.1833              1010.7994              1024.3889
 Red. masses --      1.4539                 1.6458                 1.6640
 Frc consts  --      0.8399                 0.9908                 1.0288
 IR Inten    --      0.0683                 1.8932                 2.0930

                     34                     35                     36
                      A                      A                      A
 Frequencies --   1033.7336              1047.3623              1055.0867
 Red. masses --      1.9310                 1.9275                 2.0779
 Frc consts  --      1.2158                 1.2458                 1.3628
 IR Inten    --      0.4173                 3.5539                 1.4832

                     37                     38                     39
                      A                      A                      A
 Frequencies --   1072.3185              1084.7654              1123.8120
 Red. masses --      1.5952                 1.5876                 1.6926
 Frc consts  --      1.0807                 1.1007                 1.2595
 IR Inten    --      4.1161                 0.4946                 0.9629

                     40                     41                     42
                      A                      A                      A
 Frequencies --   1124.8706              1135.4623              1151.8442
 Red. masses --      2.1661                 1.6541                 1.6648
 Frc consts  --      1.6149                 1.2565                 1.3014
 IR Inten    --      0.4342                 0.5955                 1.0062

                     43                     44                     45
                      A                      A                      A
 Frequencies --   1171.5916              1193.8109              1227.8547
 Red. masses --      1.9374                 3.6361                 1.8924
 Frc consts  --      1.5669                 3.0532                 1.6810
 IR Inten    --      1.1167                 1.7731                 0.5364

                     46                     47                     48
                      A                      A                      A
 Frequencies --   1244.2285              1254.1761              1294.7588
 Red. masses --      2.0864                 1.8672                 1.3235
 Frc consts  --      1.9031                 1.7305                 1.3073
 IR Inten    --      1.2819                 0.6198                 1.0717

                     49                     50                     51
                      A                      A                      A
 Frequencies --   1301.0938              1326.4474              1340.5350
 Red. masses --      1.3378                 1.5963                 1.3487
 Frc consts  --      1.3343                 1.6548                 1.4279
 IR Inten    --      0.9769                 2.5644                 0.3778

                     52                     53                     54
                      A                      A                      A
 Frequencies --   1350.0164              1358.3379              1362.8677
 Red. masses --      1.5273                 1.4641                 1.4401
 Frc consts  --      1.6401                 1.5916                 1.5759
 IR Inten    --      0.1781                 0.0933                 0.6082

                     55                     56                     57
                      A                      A                      A
 Frequencies --   1381.5482              1392.1736              1399.8500
 Red. masses --      1.4415                 1.5025                 1.5772
 Frc consts  --      1.6211                 1.7157                 1.8210
 IR Inten    --      1.4983                 1.9070                 1.2421

                     58                     59                     60
                      A                      A                      A
 Frequencies --   1407.0970              1435.5409              1436.3226
 Red. masses --      1.4908                 1.2925                 1.2444
 Frc consts  --      1.7391                 1.5693                 1.5126
 IR Inten    --      0.4359                 0.4129                 3.6445

                     61                     62                     63
                      A                      A                      A
 Frequencies --   1442.8597              1448.9539              1512.0500
 Red. masses --      1.2307                 1.2141                 1.0703
 Frc consts  --      1.5096                 1.5018                 1.4417
 IR Inten    --      8.0130                 6.2289                 0.6458

                     64                     65                     66
                      A                      A                      A
 Frequencies --   1516.2511              1520.9960              1521.3722
 Red. masses --      1.0662                 1.0662                 1.0508
 Frc consts  --      1.4442                 1.4532                 1.4330
 IR Inten    --      1.6094                 1.6501                 1.5214

                     67                     68                     69
                      A                      A                      A
 Frequencies --   1527.4203              1528.5060              1531.7087
 Red. masses --      1.0649                 1.0538                 1.0713
 Frc consts  --      1.4637                 1.4506                 1.4808
 IR Inten    --      0.5787                 3.7849                 2.3516

                     70                     71                     72
                      A                      A                      A
 Frequencies --   1535.4028              1537.7032              1546.1069
 Red. masses --      1.0572                 1.0568                 1.0655
 Frc consts  --      1.4685                 1.4723                 1.5007
 IR Inten    --     14.9910                 3.7883                 4.2557

                     73                     74                     75
                      A                      A                      A
 Frequencies --   1551.5508              1555.9404              2999.7972
 Red. masses --      1.0688                 1.0521                 1.0845
 Frc consts  --      1.5159                 1.5007                 5.7497
 IR Inten    --      0.1894                 6.3158                 9.0211

                     76                     77                     78
                      A                      A                      A
 Frequencies --   3021.5707              3030.2278              3035.9211
 Red. masses --      1.0834                 1.0574                 1.0512
 Frc consts  --      5.8281                 5.7207                 5.7082
 IR Inten    --     38.6528                16.8493                 2.0079

                     79                     80                     81
                      A                      A                      A
 Frequencies --   3037.1015              3040.5256              3041.9933
 Red. masses --      1.0467                 1.0524                 1.0537
 Frc consts  --      5.6882                 5.7320                 5.7451
 IR Inten    --      7.5142                76.5706                96.4415

                     82                     83                     84
                      A                      A                      A
 Frequencies --   3048.7565              3055.6863              3062.9728
 Red. masses --      1.0634                 1.0375                 1.0984
 Frc consts  --      5.8234                 5.7078                 6.0717
 IR Inten    --     23.2167                15.2135                22.0282

                     85                     86                     87
                      A                      A                      A
 Frequencies --   3067.1344              3070.7933              3082.8961
 Red. masses --      1.0431                 1.0946                 1.1038
 Frc consts  --      5.7813                 6.0815                 6.1812
 IR Inten    --     15.2980                13.9148                37.9802

                     88                     89                     90
                      A                      A                      A
 Frequencies --   3089.8528              3099.2719              3100.5168
 Red. masses --      1.1023                 1.1018                 1.1014
 Frc consts  --      6.2004                 6.2355                 6.2381
 IR Inten    --     43.9681                 5.3549               100.5146

                     91                     92                     93
                      A                      A                      A
 Frequencies --   3111.3901              3114.9753              3116.5508
 Red. masses --      1.1017                 1.1003                 1.1010
 Frc consts  --      6.2839                 6.2904                 6.3007
 IR Inten    --     21.3923                49.9221                28.5330

                     94                     95                     96
                      A                      A                      A
 Frequencies --   3127.9896              3132.6508              3133.7634
 Red. masses --      1.1006                 1.1004                 1.1010
 Frc consts  --      6.3445                 6.3622                 6.3702
 IR Inten    --     58.6222                15.3618                46.6689

 - Thermochemistry -
 -------------------
 Temperature   298.150 Kelvin.  Pressure   1.00000 Atm.
 Atom     1 has atomic number  6 and mass  12.00000

 Molecular mass:   166.17215 amu.
 Principal axes and moments of inertia in atomic units:
                           1         2         3
     Eigenvalues --  1375.813891913.763332466.95697
           X            1.00000  -0.00137   0.00001
           Y            0.00136   0.99997   0.00735
           Z           -0.00002  -0.00735   0.99997
 This molecule is an asymmetric top.
 Rotational symmetry number  1.
 Warning -- assumption of classical behavior for rotation
           may cause significant error
 Rotational temperatures (Kelvin)      0.06295     0.04526     0.03511
 Rotational constants (GHZ):           1.31176     0.94303     0.73157
 Zero-point vibrational energy     842212.0 (Joules/Mol)
                                  201.29349 (Kcal/Mol)
 Warning -- explicit consideration of  19 degrees of freedom as
           vibrations may cause significant error
 Vibrational temperatures:    129.69   284.86   303.62   333.05   353.44
          (Kelvin)            382.21   396.57   406.83   421.98   447.28
                              488.56   524.62   544.67   572.98   615.45
                              646.71   676.80   696.03   764.84   896.94
                              935.87   972.41  1137.32  1153.95  1188.66
                             1226.13  1298.81  1324.82  1344.20  1363.87
                             1424.65  1454.31  1473.87  1487.31  1506.92
                             1518.03  1542.83  1560.74  1616.91  1618.44
                             1633.68  1657.25  1685.66  1717.63  1766.61
                             1790.17  1804.48  1862.87  1871.98  1908.46
                             1928.73  1942.37  1954.35  1960.86  1987.74
                             2003.03  2014.07  2024.50  2065.42  2066.55
                             2075.95  2084.72  2175.50  2181.55  2188.37
                             2188.92  2197.62  2199.18  2203.79  2209.10
                             2212.41  2224.50  2232.34  2238.65  4316.04
                             4347.37  4359.82  4368.01  4369.71  4374.64
                             4376.75  4386.48  4396.45  4406.93  4412.92
                             4418.19  4435.60  4445.61  4459.16  4460.95
                             4476.60  4481.75  4484.02  4500.48  4507.19
                             4508.79

 Zero-point correction=                           0.320782 (Hartree/Particle)
 Thermal correction to Energy=                    0.332759
 Thermal correction to Enthalpy=                  0.333703
 Thermal correction to Gibbs Free Energy=         0.285068
 Sum of electronic and zero-point Energies=           -470.287115
 Sum of electronic and thermal Energies=              -470.275138
 Sum of electronic and thermal Enthalpies=            -470.274194
 Sum of electronic and thermal Free Energies=         -470.322828

                     E (Thermal)             CV                S
                      KCal/Mol        Cal/Mol-Kelvin    Cal/Mol-Kelvin
 Total                  208.809             50.678            102.360
 Electronic               0.000              0.000              0.000
 Translational            0.889              2.981             41.232
 Rotational               0.889              2.981             30.253
 Vibrational            207.032             44.717             30.876
 Vibration     1          0.602              1.956              3.657
 Vibration     2          0.637              1.843              2.152
 Vibration     3          0.643              1.824              2.035
 Vibration     4          0.653              1.793              1.867
 Vibration     5          0.660              1.770              1.762
 Vibration     6          0.671              1.736              1.624
 Vibration     7          0.677              1.718              1.561
 Vibration     8          0.682              1.706              1.517
 Vibration     9          0.688              1.686              1.455
 Vibration    10          0.700              1.653              1.358
 Vibration    11          0.719              1.596              1.214
 Vibration    12          0.738              1.545              1.102
 Vibration    13          0.749              1.516              1.045
 Vibration    14          0.765              1.474              0.969
 Vibration    15          0.789              1.410              0.866
 Vibration    16          0.808              1.362              0.797
 Vibration    17          0.827              1.316              0.736
 Vibration    18          0.840              1.286              0.700
 Vibration    19          0.887              1.180              0.584

 Optimization completed.
    -- Stationary point found.
 Normal termination of Gaussian 16 at Wed Dec  9 17:03:56 2020.

 ----------------------------------------------------------------------
 # B3LYP/6-311++G(d,p) empiricaldispersion=gd3bj scf=xqc pop=npa geom=c
 heck
 ----------------------------------------------------------------------

 ---------------------------------------
 CID_123284442_JID_2160_Energie_neutraal
 ---------------------------------------
 Structure from the checkpoint file:  "JID_2160.chk"
 Charge =  0 Multiplicity = 1

 SCF Done:  E(RB3LYP) =  -470.732167287     A.U. after   12 cycles
 Normal termination of Gaussian 16 at Wed Dec  9 17:08:23 2020.

 ----------------------------------------------------------------------
 # B3LYP/6-311++G(d,p) empiricaldispersion=gd3bj scf=xqc pop=npa geom=c
 heck
 ----------------------------------------------------------------------

 -------------------------------------
 CID_123284442_JID_2160_Energie_kation
 -------------------------------------
 Structure from the checkpoint file:  "JID_2160.chk"
 Charge =  1 Multiplicity = 2

 SCF Done:  E(UB3LYP) =  -470.394869732     A.U. after   25 cycles
 Normal termination of Gaussian 16 at Wed Dec  9 17:20:19 2020.
 Gaussian 16:  ES64L-G16RevA.03 25-Dec-2016

 ----------------------------------------------------------------------
 # B3LYP/6-311++G(d,p) empiricaldispersion=gd3bj scf=xqc pop=npa geom=c
 heck
 ----------------------------------------------------------------------

 ------------------------------------
 CID_123284442_JID_2160_Energie_anion
 ------------------------------------
 Structure from the checkpoint file:  "JID_2160.chk"
 Charge = -1 Multiplicity = 2

                         Standard orientation:
 ---------------------------------------------------------------------
 Center     Atomic      Atomic             Coordinates (Angstroms)
 Number     Number       Type             X           Y           Z
 ---------------------------------------------------------------------
      1          6           0        1.077753    2.182057    0.338203
      2          6           0        0.709345    0.982278   -0.549726
      3          6           0       -0.839462    0.740876   -0.706255
      4          6           0       -1.249481   -0.544438    0.076109
      5          6           0       -0.641347   -1.738171   -0.689817
      6          6           0        0.855466   -1.478232   -0.976382
      7          6           0        1.383815   -0.339162   -0.077076
      8          6           0        0.931742   -0.644005    1.367366
      9          6           0       -0.606922   -0.516498    1.479423
     10          6           0        2.910152   -0.277784   -0.172992
     11          6           0       -2.765828   -0.717745    0.182069
     12          6           0       -1.695913    1.971961   -0.387516
     13          1           0        2.163797    2.293618    0.408939
     14          1           0        0.688839    2.086979    1.356818
     15          1           0        0.686433    3.115749   -0.075056
     16          1           0        1.108126    1.201444   -1.550488
     17          1           0       -1.021881    0.512557   -1.766095
     18          1           0       -0.769136   -2.648185   -0.089282
     19          1           0       -1.195104   -1.899856   -1.622966
     20          1           0        1.011162   -1.203442   -2.027676
     21          1           0        1.444789   -2.386818   -0.802718
     22          1           0        1.432748    0.024848    2.075648
     23          1           0        1.255170   -1.660472    1.625995
     24          1           0       -0.885517    0.414723    1.987868
     25          1           0       -1.018912   -1.331988    2.086495
     26          1           0        3.350727   -1.237026    0.124740
     27          1           0        3.232463   -0.067982   -1.200669
     28          1           0        3.336104    0.492758    0.477741
     29          1           0       -3.245255   -0.649954   -0.802504
     30          1           0       -3.005537   -1.702525    0.601263
     31          1           0       -3.221182    0.037096    0.832129
     32          1           0       -1.363822    2.839559   -0.967577
     33          1           0       -2.744028    1.793759   -0.644622
     34          1           0       -1.655895    2.248341    0.671593
 ---------------------------------------------------------------------

 SCF Done:  E(UB3LYP) =  -470.714040898     A.U. after   28 cycles

 The electronic state is 2-A.
 Alpha  occ. eigenvalues --  -10.06873 -10.06787 -10.06104 -10.06019 -10.05323
 Alpha  occ. eigenvalues --  -10.05291 -10.05272 -10.05271 -10.05034 -10.04941
 Alpha  occ. eigenvalues --  -10.04640 -10.04585  -0.76059  -0.68688  -0.66504
 Alpha  occ. eigenvalues --   -0.63235  -0.60165  -0.59891  -0.54729  -0.53912
 Alpha  occ. eigenvalues --   -0.50659  -0.46591  -0.44908  -0.38408  -0.37360
 Alpha  occ. eigenvalues --   -0.36448  -0.35447  -0.33550  -0.31998  -0.30850
 Alpha  occ. eigenvalues --   -0.30445  -0.29671  -0.28943  -0.28187  -0.27525
 Alpha  occ. eigenvalues --   -0.26132  -0.25805  -0.25242  -0.25233  -0.24034
 Alpha  occ. eigenvalues --   -0.23970  -0.22321  -0.21405  -0.21233  -0.18013
 Alpha  occ. eigenvalues --   -0.17231  -0.16830   0.04828
 Alpha virt. eigenvalues --    0.07180   0.07313   0.07729   0.09269   0.09390
 Alpha virt. eigenvalues --    0.09667   0.10011   0.10047   0.12001   0.12086
 Alpha virt. eigenvalues --    0.12422   0.12610   0.12702   0.12827   0.13114

  Beta  occ. eigenvalues --  -10.06874 -10.06788 -10.06092 -10.06007 -10.05308
  Beta  occ. eigenvalues --  -10.05270 -10.05255 -10.05250 -10.05011 -10.04917
  Beta  occ. eigenvalues --  -10.04611 -10.04555  -0.76039  -0.68666  -0.66471
  Beta  occ. eigenvalues --   -0.63201  -0.60123  -0.59849  -0.54670  -0.53854
  Beta  occ. eigenvalues --   -0.50600  -0.46534  -0.44867  -0.38386  -0.37315
  Beta  occ. eigenvalues --   -0.36399  -0.35394  -0.33523  -0.31971  -0.30821
  Beta  occ. eigenvalues --   -0.30416  -0.29642  -0.28910  -0.28150  -0.27497
  Beta  occ. eigenvalues --   -0.26100  -0.25759  -0.25212  -0.25190  -0.24002
  Beta  occ. eigenvalues --   -0.23938  -0.22289  -0.21371  -0.21201  -0.17972
  Beta  occ. eigenvalues --   -0.17204  -0.16807
  Beta virt. eigenvalues --    0.06967   0.07821   0.08028   0.08534   0.09675
  Beta virt. eigenvalues --    0.09926   0.10257   0.10445   0.10556   0.12346
  Beta virt. eigenvalues --    0.12500   0.12848   0.13072   0.13116   0.13269

 Mulliken charges and spin densities:
               1          2
     1  C    0.931444  -1.658030
     2  C    0.205905  -0.142392
     3  C   -0.534223   0.496941
     4  C   -1.584249   2.233783
     5  C    0.389319  -0.970968
     6  C   -0.328417  -0.214505
     7  C   -0.591010   1.086481
     8  C    0.239321  -0.792195
     9  C    0.493745  -1.142023
    10  C    0.432306  -0.811283
    11  C    0.668812  -1.067195
    12  C    1.054719  -1.802681
    13  H   -0.262487   0.396769
    14  H   -0.110258   0.266098
    15  H   -0.043832   0.184189
    16  H   -0.134803   0.349209
    17  H   -0.110205   0.327344
    18  H    0.108410   0.041613
    19  H   -0.246452   0.405427
    20  H    0.066831   0.086186
    21  H   -0.262073   0.419329
    22  H   -0.099984   0.268865
    23  H   -0.073200   0.228578
    24  H    0.023789   0.122681
    25  H   -0.070984   0.237243
    26  H   -0.001915   0.134431
    27  H   -0.202313   0.342713
    28  H   -0.068496   0.197309
    29  H   -0.134517   0.292208
    30  H   -0.130040   0.263445
    31  H   -0.136346   0.279788
    32  H   -0.177252   0.317574
    33  H   -0.221565   0.365352
    34  H   -0.089982   0.257717
 Sum of Mulliken charges =  -1.00000   1.00000

 Dipole moment (field-independent basis, Debye):
    X=              0.4889    Y=             -1.3829    Z=              0.7784  Tot=              1.6605
 Quadrupole moment (field-independent basis, Debye-Ang):
   XX=           -132.2058   YY=           -125.5816   ZZ=           -119.7024
   XY=             -0.2684   XZ=             -1.5915   YZ=              1.2111

 Summary of Natural Population Analysis:

                                       Natural Population
                Natural  -----------------------------------------------
    Atom  No    Charge         Core      Valence    Rydberg      Total
 -----------------------------------------------------------------------
      C    1   -0.28998      0.99964     2.28378    0.00656     3.28998
      C    2   -0.10282      0.99955     2.09055    0.01273     3.10282
      C    3   -0.10359      0.99954     2.09119    0.01286     3.10359
      C    4   -0.03622      0.99954     2.02285    0.01383     3.03622
      C    5   -0.18707      0.99959     2.17769    0.00980     3.18707
      C    6   -0.18763      0.99959     2.17835    0.00970     3.18763
      C    7   -0.03606      0.99954     2.02320    0.01332     3.03606
      C    8   -0.19178      0.99958     2.18230    0.00989     3.19178
      C    9   -0.19073      0.99958     2.18124    0.00990     3.19073
      C   10   -0.28257      0.99961     2.27559    0.00736     3.28257
      C   11   -0.28395      0.99962     2.27667    0.00766     3.28395
      C   12   -0.28780      0.99964     2.28171    0.00645     3.28780
      H   13    0.10052      0.00000     0.39841    0.00108     0.39948
      H   14    0.09702      0.00000     0.40175    0.00122     0.40298
      H   15    0.10168      0.00000     0.39734    0.00098     0.39832
      H   16    0.09774      0.00000     0.40044    0.00182     0.40226
      H   17    0.09748      0.00000     0.40052    0.00200     0.40252
      H   18    0.09588      0.00000     0.40290    0.00122     0.40412
      H   19    0.09988      0.00000     0.39886    0.00126     0.40012
      H   20    0.09822      0.00000     0.40045    0.00133     0.40178
      H   21    0.09808      0.00000     0.40081    0.00111     0.40192
      H   22    0.10116      0.00000     0.39778    0.00107     0.39884
      H   23    0.09777      0.00000     0.40100    0.00123     0.40223
      H   24    0.09816      0.00000     0.40048    0.00136     0.40184
      H   25    0.09898      0.00000     0.39987    0.00115     0.40102
      H   26    0.09870      0.00000     0.40030    0.00101     0.40130
      H   27    0.09961      0.00000     0.39932    0.00107     0.40039
      H   28    0.09987      0.00000     0.39916    0.00097     0.40013
      H   29    0.10021      0.00000     0.39874    0.00105     0.39979
      H   30    0.09909      0.00000     0.39986    0.00106     0.40091
      H   31    0.10070      0.00000     0.39831    0.00099     0.39930
      H   32    0.10072      0.00000     0.39832    0.00096     0.39928
      H   33    0.10167      0.00000     0.39729    0.00104     0.39833
      H   34    0.09707      0.00000     0.40171    0.00122     0.40293
 =======================================================================
   * Total *   -0.00000     11.99502    34.85876    0.14622    47.00000

 Normal termination of Gaussian 16 at Wed Dec  9 17:36:13 2020.
