 Gaussian 16, Revision A.03,

 -----------------------------------------------------------
 # opt freq B3LYP/6-31G(d) empiricaldispersion=gd3bj scf=xqc
 -----------------------------------------------------------

 ------------------------------
 CID_55237310_JID_8939_neutraal
 ------------------------------
 Symbolic Z-matrix:
 Charge =  0 Multiplicity = 1

 SCF Done:  E(RB3LYP) =  -750.969390110     A.U. after   14 cycles
 SCF Done:  E(RB3LYP) =  -750.976185464     A.U. after   12 cycles
 SCF Done:  E(RB3LYP) =  -750.977078990     A.U. after   12 cycles
 SCF Done:  E(RB3LYP) =  -750.977186521     A.U. after   12 cycles
 SCF Done:  E(RB3LYP) =  -750.977585444     A.U. after   12 cycles
 SCF Done:  E(RB3LYP) =  -750.977682075     A.U. after   11 cycles
 SCF Done:  E(RB3LYP) =  -750.977745285     A.U. after   10 cycles
 SCF Done:  E(RB3LYP) =  -750.977762819     A.U. after   10 cycles
 SCF Done:  E(RB3LYP) =  -750.977768674     A.U. after    9 cycles
 SCF Done:  E(RB3LYP) =  -750.977773770     A.U. after    9 cycles
 SCF Done:  E(RB3LYP) =  -750.977780220     A.U. after    9 cycles
 SCF Done:  E(RB3LYP) =  -750.977781133     A.U. after    9 cycles
 SCF Done:  E(RB3LYP) =  -750.977781693     A.U. after    8 cycles
 SCF Done:  E(RB3LYP) =  -750.977781892     A.U. after    8 cycles
 SCF Done:  E(RB3LYP) =  -750.977781925     A.U. after    6 cycles
 Optimization completed.
    -- Stationary point found.
 Normal termination of Gaussian 16 at Fri Dec 11 23:12:06 2020.

 --------------------------------------------------------------------
 #N Geom=AllCheck Guess=TCheck SCRF=Check GenChk RB3LYP/6-31G(d) Freq
 --------------------------------------------------------------------

 Structure from the checkpoint file:  "JID_8939.chk"
 ------------------------------
 CID_55237310_JID_8939_neutraal
 ------------------------------
 Charge =  0 Multiplicity = 1

 SCF Done:  E(RB3LYP) =  -750.977781925     A.U. after    1 cycles

  Exact polarizability: 208.256 -14.105 196.417  24.271   4.984 131.150
 Approx polarizability: 282.813 -25.745 295.072  49.479  14.917 206.806

                      1                      2                      3
                      A                      A                      A
 Frequencies --     17.0574                32.7782                45.5409
 Red. masses --      3.9824                 3.2139                 3.6171
 Frc consts  --      0.0007                 0.0020                 0.0044
 IR Inten    --      0.1661                 0.3658                 0.3100

                      4                      5                      6
                      A                      A                      A
 Frequencies --     80.9795                88.9638               111.3173
 Red. masses --      2.0501                 2.5260                 3.1727
 Frc consts  --      0.0079                 0.0118                 0.0232
 IR Inten    --      0.3545                 0.3776                 1.5378

                      7                      8                      9
                      A                      A                      A
 Frequencies --    116.3707               141.3535               153.0960
 Red. masses --      2.9154                 3.2885                 2.9441
 Frc consts  --      0.0233                 0.0387                 0.0407
 IR Inten    --      0.1081                 3.1738                 4.5425

                     10                     11                     12
                      A                      A                      A
 Frequencies --    192.8391               218.6367               234.3158
 Red. masses --      2.5887                 2.9334                 1.1692
 Frc consts  --      0.0567                 0.0826                 0.0378
 IR Inten    --      1.6044                 0.3631                 0.4387

                     13                     14                     15
                      A                      A                      A
 Frequencies --    246.0276               265.8750               276.8433
 Red. masses --      1.3813                 1.3267                 1.7858
 Frc consts  --      0.0493                 0.0553                 0.0806
 IR Inten    --      0.0784                 0.7560                 0.9811

                     16                     17                     18
                      A                      A                      A
 Frequencies --    307.9016               331.4500               353.3446
 Red. masses --      2.8615                 2.7629                 2.2676
 Frc consts  --      0.1598                 0.1788                 0.1668
 IR Inten    --      3.0527                 1.6560                 1.8768

                     19                     20                     21
                      A                      A                      A
 Frequencies --    365.6305               379.5107               431.7259
 Red. masses --      2.9466                 2.2109                 3.3159
 Frc consts  --      0.2321                 0.1876                 0.3641
 IR Inten    --      1.3300                 3.4296                 0.0932

                     22                     23                     24
                      A                      A                      A
 Frequencies --    459.0565               469.8672               481.4672
 Red. masses --      2.6798                 2.2306                 3.5820
 Frc consts  --      0.3327                 0.2902                 0.4892
 IR Inten    --      3.3430                 1.1552                 1.4152

                     25                     26                     27
                      A                      A                      A
 Frequencies --    487.8548               521.4019               552.6590
 Red. masses --      3.8281                 2.5936                 3.4464
 Frc consts  --      0.5368                 0.4154                 0.6202
 IR Inten    --      1.1040                 1.4663                 1.3557

                     28                     29                     30
                      A                      A                      A
 Frequencies --    558.0427               575.8704               639.4713
 Red. masses --      4.3201                 4.4147                 2.5056
 Frc consts  --      0.7926                 0.8626                 0.6037
 IR Inten    --      1.4495                 1.4723                 8.9574

                     31                     32                     33
                      A                      A                      A
 Frequencies --    706.6561               732.1039               746.6549
 Red. masses --      4.7835                 3.5861                 1.3464
 Frc consts  --      1.4074                 1.1324                 0.4423
 IR Inten    --      2.5438                 6.9324                23.3267

                     34                     35                     36
                      A                      A                      A
 Frequencies --    750.8848               781.8130               813.3551
 Red. masses --      1.7665                 3.6350                 1.2869
 Frc consts  --      0.5868                 1.3091                 0.5016
 IR Inten    --     77.5338                 6.3482                12.0526

                     37                     38                     39
                      A                      A                      A
 Frequencies --    837.0277               838.2127               881.1177
 Red. masses --      1.4841                 1.4084                 1.9940
 Frc consts  --      0.6126                 0.5830                 0.9121
 IR Inten    --      0.5638                18.2912                 2.9352

                     40                     41                     42
                      A                      A                      A
 Frequencies --    889.4748               907.5658               909.2094
 Red. masses --      1.3518                 1.8991                 1.4223
 Frc consts  --      0.6301                 0.9216                 0.6927
 IR Inten    --      4.2234                13.6208                14.2641

                     43                     44                     45
                      A                      A                      A
 Frequencies --    936.1325               941.3909               958.3778
 Red. masses --      1.6999                 1.4414                 2.0333
 Frc consts  --      0.8777                 0.7526                 1.1003
 IR Inten    --      4.3076                 3.8645                 0.9348

                     46                     47                     48
                      A                      A                      A
 Frequencies --    999.5095              1013.6142              1049.5634
 Red. masses --      1.7869                 2.1793                 2.6895
 Frc consts  --      1.0518                 1.3192                 1.7456
 IR Inten    --      1.0050                 2.3209                 5.2677

                     49                     50                     51
                      A                      A                      A
 Frequencies --   1068.7807              1084.5999              1098.7728
 Red. masses --      2.6977                 2.0019                 2.4152
 Frc consts  --      1.8156                 1.3875                 1.7180
 IR Inten    --      4.2766                 1.3879                 4.6920

                     52                     53                     54
                      A                      A                      A
 Frequencies --   1101.2086              1113.7473              1124.7153
 Red. masses --      2.0807                 1.8926                 2.0609
 Frc consts  --      1.4866                 1.3832                 1.5360
 IR Inten    --     18.9701                 7.9177                10.7712

                     55                     56                     57
                      A                      A                      A
 Frequencies --   1138.1846              1150.9000              1162.0688
 Red. masses --      2.4679                 1.8027                 1.3923
 Frc consts  --      1.8837                 1.4068                 1.1077
 IR Inten    --     10.9242                 4.6532                27.3026

                     58                     59                     60
                      A                      A                      A
 Frequencies --   1174.2815              1183.0686              1201.0554
 Red. masses --      1.6310                 2.2413                 1.1016
 Frc consts  --      1.3251                 1.8483                 0.9362
 IR Inten    --      2.5008                50.0866                 0.2797

                     61                     62                     63
                      A                      A                      A
 Frequencies --   1205.3343              1226.7728              1255.8897
 Red. masses --      1.6572                 1.9704                 1.6801
 Frc consts  --      1.4186                 1.7472                 1.5614
 IR Inten    --     17.4315                36.6999                 6.8266

                     64                     65                     66
                      A                      A                      A
 Frequencies --   1273.3422              1275.7033              1291.0601
 Red. masses --      1.5676                 1.5658                 1.7148
 Frc consts  --      1.4976                 1.5014                 1.6841
 IR Inten    --     34.0041                 2.3517                84.9006

                     67                     68                     69
                      A                      A                      A
 Frequencies --   1305.9256              1319.8919              1335.2854
 Red. masses --      1.8458                 1.2470                 1.8470
 Frc consts  --      1.8547                 1.2799                 1.9403
 IR Inten    --     34.8650                 0.3648                38.2868

                     70                     71                     72
                      A                      A                      A
 Frequencies --   1357.1787              1360.7389              1373.8075
 Red. masses --      1.6448                 1.3607                 1.8133
 Frc consts  --      1.7850                 1.4844                 2.0164
 IR Inten    --    111.8425                28.6107                22.0061

                     73                     74                     75
                      A                      A                      A
 Frequencies --   1379.3194              1401.6431              1413.5113
 Red. masses --      1.5918                 1.9782                 1.4668
 Frc consts  --      1.7843                 2.2898                 1.7267
 IR Inten    --      9.3496                73.9672                45.8501

                     76                     77                     78
                      A                      A                      A
 Frequencies --   1417.0662              1422.7674              1424.6908
 Red. masses --      1.4993                 1.5179                 1.3354
 Frc consts  --      1.7739                 1.8103                 1.5970
 IR Inten    --     20.9870                30.1472                 3.5639

                     79                     80                     81
                      A                      A                      A
 Frequencies --   1434.4776              1444.3094              1449.8444
 Red. masses --      1.2434                 1.3682                 1.5451
 Frc consts  --      1.5075                 1.6816                 1.9136
 IR Inten    --     10.5410                16.8984                 0.8694

                     82                     83                     84
                      A                      A                      A
 Frequencies --   1487.5856              1497.0790              1504.3631
 Red. masses --      1.2351                 1.1656                 1.8229
 Frc consts  --      1.6103                 1.5392                 2.4306
 IR Inten    --      2.1008                20.9483                 5.5367

                     85                     86                     87
                      A                      A                      A
 Frequencies --   1511.8444              1516.6862              1520.0637
 Red. masses --      1.0905                 1.0773                 1.0888
 Frc consts  --      1.4686                 1.4600                 1.4823
 IR Inten    --     10.2360                 6.2163                12.7636

                     88                     89                     90
                      A                      A                      A
 Frequencies --   1522.4268              1526.4682              1529.8399
 Red. masses --      1.0519                 1.0576                 1.0544
 Frc consts  --      1.4365                 1.4519                 1.4540
 IR Inten    --      3.5547                 5.0777                 1.1509

                     91                     92                     93
                      A                      A                      A
 Frequencies --   1530.8453              1535.9251              1540.5203
 Red. masses --      1.1766                 1.1066                 1.1926
 Frc consts  --      1.6246                 1.5380                 1.6675
 IR Inten    --     34.8019                13.9271                 0.1930

                     94                     95                     96
                      A                      A                      A
 Frequencies --   1549.0978              1552.0757              1569.9462
 Red. masses --      1.1454                 1.0891                 2.4415
 Frc consts  --      1.6194                 1.5458                 3.5455
 IR Inten    --     30.6084                 3.8916               167.8572

                     97                     98                     99
                      A                      A                      A
 Frequencies --   1637.3691              1658.5637              2957.3289
 Red. masses --      6.0792                 5.3057                 1.0728
 Frc consts  --      9.6026                 8.5992                 5.5281
 IR Inten    --      4.3757                64.4500                81.6243

                    100                    101                    102
                      A                      A                      A
 Frequencies --   2967.5570              2974.7881              3015.8038
 Red. masses --      1.0665                 1.0647                 1.0699
 Frc consts  --      5.5336                 5.5513                 5.7334
 IR Inten    --     41.4007               123.3319                21.7470

                    103                    104                    105
                      A                      A                      A
 Frequencies --   3018.6925              3036.2052              3038.3202
 Red. masses --      1.0680                 1.0698                 1.0458
 Frc consts  --      5.7343                 5.8105                 5.6882
 IR Inten    --     96.4269                58.6351                21.0352

                    106                    107                    108
                      A                      A                      A
 Frequencies --   3045.4937              3049.3843              3055.5145
 Red. masses --      1.0452                 1.0741                 1.0819
 Frc consts  --      5.7119                 5.8847                 5.9510
 IR Inten    --     18.8934                17.4057                53.0687

                    109                    110                    111
                      A                      A                      A
 Frequencies --   3081.7354              3086.3570              3094.2858
 Red. masses --      1.0952                 1.0764                 1.0900
 Frc consts  --      6.1281                 6.0414                 6.1488
 IR Inten    --     35.1856                26.2286                46.2894

                    112                    113                    114
                      A                      A                      A
 Frequencies --   3095.4537              3106.8344              3110.3549
 Red. masses --      1.0921                 1.0981                 1.0997
 Frc consts  --      6.1654                 6.2450                 6.2680
 IR Inten    --      1.3870                37.7537                45.8382

                    115                    116                    117
                      A                      A                      A
 Frequencies --   3121.7560              3128.5262              3130.4698
 Red. masses --      1.1012                 1.0934                 1.1031
 Frc consts  --      6.3231                 6.3051                 6.3693
 IR Inten    --     25.6055                41.9133                38.1134

                    118                    119                    120
                      A                      A                      A
 Frequencies --   3130.9144              3184.1162              3201.5395
 Red. masses --      1.1022                 1.0854                 1.0926
 Frc consts  --      6.3660                 6.4835                 6.5980
 IR Inten    --     29.1832                 2.7399                35.7923

                    121                    122                    123
                      A                      A                      A
 Frequencies --   3226.0333              3230.4693              3458.4335
 Red. masses --      1.0903                 1.0916                 1.0730
 Frc consts  --      6.6854                 6.7116                 7.5617
 IR Inten    --     35.2016                 6.5605                 1.6776

 - Thermochemistry -
 -------------------
 Temperature   298.150 Kelvin.  Pressure   1.00000 Atm.
 Atom     1 has atomic number  6 and mass  12.00000

 Molecular mass:   247.20485 amu.
 Principal axes and moments of inertia in atomic units:
                           1         2         3
     Eigenvalues --  2878.398676680.126478300.60015
           X            0.99998   0.00641  -0.00079
           Y           -0.00641   0.99998  -0.00161
           Z            0.00078   0.00161   1.00000
 This molecule is an asymmetric top.
 Rotational symmetry number  1.
 Warning -- assumption of classical behavior for rotation
           may cause significant error
 Rotational temperatures (Kelvin)      0.03009     0.01297     0.01043
 Rotational constants (GHZ):           0.62699     0.27017     0.21742
 Zero-point vibrational energy    1020037.3 (Joules/Mol)
                                  243.79477 (Kcal/Mol)
 Warning -- explicit consideration of  29 degrees of freedom as
           vibrations may cause significant error
 Vibrational temperatures:     24.54    47.16    65.52   116.51   128.00
          (Kelvin)            160.16   167.43   203.38   220.27   277.45
                              314.57   337.13   353.98   382.53   398.32
                              443.00   476.88   508.38   526.06   546.03
                              621.16   660.48   676.03   692.72   701.91
                              750.18   795.15   802.90   828.55   920.06
                             1016.72  1053.33  1074.27  1080.36  1124.85
                             1170.24  1204.30  1206.00  1267.73  1279.76
                             1305.78  1308.15  1346.89  1354.45  1378.89
                             1438.07  1458.36  1510.09  1537.74  1560.50
                             1580.89  1584.39  1602.43  1618.21  1637.59
                             1655.89  1671.96  1689.53  1702.17  1728.05
                             1734.21  1765.05  1806.95  1832.06  1835.45
                             1857.55  1878.94  1899.03  1921.18  1952.68
                             1957.80  1976.60  1984.53  2016.65  2033.73
                             2038.84  2047.04  2049.81  2063.89  2078.04
                             2086.00  2140.30  2153.96  2164.44  2175.21
                             2182.17  2187.03  2190.43  2196.25  2201.10
                             2202.54  2209.85  2216.47  2228.81  2233.09
                             2258.80  2355.81  2386.30  4254.94  4269.65
                             4280.06  4339.07  4343.23  4368.42  4371.47
                             4381.79  4387.38  4396.20  4433.93  4440.58
                             4451.99  4453.67  4470.04  4475.11  4491.51
                             4501.25  4504.05  4504.69  4581.23  4606.30
                             4641.54  4647.92  4975.91

 Zero-point correction=                           0.388512 (Hartree/Particle)
 Thermal correction to Energy=                    0.406889
 Thermal correction to Enthalpy=                  0.407833
 Thermal correction to Gibbs Free Energy=         0.341148
 Sum of electronic and zero-point Energies=           -750.589270
 Sum of electronic and thermal Energies=              -750.570893
 Sum of electronic and thermal Enthalpies=            -750.569949
 Sum of electronic and thermal Free Energies=         -750.636634

                     E (Thermal)             CV                S
                      KCal/Mol        Cal/Mol-Kelvin    Cal/Mol-Kelvin
 Total                  255.327             71.035            140.351
 Electronic               0.000              0.000              0.000
 Translational            0.889              2.981             42.416
 Rotational               0.889              2.981             33.434
 Vibrational            253.549             65.073             64.502
 Vibration     1          0.593              1.986              6.950
 Vibration     2          0.594              1.983              5.654
 Vibration     3          0.595              1.979              5.002
 Vibration     4          0.600              1.962              3.867
 Vibration     5          0.602              1.957              3.683
 Vibration     6          0.607              1.940              3.246
 Vibration     7          0.608              1.936              3.160
 Vibration     8          0.615              1.912              2.785
 Vibration     9          0.619              1.899              2.633
 Vibration    10          0.635              1.850              2.200
 Vibration    11          0.646              1.813              1.970
 Vibration    12          0.654              1.788              1.846
 Vibration    13          0.660              1.769              1.759
 Vibration    14          0.672              1.736              1.623
 Vibration    15          0.678              1.716              1.553
 Vibration    16          0.698              1.659              1.374
 Vibration    17          0.714              1.613              1.253
 Vibration    18          0.730              1.568              1.151
 Vibration    19          0.739              1.543              1.098
 Vibration    20          0.750              1.514              1.041
 Vibration    21          0.793              1.401              0.853
 Vibration    22          0.817              1.341              0.769
 Vibration    23          0.827              1.317              0.738
 Vibration    24          0.838              1.291              0.706
 Vibration    25          0.844              1.277              0.689
 Vibration    26          0.876              1.203              0.607
 Vibration    27          0.908              1.134              0.539
 Vibration    28          0.914              1.122              0.528
 Vibration    29          0.932              1.083              0.493

 Optimization completed.
    -- Stationary point found.
 Normal termination of Gaussian 16 at Fri Dec 11 23:34:03 2020.

 ----------------------------------------------------------------------
 # B3LYP/6-311++G(d,p) empiricaldispersion=gd3bj scf=xqc pop=npa geom=c
 heck
 ----------------------------------------------------------------------

 --------------------------------------
 CID_55237310_JID_8939_Energie_neutraal
 --------------------------------------
 Structure from the checkpoint file:  "JID_8939.chk"
 Charge =  0 Multiplicity = 1

 SCF Done:  E(RB3LYP) =  -751.180522461     A.U. after   15 cycles
 Normal termination of Gaussian 16 at Fri Dec 11 23:44:44 2020.

 ----------------------------------------------------------------------
 # B3LYP/6-311++G(d,p) empiricaldispersion=gd3bj scf=xqc pop=npa geom=c
 heck
 ----------------------------------------------------------------------

 ------------------------------------
 CID_55237310_JID_8939_Energie_kation
 ------------------------------------
 Structure from the checkpoint file:  "JID_8939.chk"
 Charge =  1 Multiplicity = 2

 SCF Done:  E(UB3LYP) =  -750.950320414     A.U. after   23 cycles
 Normal termination of Gaussian 16 at Sat Dec 12 00:08:20 2020.
 Gaussian 16:  ES64L-G16RevA.03 25-Dec-2016

 ----------------------------------------------------------------------
 # B3LYP/6-311++G(d,p) empiricaldispersion=gd3bj scf=xqc pop=npa geom=c
 heck
 ----------------------------------------------------------------------

 -----------------------------------
 CID_55237310_JID_8939_Energie_anion
 -----------------------------------
 Structure from the checkpoint file:  "JID_8939.chk"
 Charge = -1 Multiplicity = 2

                         Standard orientation:
 ---------------------------------------------------------------------
 Center     Atomic      Atomic             Coordinates (Angstroms)
 Number     Number       Type             X           Y           Z
 ---------------------------------------------------------------------
      1          6           0       -4.549521    1.845795   -0.052860
      2          6           0       -3.720819    0.858689    0.764291
      3          7           0       -3.117439   -0.144828   -0.107707
      4          6           0       -2.190884   -1.079749    0.541178
      5          6           0       -2.847721   -2.018890    1.564819
      6          6           0       -1.445466   -1.882292   -0.532084
      7          6           0       -0.727754   -1.014640   -1.579566
      8          7           0        0.232209   -0.063161   -1.044403
      9          6           0       -0.208217    1.305159   -0.845667
     10          6           0        0.994835    2.230913   -0.757197
     11          7           0        1.849564    1.781652    0.330172
     12          6           0        2.269266    0.441148    0.216542
     13          6           0        3.478951   -0.006231    0.756444
     14          6           0        3.876288   -1.343029    0.663639
     15          6           0        3.064611   -2.248698   -0.005282
     16          6           0        1.858193   -1.822689   -0.564583
     17          6           0        1.428488   -0.490060   -0.468481
     18          6           0        2.804221    2.756263    0.816331
     19          1           0       -3.929951    2.319309   -0.821224
     20          1           0       -4.976551    2.625220    0.587611
     21          1           0       -5.381221    1.337666   -0.557161
     22          1           0       -2.901066    1.391042    1.264373
     23          1           0       -4.347053    0.430141    1.567469
     24          1           0       -3.855388   -0.676026   -0.571627
     25          1           0       -1.451313   -0.463319    1.068837
     26          1           0       -3.594447   -2.659631    1.077142
     27          1           0       -2.101992   -2.671002    2.033726
     28          1           0       -3.350075   -1.460667    2.361520
     29          1           0       -0.727528   -2.540675   -0.032049
     30          1           0       -2.155962   -2.537793   -1.059245
     31          1           0       -0.228218   -1.665538   -2.309533
     32          1           0       -1.475735   -0.434785   -2.124300
     33          1           0       -0.810095    1.423185    0.066755
     34          1           0       -0.843836    1.593388   -1.689955
     35          1           0        1.527634    2.253395   -1.724243
     36          1           0        0.652400    3.247000   -0.536930
     37          1           0        4.129006    0.698462    1.260966
     38          1           0        4.817796   -1.656077    1.104889
     39          1           0        3.355407   -3.291089   -0.099709
     40          1           0        1.244787   -2.544300   -1.089358
     41          1           0        3.126606    2.500441    1.830583
     42          1           0        3.704227    2.842307    0.181937
     43          1           0        2.315403    3.733564    0.857949
 ---------------------------------------------------------------------

 SCF Done:  E(UB3LYP) =  -751.167871442     A.U. after   33 cycles
 SCF Done:  E(UB3LYP) =  -751.167871442     a.u. after    1 cycles

 The electronic state is 2-A.
 Alpha  occ. eigenvalues --  -14.23336 -14.23246 -14.19963 -10.11903 -10.11355
 Alpha  occ. eigenvalues --  -10.10723 -10.10676 -10.10574 -10.10558 -10.10423
 Alpha  occ. eigenvalues --  -10.09558 -10.07430 -10.07283 -10.07241 -10.07119
 Alpha  occ. eigenvalues --  -10.06991 -10.06767 -10.06165  -0.87723  -0.83516
 Alpha  occ. eigenvalues --   -0.81385  -0.74939  -0.69882  -0.67047  -0.65814
 Alpha  occ. eigenvalues --   -0.64951  -0.62748  -0.61736  -0.57179  -0.55332
 Alpha  occ. eigenvalues --   -0.55030  -0.51402  -0.50084  -0.48581  -0.46138
 Alpha  occ. eigenvalues --   -0.43517  -0.41234  -0.40587  -0.39192  -0.37897
 Alpha  occ. eigenvalues --   -0.37116  -0.36518  -0.35749  -0.35502  -0.35182
 Alpha  occ. eigenvalues --   -0.33656  -0.33159  -0.32471  -0.31674  -0.30853
 Alpha  occ. eigenvalues --   -0.30565  -0.29510  -0.29027  -0.28553  -0.27961
 Alpha  occ. eigenvalues --   -0.27514  -0.27139  -0.26280  -0.25899  -0.24963
 Alpha  occ. eigenvalues --   -0.24833  -0.24184  -0.23266  -0.19867  -0.18692
 Alpha  occ. eigenvalues --   -0.13336  -0.12648  -0.08519   0.04047
 Alpha virt. eigenvalues --    0.05676   0.06394   0.06996   0.07404   0.07693
 Alpha virt. eigenvalues --    0.08512   0.08792   0.08976   0.09213   0.09565
 Alpha virt. eigenvalues --    0.09776   0.10028   0.10868   0.11031   0.11205

  Beta  occ. eigenvalues --  -14.23336 -14.23246 -14.19945 -10.11900 -10.11351
  Beta  occ. eigenvalues --  -10.10698 -10.10670 -10.10569 -10.10546 -10.10394
  Beta  occ. eigenvalues --  -10.09540 -10.07420 -10.07275 -10.07235 -10.07116
  Beta  occ. eigenvalues --  -10.06990 -10.06747 -10.06129  -0.87714  -0.83506
  Beta  occ. eigenvalues --   -0.81357  -0.74928  -0.69861  -0.67023  -0.65794
  Beta  occ. eigenvalues --   -0.64936  -0.62704  -0.61699  -0.57145  -0.55300
  Beta  occ. eigenvalues --   -0.55004  -0.51323  -0.50048  -0.48551  -0.46111
  Beta  occ. eigenvalues --   -0.43501  -0.41211  -0.40568  -0.39163  -0.37864
  Beta  occ. eigenvalues --   -0.37096  -0.36498  -0.35726  -0.35477  -0.35156
  Beta  occ. eigenvalues --   -0.33630  -0.33143  -0.32436  -0.31642  -0.30820
  Beta  occ. eigenvalues --   -0.30535  -0.29485  -0.29001  -0.28532  -0.27936
  Beta  occ. eigenvalues --   -0.27489  -0.27082  -0.26253  -0.25883  -0.24933
  Beta  occ. eigenvalues --   -0.24800  -0.24165  -0.23243  -0.19851  -0.18674
  Beta  occ. eigenvalues --   -0.13313  -0.12631  -0.08509
  Beta virt. eigenvalues --    0.05983   0.06501   0.06797   0.07332   0.07784
  Beta virt. eigenvalues --    0.08080   0.08782   0.08917   0.09264   0.09473
  Beta virt. eigenvalues --    0.09763   0.10047   0.10280   0.11056   0.11216

 Mulliken charges and spin densities:
               1          2
     1  C    1.429139  -1.987437
     2  C   -0.587835   0.502814
     3  N    0.031490   0.039118
     4  C   -0.667673   0.484177
     5  C    1.067757  -1.826623
     6  C   -0.621929   0.202772
     7  C   -0.271566   0.308099
     8  N    0.341328  -0.046810
     9  C   -1.004527   0.760255
    10  C    0.857650  -1.450083
    11  N    0.116821   0.135003
    12  C   -0.419703   0.357340
    13  C   -0.140916  -0.057282
    14  C    0.057626  -0.469532
    15  C   -0.367320  -0.154841
    16  C   -0.095693  -0.013614
    17  C    0.098045   0.003869
    18  C    0.448049  -0.762771
    19  H   -0.219652   0.360795
    20  H   -0.185200   0.316266
    21  H   -0.347799   0.475393
    22  H   -0.213226   0.340431
    23  H   -0.240906   0.362199
    24  H    0.191066   0.027444
    25  H    0.204935  -0.022439
    26  H   -0.149210   0.300291
    27  H    0.048633   0.086310
    28  H   -0.027075   0.170812
    29  H    0.150317  -0.028735
    30  H   -0.313208   0.460217
    31  H   -0.009620   0.189554
    32  H    0.051887   0.109773
    33  H    0.586400  -0.435182
    34  H   -0.239809   0.430614
    35  H    0.023348   0.143376
    36  H   -0.245672   0.436751
    37  H    0.077248   0.048854
    38  H    0.043412   0.087608
    39  H    0.081600   0.059454
    40  H    0.092580   0.001882
    41  H   -0.097777   0.231167
    42  H   -0.011223   0.154247
    43  H   -0.521793   0.668464
 Sum of Mulliken charges =  -1.00000   1.00000

 Dipole moment (field-independent basis, Debye):
    X=              4.7409    Y=             -4.5091    Z=             -0.3938  Tot=              6.5546
 Quadrupole moment (field-independent basis, Debye-Ang):
   XX=           -203.8816   YY=           -174.6041   ZZ=           -147.1279
   XY=             -1.0990   XZ=              0.5154   YZ=              0.1694

 Summary of Natural Population Analysis:

                                       Natural Population
                Natural  -----------------------------------------------
    Atom  No    Charge         Core      Valence    Rydberg      Total
 -----------------------------------------------------------------------
      C    1   -0.28427      0.99967     2.27997    0.00463     3.28427
      C    2   -0.08612      0.99964     2.07602    0.01046     3.08612
      N    3   -0.34631      0.99973     2.83419    0.01239     3.84631
      C    4   -0.01253      0.99960     2.00225    0.01067     3.01253
      C    5   -0.29247      0.99965     2.28714    0.00568     3.29247
      C    6   -0.19709      0.99960     2.18856    0.00893     3.19709
      C    7   -0.08131      0.99961     2.07067    0.01104     3.08131
      N    8   -0.25271      0.99965     2.74227    0.01079     3.75271
      C    9   -0.07695      0.99960     2.06631    0.01104     3.07695
      C   10   -0.08287      0.99961     2.07211    0.01115     3.08287
      N   11   -0.25616      0.99966     2.74540    0.01111     3.75616
      C   12    0.07485      0.99947     1.91464    0.01105     2.92515
      C   13   -0.12471      0.99954     2.11737    0.00780     3.12471
      C   14   -0.12229      0.99957     2.11214    0.01057     3.12229
      C   15   -0.11223      0.99957     2.10248    0.01018     3.11223
      C   16   -0.13255      0.99955     2.12542    0.00759     3.13255
      C   17    0.08671      0.99946     1.90372    0.01011     2.91329
      C   18   -0.17668      0.99965     2.16807    0.00896     3.17668
      H   19    0.10024      0.00000     0.39816    0.00160     0.39976
      H   20    0.09892      0.00000     0.39983    0.00124     0.40108
      H   21    0.09530      0.00000     0.40311    0.00159     0.40470
      H   22    0.08922      0.00000     0.40895    0.00184     0.41078
      H   23    0.07831      0.00000     0.42003    0.00165     0.42169
      H   24    0.16999      0.00000     0.32683    0.00318     0.33001
      H   25    0.09209      0.00000     0.40534    0.00258     0.40791
      H   26    0.09683      0.00000     0.40201    0.00116     0.40317
      H   27    0.09923      0.00000     0.40004    0.00073     0.40077
      H   28    0.10047      0.00000     0.39865    0.00088     0.39953
      H   29    0.10131      0.00000     0.39741    0.00128     0.39869
      H   30    0.09621      0.00000     0.40265    0.00114     0.40379
      H   31    0.09252      0.00000     0.40637    0.00110     0.40748
      H   32    0.10670      0.00000     0.39164    0.00166     0.39330
      H   33    0.09047      0.00000     0.40617    0.00336     0.40953
      H   34    0.09991      0.00000     0.39867    0.00141     0.40009
      H   35    0.08502      0.00000     0.41356    0.00142     0.41498
      H   36    0.10299      0.00000     0.39531    0.00170     0.39701
      H   37    0.10219      0.00000     0.39672    0.00108     0.39781
      H   38    0.09677      0.00000     0.40247    0.00076     0.40323
      H   39    0.09667      0.00000     0.40256    0.00077     0.40333
      H   40    0.10046      0.00000     0.39806    0.00147     0.39954
      H   41    0.09647      0.00000     0.40221    0.00132     0.40353
      H   42    0.08561      0.00000     0.41294    0.00146     0.41439
      H   43    0.10176      0.00000     0.39684    0.00140     0.39824
 =======================================================================
   * Total *   -0.00000     17.99281    49.79524    0.21195    68.00000

 Normal termination of Gaussian 16 at Sat Dec 12 00:39:55 2020.
