 Gaussian 16, Revision A.03,

 -----------------------------------------------------------
 # opt freq B3LYP/6-31G(d) empiricaldispersion=gd3bj scf=xqc
 -----------------------------------------------------------

 -------------------------------
 CID_136058908_JID_1320_neutraal
 -------------------------------
 Symbolic Z-matrix:
 Charge =  0 Multiplicity = 1

 SCF Done:  E(RB3LYP) =  -567.448334277     A.U. after   15 cycles
 SCF Done:  E(RB3LYP) =  -567.457675711     A.U. after   13 cycles
 SCF Done:  E(RB3LYP) =  -567.458846965     A.U. after   12 cycles
 SCF Done:  E(RB3LYP) =  -567.459046632     A.U. after   11 cycles
 SCF Done:  E(RB3LYP) =  -567.459073345     A.U. after    9 cycles
 SCF Done:  E(RB3LYP) =  -567.459075455     A.U. after    9 cycles
 SCF Done:  E(RB3LYP) =  -567.459078756     A.U. after    8 cycles
 SCF Done:  E(RB3LYP) =  -567.459079721     A.U. after    8 cycles
 SCF Done:  E(RB3LYP) =  -567.459080908     A.U. after    8 cycles
 SCF Done:  E(RB3LYP) =  -567.459081329     A.U. after    8 cycles
 SCF Done:  E(RB3LYP) =  -567.459081519     A.U. after    7 cycles
 Optimization completed.
    -- Stationary point found.
 Normal termination of Gaussian 16 at Tue Dec  8 19:40:14 2020.

 --------------------------------------------------------------------
 #N Geom=AllCheck Guess=TCheck SCRF=Check GenChk RB3LYP/6-31G(d) Freq
 --------------------------------------------------------------------

 Structure from the checkpoint file:  "JID_1320.chk"
 -------------------------------
 CID_136058908_JID_1320_neutraal
 -------------------------------
 Charge =  0 Multiplicity = 1

 SCF Done:  E(RB3LYP) =  -567.459081519     A.U. after    1 cycles

  Exact polarizability: 107.732  -1.778  87.334   0.246  -0.076  41.664
 Approx polarizability: 150.282 -14.516 162.790   0.626   0.953  62.806

                      1                      2                      3
                      A                      A                      A
 Frequencies --    100.4920               125.3724               155.2085
 Red. masses --      1.9710                 4.4430                 7.8816
 Frc consts  --      0.0117                 0.0411                 0.1119
 IR Inten    --      1.3109                13.5948                 1.5979

                      4                      5                      6
                      A                      A                      A
 Frequencies --    208.9750               262.7076               299.3730
 Red. masses --      5.1837                 5.8345                 5.9907
 Frc consts  --      0.1334                 0.2372                 0.3163
 IR Inten    --      3.2528                 0.6816                 5.6279

                      7                      8                      9
                      A                      A                      A
 Frequencies --    368.8848               467.8819               481.9142
 Red. masses --      6.6538                 1.1259                 8.2168
 Frc consts  --      0.5335                 0.1452                 1.1243
 IR Inten    --     15.7667               100.4163                 2.7983

                     10                     11                     12
                      A                      A                      A
 Frequencies --    548.3564               620.1971               667.2928
 Red. masses --      8.6385                 7.6807                 5.2535
 Frc consts  --      1.5304                 1.7406                 1.3783
 IR Inten    --     10.0087                 4.7096                 0.3153

                     13                     14                     15
                      A                      A                      A
 Frequencies --    679.9634               709.6120               742.3868
 Red. masses --      3.2439                 6.5654                 4.6533
 Frc consts  --      0.8837                 1.9478                 1.5110
 IR Inten    --      9.9492                 2.8795                 7.4265

                     16                     17                     18
                      A                      A                      A
 Frequencies --    743.5159               787.0336               818.1117
 Red. masses --      3.7237                 2.2049                 3.8002
 Frc consts  --      1.2129                 0.8047                 1.4986
 IR Inten    --      6.8237                64.7847                 2.6071

                     19                     20                     21
                      A                      A                      A
 Frequencies --    878.8207               970.2198              1002.9078
 Red. masses --      1.8035                 3.0644                 3.9600
 Frc consts  --      0.8207                 1.6996                 2.3468
 IR Inten    --      6.2227                21.9169                 7.8457

                     22                     23                     24
                      A                      A                      A
 Frequencies --   1079.1438              1117.5575              1150.7672
 Red. masses --      4.2083                 4.0473                 1.7576
 Frc consts  --      2.8874                 2.9782                 1.3713
 IR Inten    --     62.6561               137.6003                22.8483

                     25                     26                     27
                      A                      A                      A
 Frequencies --   1183.0437              1227.8961              1234.2368
 Red. masses --      2.9484                 1.2731                 1.5120
 Frc consts  --      2.4313                 1.1309                 1.3571
 IR Inten    --     27.8643                44.6316                 8.4991

                     28                     29                     30
                      A                      A                      A
 Frequencies --   1257.3863              1275.2477              1303.1257
 Red. masses --      1.1767                 2.7844                 2.1494
 Frc consts  --      1.0961                 2.6679                 2.1505
 IR Inten    --     65.2794               125.2635               168.1463

                     31                     32                     33
                      A                      A                      A
 Frequencies --   1324.1347              1403.2899              1478.6941
 Red. masses --      2.7111                 1.4975                 3.0971
 Frc consts  --      2.8007                 1.7374                 3.9899
 IR Inten    --     19.6218                13.7999               108.5665

                     34                     35                     36
                      A                      A                      A
 Frequencies --   1513.7693              1547.0545              1555.1118
 Red. masses --      3.5343                 1.1602                 1.1044
 Frc consts  --      4.7716                 1.6360                 1.5736
 IR Inten    --     97.5628                 0.5672                22.2038

                     37                     38                     39
                      A                      A                      A
 Frequencies --   1612.0064              1690.1619              1796.8389
 Red. masses --      6.5344                10.4627                11.7492
 Frc consts  --     10.0043                17.6096                22.3500
 IR Inten    --    423.3979               478.5405               567.1791

                     40                     41                     42
                      A                      A                      A
 Frequencies --   3084.0480              3092.0837              3143.9597
 Red. masses --      1.0667                 1.0645                 1.1008
 Frc consts  --      5.9778                 5.9963                 6.4109
 IR Inten    --     20.4121                34.3263                 7.4133

                     43                     44                     45
                      A                      A                      A
 Frequencies --   3164.3039              3226.4315              3750.7948
 Red. masses --      1.1065                 1.0920                 1.0654
 Frc consts  --      6.5274                 6.6977                 8.8313
 IR Inten    --     18.7128                 3.1954                58.1431

 - Thermochemistry -
 -------------------
 Temperature   298.150 Kelvin.  Pressure   1.00000 Atm.
 Atom     1 has atomic number  6 and mass  12.00000

 Molecular mass:   154.03784 amu.
 Principal axes and moments of inertia in atomic units:
                           1         2         3
     Eigenvalues --   971.966631664.885982610.76201
           X            0.99983   0.01852  -0.00066
           Y           -0.01852   0.99983  -0.00222
           Z            0.00062   0.00223   1.00000
 This molecule is an asymmetric top.
 Rotational symmetry number  1.
 Warning -- assumption of classical behavior for rotation
           may cause significant error
 Rotational temperatures (Kelvin)      0.08911     0.05202     0.03318
 Rotational constants (GHZ):           1.85679     1.08400     0.69127
 Zero-point vibrational energy     334059.1 (Joules/Mol)
                                   79.84203 (Kcal/Mol)
 Warning -- explicit consideration of  11 degrees of freedom as
           vibrations may cause significant error
 Vibrational temperatures:    144.59   180.38   223.31   300.67   377.98
          (Kelvin)            430.73   530.74   673.18   693.37   788.96
                              892.33   960.09   978.32  1020.97  1068.13
                             1069.75  1132.37  1177.08  1264.43  1395.93
                             1442.96  1552.65  1607.92  1655.70  1702.14
                             1766.67  1775.79  1809.10  1834.80  1874.91
                             1905.13  2019.02  2127.51  2177.98  2225.87
                             2237.46  2319.32  2431.77  2585.25  4437.26
                             4448.82  4523.46  4552.73  4642.12  5396.56

 Zero-point correction=                           0.127236 (Hartree/Particle)
 Thermal correction to Energy=                    0.135767
 Thermal correction to Enthalpy=                  0.136711
 Thermal correction to Gibbs Free Energy=         0.093355
 Sum of electronic and zero-point Energies=           -567.331845
 Sum of electronic and thermal Energies=              -567.323315
 Sum of electronic and thermal Enthalpies=            -567.322371
 Sum of electronic and thermal Free Energies=         -567.365726

                     E (Thermal)             CV                S
                      KCal/Mol        Cal/Mol-Kelvin    Cal/Mol-Kelvin
 Total                   85.195             32.438             91.249
 Electronic               0.000              0.000              0.000
 Translational            0.889              2.981             41.006
 Rotational               0.889              2.981             29.825
 Vibrational             83.417             26.476             20.418
 Vibration     1          0.604              1.949              3.445
 Vibration     2          0.610              1.928              3.016
 Vibration     3          0.620              1.897              2.607
 Vibration     4          0.642              1.827              2.053
 Vibration     5          0.670              1.741              1.644
 Vibration     6          0.692              1.675              1.420
 Vibration     7          0.741              1.536              1.084
 Vibration     8          0.825              1.321              0.744
 Vibration     9          0.838              1.290              0.705
 Vibration    10          0.904              1.143              0.548
 Vibration    11          0.980              0.989              0.416

 Optimization completed.
    -- Stationary point found.
 Normal termination of Gaussian 16 at Tue Dec  8 19:43:07 2020.

 ----------------------------------------------------------------------
 # B3LYP/6-311++G(d,p) empiricaldispersion=gd3bj scf=xqc pop=npa geom=c
 heck
 ----------------------------------------------------------------------

 ---------------------------------------
 CID_136058908_JID_1320_Energie_neutraal
 ---------------------------------------
 Structure from the checkpoint file:  "JID_1320.chk"
 Charge =  0 Multiplicity = 1

 SCF Done:  E(RB3LYP) =  -567.627563623     A.U. after   14 cycles
 Normal termination of Gaussian 16 at Tue Dec  8 19:44:09 2020.

 ----------------------------------------------------------------------
 # B3LYP/6-311++G(d,p) empiricaldispersion=gd3bj scf=xqc pop=npa geom=c
 heck
 ----------------------------------------------------------------------

 -------------------------------------
 CID_136058908_JID_1320_Energie_kation
 -------------------------------------
 Structure from the checkpoint file:  "JID_1320.chk"
 Charge =  1 Multiplicity = 2

 SCF Done:  E(UB3LYP) =  -567.308528780     A.U. after   23 cycles
 Normal termination of Gaussian 16 at Tue Dec  8 19:47:11 2020.
 Gaussian 16:  ES64L-G16RevA.03 25-Dec-2016

 ----------------------------------------------------------------------
 # B3LYP/6-311++G(d,p) empiricaldispersion=gd3bj scf=xqc pop=npa geom=c
 heck
 ----------------------------------------------------------------------

 ------------------------------------
 CID_136058908_JID_1320_Energie_anion
 ------------------------------------
 Structure from the checkpoint file:  "JID_1320.chk"
 Charge = -1 Multiplicity = 2

                         Standard orientation:
 ---------------------------------------------------------------------
 Center     Atomic      Atomic             Coordinates (Angstroms)
 Number     Number       Type             X           Y           Z
 ---------------------------------------------------------------------
      1          6           0       -2.119315    0.642426   -0.091092
      2          6           0       -2.625580   -0.800241    0.119936
      3          8           0       -1.465803   -1.653963   -0.065603
      4          6           0       -0.363179   -0.887144   -0.020965
      5          7           0        0.830970   -1.386266   -0.020544
      6          6           0        1.822934   -0.448821    0.003665
      7          6           0        1.626961    0.915813    0.028298
      8          6           0        0.297435    1.462614    0.014809
      9          8           0       -0.060979    2.633342    0.001809
     10          7           0       -0.683535    0.430966    0.016032
     11          8           0        3.049613   -1.011236    0.002573
     12          1           0       -2.370121    1.051448   -1.075222
     13          1           0       -2.465733    1.341425    0.672359
     14          1           0       -3.381778   -1.108927   -0.602309
     15          1           0       -3.000188   -0.962929    1.134788
     16          1           0        2.452408    1.618093    0.041421
     17          1           0        3.715184   -0.305029    0.022410
 ---------------------------------------------------------------------

 SCF Done:  E(UB3LYP) =  -567.619705803     A.U. after   33 cycles
 SCF Done:  E(UB3LYP) =  -567.619705802     a.u. after    1 cycles

 The electronic state is 2-A.
 Alpha  occ. eigenvalues --  -19.08688 -19.06756 -18.99126 -14.28069 -14.21604
 Alpha  occ. eigenvalues --  -10.22353 -10.18862 -10.18385 -10.14904 -10.13237
 Alpha  occ. eigenvalues --  -10.07252  -1.03231  -0.98905  -0.94535  -0.88187
 Alpha  occ. eigenvalues --   -0.83303  -0.68691  -0.68347  -0.57968  -0.56891
 Alpha  occ. eigenvalues --   -0.55901  -0.46622  -0.45219  -0.43719  -0.41615
 Alpha  occ. eigenvalues --   -0.39497  -0.35995  -0.35498  -0.34215  -0.33295
 Alpha  occ. eigenvalues --   -0.32509  -0.30852  -0.30087  -0.28348  -0.28224
 Alpha  occ. eigenvalues --   -0.20984  -0.20540  -0.18277  -0.17036  -0.13613
 Alpha  occ. eigenvalues --    0.04075
 Alpha virt. eigenvalues --    0.05493   0.06918   0.08463   0.09092   0.09998
 Alpha virt. eigenvalues --    0.10079   0.10792   0.12377   0.14429   0.14588
 Alpha virt. eigenvalues --    0.14984   0.15626   0.16274   0.17667   0.18015

  Beta  occ. eigenvalues --  -19.08684 -19.06699 -18.99123 -14.28064 -14.21594
  Beta  occ. eigenvalues --  -10.22351 -10.18858 -10.18381 -10.14839 -10.13203
  Beta  occ. eigenvalues --  -10.07229  -1.03217  -0.98803  -0.94525  -0.88169
  Beta  occ. eigenvalues --   -0.83280  -0.68630  -0.68304  -0.57899  -0.56800
  Beta  occ. eigenvalues --   -0.55860  -0.46558  -0.45152  -0.43672  -0.41558
  Beta  occ. eigenvalues --   -0.39427  -0.35949  -0.35419  -0.34179  -0.33255
  Beta  occ. eigenvalues --   -0.32474  -0.30805  -0.30032  -0.28297  -0.28189
  Beta  occ. eigenvalues --   -0.20949  -0.20512  -0.18253  -0.17028  -0.13592
  Beta virt. eigenvalues --    0.07030   0.07101   0.07553   0.09541   0.09930
  Beta virt. eigenvalues --    0.10053   0.10573   0.11320   0.12966   0.14516
  Beta virt. eigenvalues --    0.14597   0.14960   0.15787   0.16710   0.17765

 Mulliken charges and spin densities:
               1          2
     1  C    0.005335  -0.159719
     2  C    2.300311  -2.530165
     3  O   -0.136609   0.045896
     4  C    0.560162  -0.303617
     5  N   -0.350682  -0.002954
     6  C    0.501145  -0.885433
     7  C   -0.222419   0.691820
     8  C   -0.144853  -0.024625
     9  O   -0.406042   0.032153
    10  N   -0.279510   0.177820
    11  O   -0.209506   0.034942
    12  H   -0.169010   0.387221
    13  H   -0.203252   0.401953
    14  H   -0.809637   1.004989
    15  H   -0.510610   0.713758
    16  H   -0.427343   0.618145
    17  H   -0.497478   0.797815
 Sum of Mulliken charges =  -1.00000   1.00000

 Dipole moment (field-independent basis, Debye):
    X=              0.6855    Y=             -0.2759    Z=              0.1187  Tot=              0.7484
 Quadrupole moment (field-independent basis, Debye-Ang):
   XX=           -136.9396   YY=           -103.2382   ZZ=            -85.0497
   XY=             -2.4571   XZ=             -0.9601   YZ=             -0.5609

 Summary of Natural Population Analysis:

                                       Natural Population
                Natural  -----------------------------------------------
    Atom  No    Charge         Core      Valence    Rydberg      Total
 -----------------------------------------------------------------------
      C    1   -0.09361      0.99964     2.08251    0.01146     3.09361
      C    2   -0.01239      0.99959     2.00140    0.01140     3.01239
      O    3   -0.25632      0.99986     3.24871    0.00775     4.25632
      C    4    0.39370      0.99952     1.58786    0.01891     2.60630
      N    5   -0.28228      0.99960     2.77181    0.01087     3.78228
      C    6    0.27980      0.99947     1.70258    0.01815     2.72020
      C    7   -0.22886      0.99948     2.21998    0.00940     3.22886
      C    8    0.32391      0.99962     1.65482    0.02165     2.67609
      O    9   -0.32381      0.99988     3.31790    0.00603     4.32381
      N   10   -0.24436      0.99959     2.73565    0.00911     3.74436
      O   11   -0.32426      0.99987     3.31669    0.00770     4.32426
      H   12    0.10458      0.00000     0.39379    0.00163     0.39542
      H   13    0.11228      0.00000     0.38616    0.00157     0.38772
      H   14    0.10229      0.00000     0.39204    0.00567     0.39771
      H   15    0.09383      0.00000     0.40291    0.00325     0.40617
      H   16    0.11332      0.00000     0.38515    0.00153     0.38668
      H   17    0.24217      0.00000     0.24159    0.01624     0.25783
 =======================================================================
   * Total *   -0.00000     10.99612    28.84156    0.16232    40.00000

 Normal termination of Gaussian 16 at Tue Dec  8 19:52:43 2020.
