 Gaussian 16, Revision A.03,

 -----------------------------------------------------------
 # opt freq B3LYP/6-31G(d) empiricaldispersion=gd3bj scf=xqc
 -----------------------------------------------------------

 -------------------------------
 CID_114335770_JID_9232_neutraal
 -------------------------------
 Symbolic Z-matrix:
 Charge =  0 Multiplicity = 1

 SCF Done:  E(RB3LYP) =  -808.961135868     A.U. after   15 cycles
 SCF Done:  E(RB3LYP) =  -808.967448454     A.U. after   13 cycles
 SCF Done:  E(RB3LYP) =  -808.966478937     A.U. after   13 cycles
 SCF Done:  E(RB3LYP) =  -808.971122421     A.U. after   12 cycles
 SCF Done:  E(RB3LYP) =  -808.972941308     A.U. after   13 cycles
 SCF Done:  E(RB3LYP) =  -808.974640202     A.U. after   12 cycles
 SCF Done:  E(RB3LYP) =  -808.976409171     A.U. after   13 cycles
 SCF Done:  E(RB3LYP) =  -808.977475854     A.U. after   13 cycles
 SCF Done:  E(RB3LYP) =  -808.978521049     A.U. after   12 cycles
 SCF Done:  E(RB3LYP) =  -808.978555963     A.U. after   15 cycles
 SCF Done:  E(RB3LYP) =  -808.981891235     A.U. after   10 cycles
 SCF Done:  E(RB3LYP) =  -808.981896678     A.U. after    9 cycles
 SCF Done:  E(RB3LYP) =  -808.981898247     A.U. after    8 cycles
 SCF Done:  E(RB3LYP) =  -808.981898540     A.U. after    8 cycles
 SCF Done:  E(RB3LYP) =  -808.981898565     A.U. after    6 cycles
 Optimization completed.
    -- Stationary point found.
 Normal termination of Gaussian 16 at Sun Dec 13 12:56:39 2020.

 --------------------------------------------------------------------
 #N Geom=AllCheck Guess=TCheck SCRF=Check GenChk RB3LYP/6-31G(d) Freq
 --------------------------------------------------------------------

 Structure from the checkpoint file:  "JID_9232.chk"
 -------------------------------
 CID_114335770_JID_9232_neutraal
 -------------------------------
 Charge =  0 Multiplicity = 1

 SCF Done:  E(RB3LYP) =  -808.981898565     A.U. after    1 cycles

  Exact polarizability: 180.280   0.359 193.054  13.405   0.136 154.109
 Approx polarizability: 256.566 -10.861 306.603  31.584   0.385 221.340

                      1                      2                      3
                      A                      A                      A
 Frequencies --     26.0338                45.2482                66.0073
 Red. masses --      3.1804                 5.3833                 2.9905
 Frc consts  --      0.0013                 0.0065                 0.0077
 IR Inten    --      0.0385                 1.2377                 1.3056

                      4                      5                      6
                      A                      A                      A
 Frequencies --     76.8826                93.8936                97.9449
 Red. masses --      3.6569                 2.1782                 3.0019
 Frc consts  --      0.0127                 0.0113                 0.0170
 IR Inten    --      0.5636                 0.8837                 1.0194

                      7                      8                      9
                      A                      A                      A
 Frequencies --    115.5022               144.8733               180.4047
 Red. masses --      3.2899                 2.7178                 2.8133
 Frc consts  --      0.0259                 0.0336                 0.0539
 IR Inten    --      0.3780                 0.9813                 0.7086

                     10                     11                     12
                      A                      A                      A
 Frequencies --    185.7090               197.7192               224.6986
 Red. masses --      2.4248                 1.4991                 1.6333
 Frc consts  --      0.0493                 0.0345                 0.0486
 IR Inten    --      1.3314                 0.2844                 0.7569

                     13                     14                     15
                      A                      A                      A
 Frequencies --    248.3333               259.1190               270.4483
 Red. masses --      2.2324                 1.8714                 1.6030
 Frc consts  --      0.0811                 0.0740                 0.0691
 IR Inten    --      1.1968                 0.4894                 0.3878

                     16                     17                     18
                      A                      A                      A
 Frequencies --    288.4801               315.8103               325.4586
 Red. masses --      1.8444                 3.7889                 3.1336
 Frc consts  --      0.0904                 0.2226                 0.1956
 IR Inten    --      0.2965                 0.9735                 1.5918

                     19                     20                     21
                      A                      A                      A
 Frequencies --    336.5418               355.0369               367.5394
 Red. masses --      3.4480                 2.6157                 2.8567
 Frc consts  --      0.2301                 0.1943                 0.2274
 IR Inten    --      1.0267                 3.1636                 3.5638

                     22                     23                     24
                      A                      A                      A
 Frequencies --    388.3600               412.7542               444.6591
 Red. masses --      3.5791                 2.8421                 3.8957
 Frc consts  --      0.3180                 0.2853                 0.4538
 IR Inten    --      1.2904                 0.7629                 7.7422

                     25                     26                     27
                      A                      A                      A
 Frequencies --    515.4088               530.6824               537.5805
 Red. masses --      2.8419                 3.2372                 3.8423
 Frc consts  --      0.4448                 0.5371                 0.6542
 IR Inten    --      3.1974                 3.0699                 4.8875

                     28                     29                     30
                      A                      A                      A
 Frequencies --    556.2025               585.3405               633.8433
 Red. masses --      3.0115                 3.6311                 4.3860
 Frc consts  --      0.5489                 0.7330                 1.0382
 IR Inten    --      6.9949                10.3463                 0.3332

                     31                     32                     33
                      A                      A                      A
 Frequencies --    659.6914               704.7690               745.0179
 Red. masses --      3.0790                 4.2500                 7.3461
 Frc consts  --      0.7895                 1.2438                 2.4024
 IR Inten    --      7.7450                 0.8531                 3.7032

                     34                     35                     36
                      A                      A                      A
 Frequencies --    762.5391               776.4166               786.6543
 Red. masses --      2.4068                 2.0254                 1.6536
 Frc consts  --      0.8245                 0.7194                 0.6029
 IR Inten    --     20.1151                32.3150                19.2814

                     37                     38                     39
                      A                      A                      A
 Frequencies --    802.4126               817.9936               853.6443
 Red. masses --      1.2856                 1.8552                 2.0881
 Frc consts  --      0.4877                 0.7314                 0.8965
 IR Inten    --      0.9052                37.2964                 8.0873

                     40                     41                     42
                      A                      A                      A
 Frequencies --    882.8086               889.8763               898.0861
 Red. masses --      2.3283                 1.6511                 1.6005
 Frc consts  --      1.0691                 0.7703                 0.7606
 IR Inten    --     12.3363                 5.7872                 4.1748

                     43                     44                     45
                      A                      A                      A
 Frequencies --    930.3313               960.4089               967.0660
 Red. masses --      1.9582                 2.1161                 1.3536
 Frc consts  --      0.9986                 1.1500                 0.7458
 IR Inten    --      3.9384                17.5039                 1.5501

                     46                     47                     48
                      A                      A                      A
 Frequencies --    984.4061               991.7891               992.9323
 Red. masses --      2.5186                 1.3061                 1.3967
 Frc consts  --      1.4380                 0.7569                 0.8113
 IR Inten    --      5.8145                 0.7342                 1.2725

                     49                     50                     51
                      A                      A                      A
 Frequencies --   1008.8882              1020.9885              1048.9191
 Red. masses --      1.6235                 2.0008                 2.3514
 Frc consts  --      0.9736                 1.2288                 1.5243
 IR Inten    --      0.9275                10.7714                 6.5340

                     52                     53                     54
                      A                      A                      A
 Frequencies --   1062.3634              1079.6566              1088.7512
 Red. masses --      2.9947                 2.0259                 1.9391
 Frc consts  --      1.9914                 1.3914                 1.3543
 IR Inten    --      0.5942                14.6112                 6.1137

                     55                     56                     57
                      A                      A                      A
 Frequencies --   1108.0440              1121.0999              1140.3923
 Red. masses --      2.3025                 1.9584                 2.2859
 Frc consts  --      1.6656                 1.4503                 1.7515
 IR Inten    --      8.6300                 6.6273                25.4580

                     58                     59                     60
                      A                      A                      A
 Frequencies --   1148.0326              1151.0985              1179.3057
 Red. masses --      2.1057                 2.3261                 1.7461
 Frc consts  --      1.6351                 1.8159                 1.4308
 IR Inten    --     18.3718                13.4618                23.8832

                     61                     62                     63
                      A                      A                      A
 Frequencies --   1192.2216              1198.9195              1204.0022
 Red. masses --      1.1471                 1.6479                 1.8540
 Frc consts  --      0.9607                 1.3956                 1.5835
 IR Inten    --      0.5011                10.7689                 6.0118

                     64                     65                     66
                      A                      A                      A
 Frequencies --   1208.8867              1226.3095              1277.2494
 Red. masses --      1.8061                 1.5444                 1.5742
 Frc consts  --      1.5551                 1.3684                 1.5131
 IR Inten    --      8.4496                21.6465                 3.8069

                     67                     68                     69
                      A                      A                      A
 Frequencies --   1287.0379              1306.4616              1317.4636
 Red. masses --      1.5850                 1.6232                 1.2630
 Frc consts  --      1.5469                 1.6323                 1.2917
 IR Inten    --      1.7937                38.8217                 1.5829

                     70                     71                     72
                      A                      A                      A
 Frequencies --   1324.1398              1340.0079              1343.1792
 Red. masses --      2.0294                 1.6705                 2.6384
 Frc consts  --      2.0965                 1.7673                 2.8046
 IR Inten    --     70.6175                16.0018                 2.4766

                     73                     74                     75
                      A                      A                      A
 Frequencies --   1351.2193              1378.9683              1384.3803
 Red. masses --      1.4324                 1.4188                 1.3281
 Frc consts  --      1.5409                 1.5895                 1.4996
 IR Inten    --     36.3949                 2.0965                 5.4847

                     76                     77                     78
                      A                      A                      A
 Frequencies --   1400.7465              1402.3211              1406.0793
 Red. masses --      1.5157                 1.3983                 1.4127
 Frc consts  --      1.7522                 1.6201                 1.6456
 IR Inten    --     18.8126                 3.2484                 3.1317

                     79                     80                     81
                      A                      A                      A
 Frequencies --   1412.3926              1428.2431              1438.8602
 Red. masses --      1.4905                 1.5890                 1.2781
 Frc consts  --      1.7518                 1.9098                 1.5590
 IR Inten    --     32.6207                45.0474                 5.7573

                     82                     83                     84
                      A                      A                      A
 Frequencies --   1446.4208              1484.4375              1499.1971
 Red. masses --      1.3538                 1.1781                 1.7798
 Frc consts  --      1.6688                 1.5296                 2.3569
 IR Inten    --     40.0275                 2.1247                 7.7684

                     85                     86                     87
                      A                      A                      A
 Frequencies --   1501.4256              1506.5572              1509.3711
 Red. masses --      1.2833                 1.2227                 1.0981
 Frc consts  --      1.7045                 1.6350                 1.4740
 IR Inten    --     18.3955                19.4060                 4.6883

                     88                     89                     90
                      A                      A                      A
 Frequencies --   1518.9232              1519.5237              1526.3394
 Red. masses --      1.0883                 1.0633                 1.1149
 Frc consts  --      1.4794                 1.4465                 1.5303
 IR Inten    --      5.3280                 1.5632                12.3600

                     91                     92                     93
                      A                      A                      A
 Frequencies --   1527.5270              1535.3540              1537.1806
 Red. masses --      1.0441                 1.8519                 1.1444
 Frc consts  --      1.4354                 2.5721                 1.5932
 IR Inten    --      6.8800                35.7907                13.8202

                     94                     95                     96
                      A                      A                      A
 Frequencies --   1538.5520              1542.4529              1547.2536
 Red. masses --      1.1324                 1.0577                 1.0479
 Frc consts  --      1.5793                 1.4826                 1.4781
 IR Inten    --     12.1192                 3.3065                11.4345

                     97                     98                     99
                      A                      A                      A
 Frequencies --   1635.8591              1660.5743              1737.5903
 Red. masses --      6.0925                 6.1455                 9.4926
 Frc consts  --      9.6059                 9.9845                16.8861
 IR Inten    --      3.5104                 6.5813               273.0654

                    100                    101                    102
                      A                      A                      A
 Frequencies --   2967.0105              3025.7088              3041.4896
 Red. masses --      1.0592                 1.0633                 1.0688
 Frc consts  --      5.4940                 5.7353                 5.8251
 IR Inten    --     82.3668                20.8277                39.2051

                    103                    104                    105
                      A                      A                      A
 Frequencies --   3045.6467              3047.4587              3056.6870
 Red. masses --      1.0644                 1.0364                 1.0809
 Frc consts  --      5.8171                 5.6709                 5.9505
 IR Inten    --     35.6459                28.0962                 6.8162

                    106                    107                    108
                      A                      A                      A
 Frequencies --   3060.9188              3068.1557              3070.7117
 Red. masses --      1.0388                 1.0830                 1.0807
 Frc consts  --      5.7344                 6.0065                 6.0038
 IR Inten    --     19.9704                 8.7733                34.0344

                    109                    110                    111
                      A                      A                      A
 Frequencies --   3074.5567              3078.6808              3096.9873
 Red. masses --      1.0877                 1.0743                 1.0961
 Frc consts  --      6.0579                 5.9991                 6.1939
 IR Inten    --     23.8307                38.1761                50.6387

                    112                    113                    114
                      A                      A                      A
 Frequencies --   3100.5658              3116.7948              3120.2141
 Red. masses --      1.0962                 1.1015                 1.1001
 Frc consts  --      6.2090                 6.3046                 6.3106
 IR Inten    --      1.0983                36.5421                33.0272

                    115                    116                    117
                      A                      A                      A
 Frequencies --   3124.4146              3125.8479              3149.0993
 Red. masses --      1.1029                 1.1015                 1.1000
 Frc consts  --      6.3436                 6.3412                 6.4272
 IR Inten    --     35.0502                33.7145                 6.0833

                    118                    119                    120
                      A                      A                      A
 Frequencies --   3151.1805              3188.2253              3203.1858
 Red. masses --      1.1001                 1.0861                 1.0916
 Frc consts  --      6.4365                 6.5047                 6.5990
 IR Inten    --     26.7131                 3.1421                23.0970

                    121                    122                    123
                      A                      A                      A
 Frequencies --   3218.0605              3230.0061              3477.4212
 Red. masses --      1.0947                 1.0917                 1.0736
 Frc consts  --      6.6796                 6.7106                 7.6494
 IR Inten    --     12.8660                 7.6484                 0.5426

 - Thermochemistry -
 -------------------
 Temperature   298.150 Kelvin.  Pressure   1.00000 Atm.
 Atom     1 has atomic number  6 and mass  12.00000

 Molecular mass:   260.18886 amu.
 Principal axes and moments of inertia in atomic units:
                           1         2         3
     Eigenvalues --  4278.629965318.787915870.39140
           X            0.99670   0.07944  -0.01669
           Y           -0.07913   0.99669   0.01883
           Z            0.01813  -0.01745   0.99968
 This molecule is an asymmetric top.
 Rotational symmetry number  1.
 Warning -- assumption of classical behavior for rotation
           may cause significant error
 Rotational temperatures (Kelvin)      0.02024     0.01628     0.01475
 Rotational constants (GHZ):           0.42180     0.33931     0.30743
 Zero-point vibrational energy    1003867.6 (Joules/Mol)
                                  239.93012 (Kcal/Mol)
 Warning -- explicit consideration of  29 degrees of freedom as
           vibrations may cause significant error
 Vibrational temperatures:     37.46    65.10    94.97   110.62   135.09
          (Kelvin)            140.92   166.18   208.44   259.56   267.19
                              284.47   323.29   357.30   372.81   389.11
                              415.06   454.38   468.26   484.21   510.82
                              528.81   558.76   593.86   639.77   741.56
                              763.53   773.46   800.25   842.17   911.96
                              949.15  1014.01  1071.91  1097.12  1117.09
                             1131.82  1154.49  1176.91  1228.20  1270.16
                             1280.33  1292.15  1338.54  1381.81  1391.39
                             1416.34  1426.96  1428.61  1451.57  1468.97
                             1509.16  1528.50  1553.39  1566.47  1594.23
                             1613.01  1640.77  1651.76  1656.17  1696.76
                             1715.34  1724.98  1732.29  1739.32  1764.39
                             1837.68  1851.76  1879.71  1895.54  1905.14
                             1927.97  1932.54  1944.10  1984.03  1991.81
                             2015.36  2017.63  2023.03  2032.12  2054.92
                             2070.20  2081.08  2135.77  2157.01  2160.22
                             2167.60  2171.65  2185.39  2186.26  2196.06
                             2197.77  2209.03  2211.66  2213.63  2219.25
                             2226.15  2353.64  2389.20  2500.00  4268.87
                             4353.32  4376.03  4382.01  4384.61  4397.89
                             4403.98  4414.39  4418.07  4423.60  4429.53
                             4455.87  4461.02  4484.37  4489.29  4495.34
                             4497.40  4530.85  4533.85  4587.15  4608.67
                             4630.07  4647.26  5003.23

 Zero-point correction=                           0.382353 (Hartree/Particle)
 Thermal correction to Energy=                    0.401155
 Thermal correction to Enthalpy=                  0.402099
 Thermal correction to Gibbs Free Energy=         0.335552
 Sum of electronic and zero-point Energies=           -808.599546
 Sum of electronic and thermal Energies=              -808.580744
 Sum of electronic and thermal Enthalpies=            -808.579800
 Sum of electronic and thermal Free Energies=         -808.646347

                     E (Thermal)             CV                S
                      KCal/Mol        Cal/Mol-Kelvin    Cal/Mol-Kelvin
 Total                  251.728             72.883            140.061
 Electronic               0.000              0.000              0.000
 Translational            0.889              2.981             42.568
 Rotational               0.889              2.981             33.257
 Vibrational            249.951             66.921             64.235
 Vibration     1          0.593              1.985              6.111
 Vibration     2          0.595              1.979              5.015
 Vibration     3          0.597              1.970              4.269
 Vibration     4          0.599              1.965              3.969
 Vibration     5          0.603              1.954              3.577
 Vibration     6          0.603              1.951              3.495
 Vibration     7          0.608              1.937              3.174
 Vibration     8          0.616              1.908              2.738
 Vibration     9          0.629              1.866              2.324
 Vibration    10          0.632              1.859              2.270
 Vibration    11          0.637              1.843              2.154
 Vibration    12          0.649              1.803              1.921
 Vibration    13          0.662              1.766              1.742
 Vibration    14          0.668              1.747              1.668
 Vibration    15          0.674              1.728              1.593
 Vibration    16          0.685              1.695              1.483
 Vibration    17          0.703              1.643              1.332
 Vibration    18          0.710              1.625              1.283
 Vibration    19          0.717              1.603              1.228
 Vibration    20          0.731              1.565              1.144
 Vibration    21          0.740              1.539              1.090
 Vibration    22          0.757              1.495              1.006
 Vibration    23          0.777              1.443              0.917
 Vibration    24          0.804              1.373              0.812
 Vibration    25          0.870              1.216              0.621
 Vibration    26          0.886              1.182              0.586
 Vibration    27          0.893              1.167              0.571
 Vibration    28          0.912              1.126              0.531
 Vibration    29          0.942              1.063              0.476

 Optimization completed.
    -- Stationary point found.
 Normal termination of Gaussian 16 at Sun Dec 13 13:25:06 2020.

 ----------------------------------------------------------------------
 # B3LYP/6-311++G(d,p) empiricaldispersion=gd3bj scf=xqc pop=npa geom=c
 heck
 ----------------------------------------------------------------------

 ---------------------------------------
 CID_114335770_JID_9232_Energie_neutraal
 ---------------------------------------
 Structure from the checkpoint file:  "JID_9232.chk"
 Charge =  0 Multiplicity = 1

 SCF Done:  E(RB3LYP) =  -809.201919240     A.U. after   16 cycles
 Normal termination of Gaussian 16 at Sun Dec 13 13:38:55 2020.

 ----------------------------------------------------------------------
 # B3LYP/6-311++G(d,p) empiricaldispersion=gd3bj scf=xqc pop=npa geom=c
 heck
 ----------------------------------------------------------------------

 -------------------------------------
 CID_114335770_JID_9232_Energie_kation
 -------------------------------------
 Structure from the checkpoint file:  "JID_9232.chk"
 Charge =  1 Multiplicity = 2

 SCF Done:  E(UB3LYP) =  -808.909561948     A.U. after   29 cycles
 Normal termination of Gaussian 16 at Sun Dec 13 14:13:50 2020.
 Gaussian 16:  ES64L-G16RevA.03 25-Dec-2016

 ----------------------------------------------------------------------
 # B3LYP/6-311++G(d,p) empiricaldispersion=gd3bj scf=xqc pop=npa geom=c
 heck
 ----------------------------------------------------------------------

 ------------------------------------
 CID_114335770_JID_9232_Energie_anion
 ------------------------------------
 Structure from the checkpoint file:  "JID_9232.chk"
 Charge = -1 Multiplicity = 2

                         Standard orientation:
 ---------------------------------------------------------------------
 Center     Atomic      Atomic             Coordinates (Angstroms)
 Number     Number       Type             X           Y           Z
 ---------------------------------------------------------------------
      1          6           0        2.461968   -0.101831   -3.028113
      2          6           0        1.583710   -0.360495   -1.800352
      3          6           0        2.402087   -0.729076   -0.545050
      4          6           0        3.339514    0.402802   -0.088180
      5          6           0        1.545545   -1.339034    0.575714
      6          8           0        1.722512   -2.514863    0.887450
      7          7           0        0.578315   -0.596353    1.228755
      8          6           0       -0.261079   -1.305601    2.205881
      9          6           0       -1.430727   -2.031086    1.540506
     10          6           0       -2.405222   -1.117593    0.787049
     11          6           0       -1.799279   -0.297560   -0.384025
     12          6           0       -1.009995    0.907743    0.115894
     13          6           0       -1.411825    2.214333   -0.175261
     14          6           0       -0.710734    3.314023    0.321272
     15          6           0        0.408825    3.123315    1.129064
     16          6           0        0.830227    1.826077    1.417878
     17          6           0        0.147686    0.726966    0.894074
     18          7           0       -2.815927    0.115625   -1.357753
     19          6           0       -3.215236   -0.942588   -2.277831
     20          1           0        3.105292    0.773251   -2.887883
     21          1           0        1.844531    0.082348   -3.914027
     22          1           0        3.107733   -0.962343   -3.241321
     23          1           0        0.965218    0.520849   -1.604405
     24          1           0        0.896812   -1.187303   -2.024244
     25          1           0        3.032361   -1.583665   -0.813586
     26          1           0        2.825851    1.365559   -0.040513
     27          1           0        3.765986    0.189245    0.897998
     28          1           0        4.173039    0.501721   -0.790708
     29          1           0       -0.618948   -0.562178    2.925858
     30          1           0        0.375543   -2.023577    2.724887
     31          1           0       -1.014087   -2.775523    0.851773
     32          1           0       -1.981860   -2.586727    2.310554
     33          1           0       -3.202036   -1.747020    0.371570
     34          1           0       -2.886849   -0.418261    1.485578
     35          1           0       -1.103473   -0.950775   -0.925278
     36          1           0       -2.268118    2.358060   -0.823745
     37          1           0       -1.044473    4.319089    0.078845
     38          1           0        0.949872    3.973482    1.534100
     39          1           0        1.693390    1.647484    2.050275
     40          1           0       -3.636150    0.453752   -0.856055
     41          1           0       -3.563269   -1.874203   -1.796604
     42          1           0       -4.020686   -0.573373   -2.920401
     43          1           0       -2.365282   -1.198265   -2.920414
 ---------------------------------------------------------------------

 SCF Done:  E(UB3LYP) =  -809.189773605     A.U. after   33 cycles
 SCF Done:  E(UB3LYP) =  -809.189773604     a.u. after    1 cycles

 The electronic state is 2-A.
 Alpha  occ. eigenvalues --  -18.99511 -14.25278 -14.20593 -10.17928 -10.12090
 Alpha  occ. eigenvalues --  -10.11499 -10.11127 -10.09357 -10.09279 -10.09156
 Alpha  occ. eigenvalues --  -10.08728 -10.08416 -10.08361 -10.08093 -10.07982
 Alpha  occ. eigenvalues --  -10.07881 -10.07725 -10.07518 -10.07466  -0.94859
 Alpha  occ. eigenvalues --   -0.85467  -0.81890  -0.76122  -0.72367  -0.70228
 Alpha  occ. eigenvalues --   -0.67580  -0.65600  -0.64455  -0.61623  -0.58688
 Alpha  occ. eigenvalues --   -0.56763  -0.54952  -0.53690  -0.51395  -0.50133
 Alpha  occ. eigenvalues --   -0.48866  -0.46058  -0.42697  -0.40716  -0.39855
 Alpha  occ. eigenvalues --   -0.38174  -0.37552  -0.37153  -0.36606  -0.35333
 Alpha  occ. eigenvalues --   -0.34746  -0.34734  -0.34177  -0.33195  -0.32546
 Alpha  occ. eigenvalues --   -0.32037  -0.30518  -0.30223  -0.30125  -0.29423
 Alpha  occ. eigenvalues --   -0.28693  -0.28444  -0.28137  -0.26706  -0.26448
 Alpha  occ. eigenvalues --   -0.25911  -0.25681  -0.24914  -0.23938  -0.23818
 Alpha  occ. eigenvalues --   -0.23634  -0.17348  -0.16647  -0.15912  -0.15099
 Alpha  occ. eigenvalues --   -0.13556   0.04029
 Alpha virt. eigenvalues --    0.05759   0.06186   0.06824   0.06832   0.07320
 Alpha virt. eigenvalues --    0.07689   0.07979   0.08619   0.08917   0.09363
 Alpha virt. eigenvalues --    0.09869   0.10273   0.10489   0.10698   0.11043

  Beta  occ. eigenvalues --  -18.99501 -14.25281 -14.20576 -10.17918 -10.12062
  Beta  occ. eigenvalues --  -10.11500 -10.11123 -10.09356 -10.09242 -10.09135
  Beta  occ. eigenvalues --  -10.08731 -10.08384 -10.08329 -10.08089 -10.07979
  Beta  occ. eigenvalues --  -10.07872 -10.07698 -10.07501 -10.07448  -0.94841
  Beta  occ. eigenvalues --   -0.85446  -0.81863  -0.76080  -0.72351  -0.70199
  Beta  occ. eigenvalues --   -0.67526  -0.65561  -0.64430  -0.61581  -0.58639
  Beta  occ. eigenvalues --   -0.56726  -0.54898  -0.53641  -0.51355  -0.50106
  Beta  occ. eigenvalues --   -0.48819  -0.46017  -0.42668  -0.40676  -0.39826
  Beta  occ. eigenvalues --   -0.38148  -0.37498  -0.37122  -0.36584  -0.35303
  Beta  occ. eigenvalues --   -0.34715  -0.34710  -0.34153  -0.33170  -0.32518
  Beta  occ. eigenvalues --   -0.32003  -0.30489  -0.30194  -0.30067  -0.29389
  Beta  occ. eigenvalues --   -0.28653  -0.28405  -0.28114  -0.26673  -0.26406
  Beta  occ. eigenvalues --   -0.25887  -0.25648  -0.24890  -0.23907  -0.23789
  Beta  occ. eigenvalues --   -0.23608  -0.17272  -0.16617  -0.15834  -0.15031
  Beta  occ. eigenvalues --   -0.13521
  Beta virt. eigenvalues --    0.05953   0.06618   0.06637   0.07037   0.07293
  Beta virt. eigenvalues --    0.07558   0.08112   0.08428   0.08929   0.09053
  Beta virt. eigenvalues --    0.09642   0.10279   0.10457   0.10647   0.10954

 Mulliken charges and spin densities:
               1          2
     1  C    0.171950  -0.798877
     2  C   -0.661643   0.374692
     3  C    0.410662   0.102948
     4  C   -0.296278  -0.482592
     5  C   -0.357449  -0.007433
     6  O   -0.278733   0.010083
     7  N    0.530464  -0.093737
     8  C    0.409458  -0.387014
     9  C   -0.798408   0.593838
    10  C    1.395564  -1.774454
    11  C   -1.073401   0.552970
    12  C   -0.274442   0.301328
    13  C   -0.250191   0.162561
    14  C    0.871375  -1.335777
    15  C    0.683551  -0.959890
    16  C   -0.407428   0.803571
    17  C   -1.273253   0.271616
    18  N    0.089156  -0.025692
    19  C    0.662973  -0.945641
    20  H    0.024074   0.131355
    21  H   -0.022440   0.173115
    22  H   -0.053244   0.185748
    23  H    0.337216  -0.133999
    24  H   -0.044122   0.180923
    25  H    0.250272  -0.007745
    26  H    0.216086  -0.009879
    27  H    0.026931   0.128913
    28  H   -0.028286   0.165428
    29  H    0.023894   0.113916
    30  H    0.185078   0.036320
    31  H    0.187578   0.006064
    32  H   -0.126648   0.301705
    33  H   -0.316865   0.473221
    34  H    0.050558   0.104420
    35  H    0.616444  -0.470641
    36  H   -0.141918   0.346101
    37  H   -0.353585   0.523032
    38  H   -0.605034   0.785576
    39  H   -0.105421   0.278123
    40  H    0.025735   0.224867
    41  H   -0.113946   0.234422
    42  H   -0.489518   0.633846
    43  H   -0.096763   0.232668
 Sum of Mulliken charges =  -1.00000   1.00000

 Dipole moment (field-independent basis, Debye):
    X=              3.2742    Y=             -1.5318    Z=              1.7768  Tot=              4.0279
 Quadrupole moment (field-independent basis, Debye-Ang):
   XX=           -186.0964   YY=           -182.2001   ZZ=           -163.9142
   XY=             -2.0763   XZ=             -9.1031   YZ=             -2.5612

 Summary of Natural Population Analysis:

                                       Natural Population
                Natural  -----------------------------------------------
    Atom  No    Charge         Core      Valence    Rydberg      Total
 -----------------------------------------------------------------------
      C    1   -0.28301      0.99967     2.27919    0.00415     3.28301
      C    2   -0.19159      0.99962     2.18369    0.00828     3.19159
      C    3   -0.14661      0.99956     2.13709    0.00997     3.14661
      C    4   -0.28743      0.99965     2.28153    0.00625     3.28743
      C    5    0.35978      0.99960     1.61786    0.02276     2.64022
      O    6   -0.32808      0.99988     3.32311    0.00510     4.32808
      N    7   -0.26478      0.99961     2.75398    0.01119     3.76478
      C    8   -0.08374      0.99960     2.07408    0.01006     3.08374
      C    9   -0.19620      0.99961     2.18810    0.00848     3.19620
      C   10   -0.19344      0.99960     2.18462    0.00922     3.19344
      C   11   -0.02126      0.99954     2.00905    0.01267     3.02126
      C   12   -0.00966      0.99943     1.99837    0.01186     3.00966
      C   13   -0.09787      0.99950     2.08868    0.00969     3.09787
      C   14   -0.09278      0.99956     2.08339    0.00983     3.09278
      C   15   -0.09852      0.99955     2.08885    0.01012     3.09852
      C   16   -0.10457      0.99950     2.09514    0.00992     3.10457
      C   17    0.07623      0.99940     1.91206    0.01232     2.92377
      N   18   -0.33725      0.99975     2.82513    0.01238     3.83725
      C   19   -0.17549      0.99965     2.16781    0.00803     3.17549
      H   20    0.09718      0.00000     0.40190    0.00092     0.40282
      H   21    0.10154      0.00000     0.39767    0.00079     0.39846
      H   22    0.09429      0.00000     0.40472    0.00099     0.40571
      H   23    0.10343      0.00000     0.39439    0.00218     0.39657
      H   24    0.09674      0.00000     0.40176    0.00150     0.40326
      H   25    0.10625      0.00000     0.39190    0.00185     0.39375
      H   26    0.10444      0.00000     0.39450    0.00107     0.39556
      H   27    0.10067      0.00000     0.39845    0.00088     0.39933
      H   28    0.10022      0.00000     0.39902    0.00076     0.39978
      H   29    0.09545      0.00000     0.40354    0.00101     0.40455
      H   30    0.11058      0.00000     0.38839    0.00102     0.38942
      H   31    0.10320      0.00000     0.39552    0.00128     0.39680
      H   32    0.09975      0.00000     0.39936    0.00089     0.40025
      H   33    0.10415      0.00000     0.39448    0.00138     0.39585
      H   34    0.09588      0.00000     0.40271    0.00141     0.40412
      H   35    0.09961      0.00000     0.39724    0.00315     0.40039
      H   36    0.11209      0.00000     0.38623    0.00168     0.38791
      H   37    0.10182      0.00000     0.39706    0.00111     0.39818
      H   38    0.10279      0.00000     0.39580    0.00140     0.39721
      H   39    0.10565      0.00000     0.39285    0.00151     0.39435
      H   40    0.17252      0.00000     0.32424    0.00324     0.32748
      H   41    0.07955      0.00000     0.41871    0.00174     0.42045
      H   42    0.09728      0.00000     0.40145    0.00127     0.40272
      H   43    0.09123      0.00000     0.40741    0.00136     0.40877
 =======================================================================
   * Total *    0.00000     18.99228    51.78103    0.22669    71.00000

 Normal termination of Gaussian 16 at Sun Dec 13 14:54:22 2020.
