 Gaussian 16, Revision A.03,

 -----------------------------------------------------------
 # opt freq B3LYP/6-31G(d) empiricaldispersion=gd3bj scf=xqc
 -----------------------------------------------------------

 -------------------------------
 CID_130719493_JID_3171_neutraal
 -------------------------------
 Symbolic Z-matrix:
 Charge =  0 Multiplicity = 1

 SCF Done:  E(RB3LYP) =  -940.576913796     A.U. after   14 cycles
 SCF Done:  E(RB3LYP) =  -940.580498322     A.U. after   12 cycles
 SCF Done:  E(RB3LYP) =  -940.577054914     A.U. after   13 cycles
 SCF Done:  E(RB3LYP) =  -940.579642852     A.U. after   12 cycles
 SCF Done:  E(RB3LYP) =  -940.581105340     A.U. after    9 cycles
 SCF Done:  E(RB3LYP) =  -940.581282173     A.U. after   11 cycles
 SCF Done:  E(RB3LYP) =  -940.580906259     A.U. after   12 cycles
 SCF Done:  E(RB3LYP) =  -940.580462202     A.U. after   12 cycles
 SCF Done:  E(RB3LYP) =  -940.580174274     A.U. after   12 cycles
 SCF Done:  E(RB3LYP) =  -940.581317971     A.U. after    9 cycles
 SCF Done:  E(RB3LYP) =  -940.581645361     A.U. after   10 cycles
 SCF Done:  E(RB3LYP) =  -940.581650927     A.U. after   10 cycles
 SCF Done:  E(RB3LYP) =  -940.581653024     A.U. after   10 cycles
 SCF Done:  E(RB3LYP) =  -940.581654022     A.U. after    8 cycles
 SCF Done:  E(RB3LYP) =  -940.581654294     A.U. after    7 cycles
 Optimization completed.
    -- Stationary point found.
 Normal termination of Gaussian 16 at Wed Dec  9 22:33:37 2020.

 --------------------------------------------------------------------
 #N Geom=AllCheck Guess=TCheck SCRF=Check GenChk RB3LYP/6-31G(d) Freq
 --------------------------------------------------------------------

 Structure from the checkpoint file:  "JID_3171.chk"
 -------------------------------
 CID_130719493_JID_3171_neutraal
 -------------------------------
 Charge =  0 Multiplicity = 1

 SCF Done:  E(RB3LYP) =  -940.581654295     A.U. after    1 cycles

  Exact polarizability: 145.643  -5.353 123.206  -0.244  -0.008 103.381
 Approx polarizability: 185.422 -10.003 182.163  -7.292   6.484 168.713

                      1                      2                      3
                      A                      A                      A
 Frequencies --     36.0369                70.0589                96.2446
 Red. masses --      4.9277                 3.1545                 4.4619
 Frc consts  --      0.0038                 0.0091                 0.0244
 IR Inten    --      0.4521                 1.0438                 1.5171

                      4                      5                      6
                      A                      A                      A
 Frequencies --    103.1316               160.7974               183.4071
 Red. masses --      2.2320                 3.9039                 1.5558
 Frc consts  --      0.0140                 0.0595                 0.0308
 IR Inten    --      3.4633                 1.8234                 1.5293

                      7                      8                      9
                      A                      A                      A
 Frequencies --    188.1959               221.8678               226.7314
 Red. masses --      2.1091                 3.1851                 1.7032
 Frc consts  --      0.0440                 0.0924                 0.0516
 IR Inten    --      1.0432                 1.1667                 0.6541

                     10                     11                     12
                      A                      A                      A
 Frequencies --    249.3639               267.3817               268.1860
 Red. masses --      1.9541                 1.5538                 3.4393
 Frc consts  --      0.0716                 0.0655                 0.1457
 IR Inten    --      0.2352                 0.7337                 0.7715

                     13                     14                     15
                      A                      A                      A
 Frequencies --    292.0969               325.4621               342.2533
 Red. masses --      1.1564                 3.1145                 3.0705
 Frc consts  --      0.0581                 0.1944                 0.2119
 IR Inten    --      0.0744                 1.3753                 0.0834

                     16                     17                     18
                      A                      A                      A
 Frequencies --    347.2674               381.5210               406.7915
 Red. masses --      3.5356                 3.1851                 2.2179
 Frc consts  --      0.2512                 0.2732                 0.2162
 IR Inten    --      2.6165                 1.3732                 2.3067

                     19                     20                     21
                      A                      A                      A
 Frequencies --    481.3794               500.9317               544.5490
 Red. masses --      2.8851                 2.7861                 4.0866
 Frc consts  --      0.3939                 0.4119                 0.7140
 IR Inten    --      0.0502                 0.8048                23.8119

                     22                     23                     24
                      A                      A                      A
 Frequencies --    608.8148               631.5328               720.9322
 Red. masses --      4.2539                 2.9110                 5.4849
 Frc consts  --      0.9290                 0.6841                 1.6796
 IR Inten    --      6.7863                 4.3480                 0.3583

                     25                     26                     27
                      A                      A                      A
 Frequencies --    741.6109               776.2458               837.4891
 Red. masses --      4.4146                 2.9042                 1.5391
 Frc consts  --      1.4305                 1.0310                 0.6360
 IR Inten    --      1.6596                 1.8561                 0.5349

                     28                     29                     30
                      A                      A                      A
 Frequencies --    852.8562               908.1131               924.1638
 Red. masses --      3.2207                 2.6234                 2.5129
 Frc consts  --      1.3802                 1.2746                 1.2645
 IR Inten    --      7.1214                12.9422                 0.8020

                     31                     32                     33
                      A                      A                      A
 Frequencies --    941.8763               966.3180               990.8765
 Red. masses --      2.1463                 1.4923                 1.1855
 Frc consts  --      1.1218                 0.8210                 0.6858
 IR Inten    --      3.9195                 1.1157                 6.3014

                     34                     35                     36
                      A                      A                      A
 Frequencies --   1000.0558              1011.8209              1015.0017
 Red. masses --      1.3319                 1.3910                 1.8755
 Frc consts  --      0.7848                 0.8390                 1.1384
 IR Inten    --     38.0043                 6.1066                18.8087

                     37                     38                     39
                      A                      A                      A
 Frequencies --   1029.3572              1043.3424              1102.7788
 Red. masses --      2.4604                 1.3525                 3.2484
 Frc consts  --      1.5360                 0.8674                 2.3275
 IR Inten    --     34.1512                 0.4332                25.7316

                     40                     41                     42
                      A                      A                      A
 Frequencies --   1119.0440              1150.1399              1168.6093
 Red. masses --      2.7420                 3.2766                 2.7744
 Frc consts  --      2.0231                 2.5537                 2.2323
 IR Inten    --     62.0749                34.0019                38.3424

                     43                     44                     45
                      A                      A                      A
 Frequencies --   1180.4578              1196.5718              1213.7616
 Red. masses --      3.6744                 2.1355                 1.2440
 Frc consts  --      3.0168                 1.8015                 1.0798
 IR Inten    --     18.6690                 9.4544                 1.8274

                     46                     47                     48
                      A                      A                      A
 Frequencies --   1254.6631              1280.8368              1301.1632
 Red. masses --      3.0236                 1.3009                 1.2995
 Frc consts  --      2.8043                 1.2574                 1.2963
 IR Inten    --     16.6659                20.6041                 4.7540

                     49                     50                     51
                      A                      A                      A
 Frequencies --   1317.8451              1342.3259              1359.0458
 Red. masses --      1.2980                 1.2566                 1.1749
 Frc consts  --      1.3282                 1.3341                 1.2786
 IR Inten    --      1.4181                 0.9018                 2.7756

                     52                     53                     54
                      A                      A                      A
 Frequencies --   1377.7153              1391.4752              1400.2046
 Red. masses --      1.1616                 1.3017                 1.2217
 Frc consts  --      1.2990                 1.4850                 1.4112
 IR Inten    --      1.6635                 0.9233                 6.7683

                     55                     56                     57
                      A                      A                      A
 Frequencies --   1408.7476              1425.7001              1442.0013
 Red. masses --      1.4511                 1.1975                 1.3016
 Frc consts  --      1.6967                 1.4341                 1.5946
 IR Inten    --      7.7505                 5.7639                23.4690

                     58                     59                     60
                      A                      A                      A
 Frequencies --   1451.0369              1495.6903              1506.1612
 Red. masses --      1.2228                 1.0530                 1.0896
 Frc consts  --      1.5169                 1.3880                 1.4564
 IR Inten    --      5.4308                 9.2992                 0.8928

                     61                     62                     63
                      A                      A                      A
 Frequencies --   1510.1961              1517.7021              1521.1845
 Red. masses --      1.0729                 1.0501                 1.0810
 Frc consts  --      1.4416                 1.4251                 1.4738
 IR Inten    --      5.6257                 4.0291                 0.3587

                     64                     65                     66
                      A                      A                      A
 Frequencies --   1523.7498              1526.3733              1533.4398
 Red. masses --      1.0587                 1.0642                 1.0629
 Frc consts  --      1.4483                 1.4609                 1.4726
 IR Inten    --      7.2352                 4.4727                 8.5019

                     67                     68                     69
                      A                      A                      A
 Frequencies --   1534.5650              1539.7512              1783.4525
 Red. masses --      1.0869                 1.0517                11.7425
 Frc consts  --      1.5080                 1.4690                22.0056
 IR Inten    --      1.9060                14.1172               100.2676

                     70                     71                     72
                      A                      A                      A
 Frequencies --   2975.8628              2983.0347              3042.2681
 Red. masses --      1.0720                 1.0719                 1.0834
 Frc consts  --      5.5935                 5.6198                 5.9078
 IR Inten    --     22.9574                95.6779                10.6338

                     73                     74                     75
                      A                      A                      A
 Frequencies --   3061.9057              3065.0052              3066.4068
 Red. masses --      1.0588                 1.0356                 1.0578
 Frc consts  --      5.8485                 5.7320                 5.8601
 IR Inten    --     15.3453                 5.9262                 8.2283

                     76                     77                     78
                      A                      A                      A
 Frequencies --   3066.8985              3072.5912              3108.9268
 Red. masses --      1.0361                 1.0392                 1.0928
 Frc consts  --      5.7417                 5.7806                 6.2232
 IR Inten    --     47.7037                11.5116                59.0445

                     79                     80                     81
                      A                      A                      A
 Frequencies --   3111.2495              3118.0834              3123.2717
 Red. masses --      1.0941                 1.1001                 1.1006
 Frc consts  --      6.2399                 6.3016                 6.3257
 IR Inten    --     23.1905                12.5882                48.2293

                     82                     83                     84
                      A                      A                      A
 Frequencies --   3134.5268              3140.3739              3145.0192
 Red. masses --      1.1013                 1.1017                 1.1019
 Frc consts  --      6.3754                 6.4015                 6.4214
 IR Inten    --     11.4550                22.1801                 4.3233

                     85                     86                     87
                      A                      A                      A
 Frequencies --   3146.7816              3156.8330              3172.7817
 Red. masses --      1.1024                 1.1014                 1.1059
 Frc consts  --      6.4319                 6.4670                 6.5591
 IR Inten    --     23.1607                20.5344                 4.7059

 - Thermochemistry -
 -------------------
 Temperature   298.150 Kelvin.  Pressure   1.00000 Atm.
 Atom     1 has atomic number  6 and mass  12.00000

 Molecular mass:   202.10275 amu.
 Principal axes and moments of inertia in atomic units:
                           1         2         3
     Eigenvalues --  1291.816424568.297264928.91313
           X            0.99991  -0.00505   0.01215
           Y            0.00548   0.99935  -0.03554
           Z           -0.01197   0.03560   0.99929
 This molecule is an asymmetric top.
 Rotational symmetry number  1.
 Warning -- assumption of classical behavior for rotation
           may cause significant error
 Rotational temperatures (Kelvin)      0.06705     0.01896     0.01757
 Rotational constants (GHZ):           1.39706     0.39506     0.36615
 Zero-point vibrational energy     713346.8 (Joules/Mol)
                                  170.49398 (Kcal/Mol)
 Warning -- explicit consideration of  22 degrees of freedom as
           vibrations may cause significant error
 Vibrational temperatures:     51.85   100.80   138.47   148.38   231.35
          (Kelvin)            263.88   270.77   319.22   326.22   358.78
                              384.70   385.86   420.26   468.27   492.43
                              499.64   548.92   585.28   692.60   720.73
                              783.48   875.95   908.63  1037.26  1067.01
                             1116.84  1204.96  1227.07  1306.57  1329.67
                             1355.15  1390.32  1425.65  1438.86  1455.78
                             1460.36  1481.02  1501.14  1586.65  1610.05
                             1654.79  1681.37  1698.42  1721.60  1746.33
                             1805.18  1842.84  1872.08  1896.09  1931.31
                             1955.36  1982.22  2002.02  2014.58  2026.87
                             2051.26  2074.72  2087.72  2151.96  2167.03
                             2172.84  2183.63  2188.65  2192.34  2196.11
                             2206.28  2207.90  2215.36  2565.99  4281.60
                             4291.92  4377.15  4405.40  4409.86  4411.88
                             4412.58  4420.77  4473.05  4476.39  4486.23
                             4493.69  4509.89  4518.30  4524.98  4527.52
                             4541.98  4564.93

 Zero-point correction=                           0.271699 (Hartree/Particle)
 Thermal correction to Energy=                    0.286166
 Thermal correction to Enthalpy=                  0.287110
 Thermal correction to Gibbs Free Energy=         0.230714
 Sum of electronic and zero-point Energies=           -940.309955
 Sum of electronic and thermal Energies=              -940.295488
 Sum of electronic and thermal Enthalpies=            -940.294544
 Sum of electronic and thermal Free Energies=         -940.350940

                     E (Thermal)             CV                S
                      KCal/Mol        Cal/Mol-Kelvin    Cal/Mol-Kelvin
 Total                  179.572             54.683            118.696
 Electronic               0.000              0.000              0.000
 Translational            0.889              2.981             41.815
 Rotational               0.889              2.981             31.742
 Vibrational            177.795             48.722             45.138
 Vibration     1          0.594              1.982              5.466
 Vibration     2          0.598              1.968              4.152
 Vibration     3          0.603              1.952              3.529
 Vibration     4          0.605              1.947              3.394
 Vibration     5          0.622              1.890              2.540
 Vibration     6          0.631              1.862              2.293
 Vibration     7          0.633              1.856              2.246
 Vibration     8          0.648              1.808              1.944
 Vibration     9          0.650              1.800              1.905
 Vibration    10          0.662              1.764              1.735
 Vibration    11          0.672              1.733              1.613
 Vibration    12          0.673              1.732              1.608
 Vibration    13          0.687              1.688              1.462
 Vibration    14          0.710              1.625              1.283
 Vibration    15          0.721              1.591              1.202
 Vibration    16          0.725              1.581              1.179
 Vibration    17          0.751              1.510              1.033
 Vibration    18          0.772              1.455              0.938
 Vibration    19          0.838              1.291              0.706
 Vibration    20          0.856              1.248              0.656
 Vibration    21          0.900              1.152              0.556
 Vibration    22          0.968              1.013              0.435

 Optimization completed.
    -- Stationary point found.
 Normal termination of Gaussian 16 at Wed Dec  9 22:43:22 2020.

 ----------------------------------------------------------------------
 # B3LYP/6-311++G(d,p) empiricaldispersion=gd3bj scf=xqc pop=npa geom=c
 heck
 ----------------------------------------------------------------------

 ---------------------------------------
 CID_130719493_JID_3171_Energie_neutraal
 ---------------------------------------
 Structure from the checkpoint file:  "JID_3171.chk"
 Charge =  0 Multiplicity = 1

 SCF Done:  E(RB3LYP) =  -940.764299903     A.U. after   15 cycles
 Normal termination of Gaussian 16 at Wed Dec  9 22:48:12 2020.

 ----------------------------------------------------------------------
 # B3LYP/6-311++G(d,p) empiricaldispersion=gd3bj scf=xqc pop=npa geom=c
 heck
 ----------------------------------------------------------------------

 -------------------------------------
 CID_130719493_JID_3171_Energie_kation
 -------------------------------------
 Structure from the checkpoint file:  "JID_3171.chk"
 Charge =  1 Multiplicity = 2

 SCF Done:  E(UB3LYP) =  -940.463931385     A.U. after   32 cycles
 Normal termination of Gaussian 16 at Wed Dec  9 23:03:15 2020.
 Gaussian 16:  ES64L-G16RevA.03 25-Dec-2016

 ----------------------------------------------------------------------
 # B3LYP/6-311++G(d,p) empiricaldispersion=gd3bj scf=xqc pop=npa geom=c
 heck
 ----------------------------------------------------------------------

 ------------------------------------
 CID_130719493_JID_3171_Energie_anion
 ------------------------------------
 Structure from the checkpoint file:  "JID_3171.chk"
 Charge = -1 Multiplicity = 2

                         Standard orientation:
 ---------------------------------------------------------------------
 Center     Atomic      Atomic             Coordinates (Angstroms)
 Number     Number       Type             X           Y           Z
 ---------------------------------------------------------------------
      1          6           0        1.361586    2.126081   -0.158367
      2          6           0        1.359794    0.628740    0.222294
      3          6           0        0.948301    0.453412    1.692904
      4          6           0        0.441545   -0.120816   -0.776901
      5          8           0        0.913015   -0.748299   -1.706639
      6          6           0       -1.092096   -0.128569   -0.643236
      7          6           0       -1.831600    1.169736   -0.275007
      8          6           0       -3.340361    0.905472   -0.269612
      9          8           0       -3.689300   -0.136543    0.629225
     10          6           0       -3.082203   -1.367842    0.264379
     11          6           0       -1.555580   -1.273624    0.288865
     12         16           0        3.129236    0.114597    0.011867
     13          6           0        3.057291   -1.689237    0.264244
     14          1           0        0.390069    2.585366    0.037959
     15          1           0        1.610320    2.260543   -1.215008
     16          1           0        2.110225    2.653667    0.442242
     17          1           0       -0.069157    0.807297    1.880104
     18          1           0        1.001910   -0.592833    2.007000
     19          1           0        1.629199    1.029569    2.324955
     20          1           0       -1.412856   -0.407291   -1.655446
     21          1           0       -1.545494    1.528699    0.717922
     22          1           0       -1.604320    1.964338   -0.995527
     23          1           0       -3.891645    1.790344    0.060909
     24          1           0       -3.678668    0.651775   -1.289572
     25          1           0       -3.421951   -1.670772   -0.741300
     26          1           0       -3.441535   -2.109494    0.983566
     27          1           0       -1.115450   -2.222728   -0.039067
     28          1           0       -1.232698   -1.090215    1.318056
     29          1           0        2.629799   -1.949019    1.237096
     30          1           0        2.492634   -2.163157   -0.540057
     31          1           0        4.092063   -2.041019    0.238224
 ---------------------------------------------------------------------

 SCF Done:  E(UB3LYP) =  -940.751051267     A.U. after   33 cycles
 SCF Done:  E(UB3LYP) =  -940.751051267     a.u. after    1 cycles

 The electronic state is 2-A.
 Alpha  occ. eigenvalues --  -88.73214 -19.02479 -18.99253 -10.13747 -10.11749
 Alpha  occ. eigenvalues --  -10.11597 -10.11544 -10.08928 -10.07950 -10.07133
 Alpha  occ. eigenvalues --  -10.07010 -10.06908 -10.06881  -7.81842  -5.78257
 Alpha  occ. eigenvalues --   -5.77881  -5.77176  -0.93998  -0.93070  -0.73154
 Alpha  occ. eigenvalues --   -0.70671  -0.66706  -0.65286  -0.59924  -0.56756
 Alpha  occ. eigenvalues --   -0.54419  -0.54051  -0.50117  -0.47495  -0.42015
 Alpha  occ. eigenvalues --   -0.38726  -0.38026  -0.36142  -0.35925  -0.34983
 Alpha  occ. eigenvalues --   -0.34802  -0.33194  -0.33164  -0.32107  -0.31218
 Alpha  occ. eigenvalues --   -0.30605  -0.29944  -0.29095  -0.27967  -0.26888
 Alpha  occ. eigenvalues --   -0.25961  -0.25692  -0.24107  -0.23450  -0.22315
 Alpha  occ. eigenvalues --   -0.21189  -0.20232  -0.16513  -0.13310  -0.12098
 Alpha  occ. eigenvalues --    0.04688
 Alpha virt. eigenvalues --    0.06613   0.06942   0.07332   0.08068   0.08869
 Alpha virt. eigenvalues --    0.09561   0.09729   0.10370   0.11068   0.11630
 Alpha virt. eigenvalues --    0.12058   0.12222   0.12669   0.13146   0.13608

  Beta  occ. eigenvalues --  -88.73210 -19.02474 -18.99084 -10.13539 -10.11760
  Beta  occ. eigenvalues --  -10.11572 -10.11523 -10.08913 -10.07964 -10.07117
  Beta  occ. eigenvalues --  -10.06997 -10.06868 -10.06832  -7.81839  -5.78255
  Beta  occ. eigenvalues --   -5.77871  -5.77172  -0.93981  -0.92734  -0.73077
  Beta  occ. eigenvalues --   -0.70618  -0.66658  -0.65249  -0.59863  -0.56576
  Beta  occ. eigenvalues --   -0.54365  -0.53989  -0.49931  -0.47434  -0.41891
  Beta  occ. eigenvalues --   -0.38649  -0.37990  -0.36072  -0.35853  -0.34766
  Beta  occ. eigenvalues --   -0.34679  -0.33147  -0.33078  -0.32052  -0.31150
  Beta  occ. eigenvalues --   -0.30486  -0.29887  -0.29037  -0.27849  -0.26610
  Beta  occ. eigenvalues --   -0.25915  -0.25432  -0.24046  -0.23353  -0.22026
  Beta  occ. eigenvalues --   -0.21124  -0.20185  -0.16463  -0.13187  -0.12069
  Beta virt. eigenvalues --    0.06860   0.07504   0.07968   0.08476   0.08615
  Beta virt. eigenvalues --    0.09348   0.09950   0.10120   0.10885   0.11336
  Beta virt. eigenvalues --    0.12090   0.12307   0.12533   0.12711   0.13218

 Mulliken charges and spin densities:
               1          2
     1  C    0.188042  -0.831951
     2  C    0.826987   0.748334
     3  C   -0.062091  -0.817969
     4  C   -0.665922  -0.242175
     5  O   -0.226429   0.059288
     6  C    0.720028  -0.438619
     7  C   -0.734656   0.684824
     8  C    1.117913  -1.813561
     9  O   -0.164691   0.074282
    10  C    0.684683  -1.256146
    11  C   -0.806239   0.656061
    12  S   -0.354503   0.246529
    13  C   -0.215928  -0.360593
    14  H   -0.685729   0.838565
    15  H    0.137596   0.054946
    16  H   -0.175169   0.332471
    17  H   -0.003592   0.119706
    18  H   -0.073034   0.219169
    19  H    0.181084  -0.012242
    20  H    0.256571  -0.014696
    21  H    0.202402  -0.037004
    22  H   -0.282230   0.442015
    23  H   -0.490170   0.691603
    24  H   -0.030938   0.152731
    25  H    0.054522   0.064011
    26  H   -0.606510   0.807061
    27  H   -0.061707   0.233120
    28  H    0.113833   0.048440
    29  H   -0.002489   0.138688
    30  H    0.118928   0.091458
    31  H    0.039435   0.121658
 Sum of Mulliken charges =  -1.00000   1.00000

 Dipole moment (field-independent basis, Debye):
    X=              3.2920    Y=             -1.7651    Z=             -0.1618  Tot=              3.7388
 Quadrupole moment (field-independent basis, Debye-Ang):
   XX=           -153.3515   YY=           -137.4579   ZZ=           -119.4893
   XY=             -0.6912   XZ=              8.2890   YZ=              2.3943

 Summary of Natural Population Analysis:

                                       Natural Population
                Natural  -----------------------------------------------
    Atom  No    Charge         Core      Valence    Rydberg      Total
 -----------------------------------------------------------------------
      C    1   -0.28688      0.99961     2.27929    0.00798     3.28688
      C    2   -0.13295      0.99953     2.11727    0.01615     3.13295
      C    3   -0.28987      0.99960     2.28254    0.00772     3.28987
      C    4    0.32582      0.99956     1.65037    0.02426     2.67418
      O    5   -0.27740      0.99988     3.27114    0.00638     4.27740
      C    6   -0.15428      0.99954     2.14217    0.01257     3.15428
      C    7   -0.20553      0.99961     2.19591    0.01002     3.20553
      C    8   -0.00543      0.99958     1.99276    0.01309     3.00543
      O    9   -0.29979      0.99989     3.29035    0.00955     4.29979
      C   10   -0.00704      0.99958     1.99444    0.01302     3.00704
      C   11   -0.19892      0.99960     2.19059    0.00873     3.19892
      S   12    0.09985      4.99959     2.88387    0.01669     7.90015
      C   13   -0.35691      0.99962     2.35087    0.00643     3.35691
      H   14    0.10777      0.00000     0.39089    0.00134     0.39223
      H   15    0.10708      0.00000     0.39172    0.00119     0.39292
      H   16    0.10411      0.00000     0.39455    0.00134     0.39589
      H   17    0.10166      0.00000     0.39687    0.00147     0.39834
      H   18    0.10094      0.00000     0.39782    0.00123     0.39906
      H   19    0.10430      0.00000     0.39429    0.00142     0.39570
      H   20    0.10612      0.00000     0.39172    0.00216     0.39388
      H   21    0.09785      0.00000     0.40027    0.00188     0.40215
      H   22    0.10586      0.00000     0.39241    0.00173     0.39414
      H   23    0.09335      0.00000     0.40517    0.00148     0.40665
      H   24    0.07410      0.00000     0.42438    0.00152     0.42590
      H   25    0.07434      0.00000     0.42417    0.00150     0.42566
      H   26    0.09400      0.00000     0.40411    0.00189     0.40600
      H   27    0.10435      0.00000     0.39431    0.00134     0.39565
      H   28    0.09903      0.00000     0.39937    0.00160     0.40097
      H   29    0.09848      0.00000     0.39999    0.00153     0.40152
      H   30    0.11283      0.00000     0.38559    0.00158     0.38717
      H   31    0.10320      0.00000     0.39607    0.00073     0.39680
 =======================================================================
   * Total *    0.00000     16.99518    37.82528    0.17954    55.00000

 Normal termination of Gaussian 16 at Wed Dec  9 23:18:37 2020.
