 Gaussian 16, Revision A.03,

 -----------------------------------------------------------
 # opt freq B3LYP/6-31G(d) empiricaldispersion=gd3bj scf=xqc
 -----------------------------------------------------------

 ------------------------------
 CID_79617864_JID_6454_neutraal
 ------------------------------
 Symbolic Z-matrix:
 Charge =  0 Multiplicity = 1

 SCF Done:  E(RB3LYP) =  -708.219325964     A.U. after   14 cycles
 SCF Done:  E(RB3LYP) =  -708.224887391     A.U. after   12 cycles
 SCF Done:  E(RB3LYP) =  -708.225447346     A.U. after   13 cycles
 SCF Done:  E(RB3LYP) =  -708.226279394     A.U. after   13 cycles
 SCF Done:  E(RB3LYP) =  -708.226513279     A.U. after   12 cycles
 SCF Done:  E(RB3LYP) =  -708.226604557     A.U. after   12 cycles
 SCF Done:  E(RB3LYP) =  -708.226636783     A.U. after   10 cycles
 SCF Done:  E(RB3LYP) =  -708.226659698     A.U. after   10 cycles
 SCF Done:  E(RB3LYP) =  -708.226676264     A.U. after   10 cycles
 SCF Done:  E(RB3LYP) =  -708.226679207     A.U. after    8 cycles
 SCF Done:  E(RB3LYP) =  -708.226695661     A.U. after   10 cycles
 SCF Done:  E(RB3LYP) =  -708.226697156     A.U. after    9 cycles
 SCF Done:  E(RB3LYP) =  -708.226697186     A.U. after    7 cycles
 SCF Done:  E(RB3LYP) =  -708.226697181     A.U. after    6 cycles
 Optimization completed on the basis of negligible forces.
    -- Stationary point found.
 Normal termination of Gaussian 16 at Thu Dec 10 23:26:12 2020.

 --------------------------------------------------------------------
 #N Geom=AllCheck Guess=TCheck SCRF=Check GenChk RB3LYP/6-31G(d) Freq
 --------------------------------------------------------------------

 Structure from the checkpoint file:  "JID_6454.chk"
 ------------------------------
 CID_79617864_JID_6454_neutraal
 ------------------------------
 Charge =  0 Multiplicity = 1

 SCF Done:  E(RB3LYP) =  -708.226697181     A.U. after    1 cycles

  Exact polarizability: 170.179  14.382 131.480   7.093  -5.894 120.856
 Approx polarizability: 217.064  30.401 205.589  12.269 -16.697 192.096

                      1                      2                      3
                      A                      A                      A
 Frequencies --     21.4521                36.3314                50.0589
 Red. masses --      4.0767                 3.7945                 1.3076
 Frc consts  --      0.0011                 0.0030                 0.0019
 IR Inten    --      0.7915                 0.5815                 0.1195

                      4                      5                      6
                      A                      A                      A
 Frequencies --     59.6876                89.6301                99.6604
 Red. masses --      2.5288                 3.7102                 5.9927
 Frc consts  --      0.0053                 0.0176                 0.0351
 IR Inten    --      1.6722                 0.5802                 4.3018

                      7                      8                      9
                      A                      A                      A
 Frequencies --    115.5536               168.6807               214.5212
 Red. masses --      3.1019                 3.2312                 2.6941
 Frc consts  --      0.0244                 0.0542                 0.0730
 IR Inten    --      0.6915                 2.5422                 1.1736

                     10                     11                     12
                      A                      A                      A
 Frequencies --    249.3512               264.7356               283.2884
 Red. masses --      2.0383                 4.0810                 1.9080
 Frc consts  --      0.0747                 0.1685                 0.0902
 IR Inten    --      0.8916                 0.8320                 0.6930

                     13                     14                     15
                      A                      A                      A
 Frequencies --    298.7830               321.0286               358.4807
 Red. masses --      2.4982                 1.7944                 2.2822
 Frc consts  --      0.1314                 0.1090                 0.1728
 IR Inten    --      2.9520                 2.8976                 0.1050

                     16                     17                     18
                      A                      A                      A
 Frequencies --    383.9959               406.1263               437.5158
 Red. masses --      2.6368                 2.7613                 3.0003
 Frc consts  --      0.2291                 0.2683                 0.3384
 IR Inten    --      2.3141                 1.4947                 3.2595

                     19                     20                     21
                      A                      A                      A
 Frequencies --    456.4956               475.8649               523.9591
 Red. masses --      1.9085                 3.3678                 3.0732
 Frc consts  --      0.2343                 0.4493                 0.4971
 IR Inten    --      7.0348                10.0077                 2.8244

                     22                     23                     24
                      A                      A                      A
 Frequencies --    600.4563               628.5456               658.4359
 Red. masses --      4.4229                 3.8959                 5.0066
 Frc consts  --      0.9396                 0.9068                 1.2789
 IR Inten    --      3.8830                 3.7816                 7.5812

                     25                     26                     27
                      A                      A                      A
 Frequencies --    704.1036               719.9332               735.2508
 Red. masses --      3.2829                 2.5911                 2.9362
 Frc consts  --      0.9589                 0.7913                 0.9352
 IR Inten    --      3.1148                 3.4342                 6.2515

                     28                     29                     30
                      A                      A                      A
 Frequencies --    768.4166               779.3130               794.5969
 Red. masses --      2.4566                 2.2028                 1.9119
 Frc consts  --      0.8546                 0.7882                 0.7112
 IR Inten    --      4.7146                11.2646                13.7474

                     31                     32                     33
                      A                      A                      A
 Frequencies --    850.1208               870.1224               875.7777
 Red. masses --      2.7171                 1.5906                 1.4481
 Frc consts  --      1.1570                 0.7095                 0.6544
 IR Inten    --      2.2662                 1.0609                17.2001

                     34                     35                     36
                      A                      A                      A
 Frequencies --    897.8046               927.9320               995.3457
 Red. masses --      1.9975                 2.2255                 1.9500
 Frc consts  --      0.9487                 1.1291                 1.1382
 IR Inten    --      2.6958                 1.7868                 1.9650

                     37                     38                     39
                      A                      A                      A
 Frequencies --   1001.0601              1007.6632              1036.9543
 Red. masses --      2.4403                 3.5499                 2.2346
 Frc consts  --      1.4408                 2.1237                 1.4157
 IR Inten    --      2.6428                43.5421                36.2482

                     40                     41                     42
                      A                      A                      A
 Frequencies --   1046.7598              1054.9859              1081.3758
 Red. masses --      1.9240                 3.0244                 1.5660
 Frc consts  --      1.2421                 1.9833                 1.0789
 IR Inten    --      2.1153                13.8797                 9.0878

                     43                     44                     45
                      A                      A                      A
 Frequencies --   1089.0577              1104.4340              1133.5957
 Red. masses --      1.7315                 1.9576                 1.3985
 Frc consts  --      1.2100                 1.4068                 1.0589
 IR Inten    --      2.2795                28.7594                11.4306

                     46                     47                     48
                      A                      A                      A
 Frequencies --   1158.4744              1163.6023              1178.4323
 Red. masses --      1.3243                 1.3306                 1.7524
 Frc consts  --      1.0472                 1.0615                 1.4338
 IR Inten    --      5.8147                10.4445                 2.8712

                     49                     50                     51
                      A                      A                      A
 Frequencies --   1185.9795              1199.4828              1226.5695
 Red. masses --      1.9538                 1.9554                 1.4597
 Frc consts  --      1.6191                 1.6576                 1.2939
 IR Inten    --      8.0527                27.2263                 4.4507

                     52                     53                     54
                      A                      A                      A
 Frequencies --   1251.7124              1253.2979              1268.3414
 Red. masses --      1.8418                 1.6890                 1.3074
 Frc consts  --      1.7002                 1.5631                 1.2392
 IR Inten    --     40.5639                12.5513                 5.0509

                     55                     56                     57
                      A                      A                      A
 Frequencies --   1291.9927              1312.5406              1326.8779
 Red. masses --      1.4573                 1.7199                 1.5322
 Frc consts  --      1.4333                 1.7457                 1.5894
 IR Inten    --      9.5681                22.2677                25.3497

                     58                     59                     60
                      A                      A                      A
 Frequencies --   1348.7835              1358.2387              1377.4189
 Red. masses --      3.0847                 1.6039                 1.3939
 Frc consts  --      3.3064                 1.7433                 1.5581
 IR Inten    --     10.5132                24.6968                 4.4959

                     61                     62                     63
                      A                      A                      A
 Frequencies --   1391.0762              1398.7537              1405.8994
 Red. masses --      1.4366                 1.8364                 1.8144
 Frc consts  --      1.6379                 2.1169                 2.1129
 IR Inten    --      1.7644                28.8297                13.2557

                     64                     65                     66
                      A                      A                      A
 Frequencies --   1426.3722              1444.5928              1452.0196
 Red. masses --      3.1130                 2.3793                 1.2960
 Frc consts  --      3.7316                 2.9255                 1.6099
 IR Inten    --      8.2497                46.7149                 3.3327

                     67                     68                     69
                      A                      A                      A
 Frequencies --   1471.0263              1482.9715              1491.6177
 Red. masses --      1.6550                 1.1050                 1.5521
 Frc consts  --      2.1100                 1.4318                 2.0346
 IR Inten    --      9.0092                 8.0137                 8.3389

                     70                     71                     72
                      A                      A                      A
 Frequencies --   1496.4331              1498.2879              1509.4124
 Red. masses --      1.1197                 1.3689                 1.0627
 Frc consts  --      1.4773                 1.8106                 1.4266
 IR Inten    --      2.9637                 3.9824                10.0199

                     73                     74                     75
                      A                      A                      A
 Frequencies --   1511.2091              1524.9829              1530.6446
 Red. masses --      1.0923                 1.0529                 1.0839
 Frc consts  --      1.4698                 1.4427                 1.4961
 IR Inten    --      3.9585                20.1678                 7.5962

                     76                     77                     78
                      A                      A                      A
 Frequencies --   1536.4380              1546.5831              1555.8307
 Red. masses --      1.0836                 1.1853                 1.0587
 Frc consts  --      1.5072                 1.6704                 1.5099
 IR Inten    --      0.0766                 5.5487                 6.3615

                     79                     80                     81
                      A                      A                      A
 Frequencies --   1624.8331              1811.8480              2923.4286
 Red. masses --      5.2335                10.8634                 1.0740
 Frc consts  --      8.1407                21.0117                 5.4080
 IR Inten    --     22.4390               182.8745                54.0141

                     82                     83                     84
                      A                      A                      A
 Frequencies --   2957.3323              3022.1551              3024.4979
 Red. masses --      1.0618                 1.0688                 1.0693
 Frc consts  --      5.4715                 5.7515                 5.7633
 IR Inten    --     94.3334                 5.1208                18.4037

                     85                     86                     87
                      A                      A                      A
 Frequencies --   3032.5877              3043.5795              3058.4874
 Red. masses --      1.0695                 1.0849                 1.0661
 Frc consts  --      5.7951                 5.9213                 5.8755
 IR Inten    --     22.9387                29.2876                36.9832

                     88                     89                     90
                      A                      A                      A
 Frequencies --   3064.6080              3073.4518              3081.1981
 Red. masses --      1.0375                 1.0784                 1.0929
 Frc consts  --      5.7408                 6.0019                 6.1130
 IR Inten    --     54.5408                54.9361                33.4985

                     91                     92                     93
                      A                      A                      A
 Frequencies --   3087.1634              3107.3568              3122.9775
 Red. masses --      1.0844                 1.0972                 1.0953
 Frc consts  --      6.0893                 6.2418                 6.2939
 IR Inten    --     16.2752                31.5364                24.5003

                     94                     95                     96
                      A                      A                      A
 Frequencies --   3134.3098              3136.7435              3159.7070
 Red. masses --      1.0937                 1.0992                 1.0948
 Frc consts  --      6.3305                 6.3721                 6.4400
 IR Inten    --      8.9975                16.6484                11.4551

                     97                     98                     99
                      A                      A                      A
 Frequencies --   3169.2420              3262.0311              3266.7134
 Red. masses --      1.1056                 1.0958                 1.0977
 Frc consts  --      6.5426                 6.8699                 6.9017
 IR Inten    --      8.1383                 3.7674                 0.6176

 - Thermochemistry -
 -------------------
 Temperature   298.150 Kelvin.  Pressure   1.00000 Atm.
 Atom     1 has atomic number  6 and mass  12.00000

 Molecular mass:   221.15281 amu.
 Principal axes and moments of inertia in atomic units:
                           1         2         3
     Eigenvalues --  1538.126777093.127937298.06615
           X            0.99997   0.00283   0.00732
           Y           -0.00328   0.99805   0.06233
           Z           -0.00713  -0.06235   0.99803
 This molecule is an asymmetric top.
 Rotational symmetry number  1.
 Warning -- assumption of classical behavior for rotation
           may cause significant error
 Rotational temperatures (Kelvin)      0.05631     0.01221     0.01187
 Rotational constants (GHZ):           1.17334     0.25444     0.24729
 Zero-point vibrational energy     803994.5 (Joules/Mol)
                                  192.15931 (Kcal/Mol)
 Warning -- explicit consideration of  22 degrees of freedom as
           vibrations may cause significant error
 Vibrational temperatures:     30.86    52.27    72.02    85.88   128.96
          (Kelvin)            143.39   166.26   242.69   308.65   358.76
                              380.90   407.59   429.88   461.89   515.77
                              552.48   584.33   629.49   656.80   684.66
                              753.86   863.92   904.34   947.34  1013.05
                             1035.82  1057.86  1105.58  1121.26  1143.25
                             1223.13  1251.91  1260.05  1291.74  1335.09
                             1432.08  1440.30  1449.80  1491.95  1506.05
                             1517.89  1555.86  1566.91  1589.03  1630.99
                             1666.79  1674.16  1695.50  1706.36  1725.79
                             1764.76  1800.94  1803.22  1824.86  1858.89
                             1888.45  1909.08  1940.60  1954.20  1981.80
                             2001.45  2012.49  2022.78  2052.23  2078.45
                             2089.13  2116.48  2133.67  2146.11  2153.03
                             2155.70  2171.71  2174.29  2194.11  2202.26
                             2210.59  2225.19  2238.49  2337.77  2606.85
                             4206.16  4254.94  4348.21  4351.58  4363.22
                             4379.03  4400.48  4409.29  4422.01  4433.16
                             4441.74  4470.79  4493.27  4509.57  4513.07
                             4546.11  4559.83  4693.34  4700.07

 Zero-point correction=                           0.306225 (Hartree/Particle)
 Thermal correction to Energy=                    0.321886
 Thermal correction to Enthalpy=                  0.322830
 Thermal correction to Gibbs Free Energy=         0.261332
 Sum of electronic and zero-point Energies=           -707.920472
 Sum of electronic and thermal Energies=              -707.904811
 Sum of electronic and thermal Enthalpies=            -707.903867
 Sum of electronic and thermal Free Energies=         -707.965365

                     E (Thermal)             CV                S
                      KCal/Mol        Cal/Mol-Kelvin    Cal/Mol-Kelvin
 Total                  201.986             59.000            129.434
 Electronic               0.000              0.000              0.000
 Translational            0.889              2.981             42.084
 Rotational               0.889              2.981             32.743
 Vibrational            200.209             53.038             54.607
 Vibration     1          0.593              1.985              6.495
 Vibration     2          0.594              1.982              5.450
 Vibration     3          0.595              1.978              4.815
 Vibration     4          0.597              1.974              4.467
 Vibration     5          0.602              1.957              3.668
 Vibration     6          0.604              1.949              3.461
 Vibration     7          0.608              1.937              3.173
 Vibration     8          0.625              1.881              2.450
 Vibration     9          0.644              1.819              2.005
 Vibration    10          0.662              1.764              1.735
 Vibration    11          0.671              1.738              1.630
 Vibration    12          0.682              1.705              1.514
 Vibration    13          0.692              1.676              1.424
 Vibration    14          0.706              1.633              1.305
 Vibration    15          0.733              1.558              1.129
 Vibration    16          0.753              1.504              1.023
 Vibration    17          0.771              1.457              0.940
 Vibration    18          0.798              1.388              0.834
 Vibration    19          0.815              1.347              0.776
 Vibration    20          0.833              1.304              0.721
 Vibration    21          0.879              1.197              0.601
 Vibration    22          0.959              1.031              0.449

 Optimization completed on the basis of negligible forces.
    -- Stationary point found.
 Normal termination of Gaussian 16 at Thu Dec 10 23:37:41 2020.

 ----------------------------------------------------------------------
 # B3LYP/6-311++G(d,p) empiricaldispersion=gd3bj scf=xqc pop=npa geom=c
 heck
 ----------------------------------------------------------------------

 --------------------------------------
 CID_79617864_JID_6454_Energie_neutraal
 --------------------------------------
 Structure from the checkpoint file:  "JID_6454.chk"
 Charge =  0 Multiplicity = 1

 SCF Done:  E(RB3LYP) =  -708.420751622     A.U. after   15 cycles
 Normal termination of Gaussian 16 at Thu Dec 10 23:42:44 2020.

 ----------------------------------------------------------------------
 # B3LYP/6-311++G(d,p) empiricaldispersion=gd3bj scf=xqc pop=npa geom=c
 heck
 ----------------------------------------------------------------------

 ------------------------------------
 CID_79617864_JID_6454_Energie_kation
 ------------------------------------
 Structure from the checkpoint file:  "JID_6454.chk"
 Charge =  1 Multiplicity = 2

 SCF Done:  E(UB3LYP) =  -708.133015494     A.U. after   33 cycles
 SCF Done:  E(UB3LYP) =  -708.133015494     a.u. after    1 cycles
 Normal termination of Gaussian 16 at Thu Dec 10 23:58:06 2020.
 Gaussian 16:  ES64L-G16RevA.03 25-Dec-2016

 ----------------------------------------------------------------------
 # B3LYP/6-311++G(d,p) empiricaldispersion=gd3bj scf=xqc pop=npa geom=c
 heck
 ----------------------------------------------------------------------

 -----------------------------------
 CID_79617864_JID_6454_Energie_anion
 -----------------------------------
 Structure from the checkpoint file:  "JID_6454.chk"
 Charge = -1 Multiplicity = 2

                         Standard orientation:
 ---------------------------------------------------------------------
 Center     Atomic      Atomic             Coordinates (Angstroms)
 Number     Number       Type             X           Y           Z
 ---------------------------------------------------------------------
      1          6           0       -4.911071   -1.267017   -0.448415
      2          7           0       -3.795267   -0.371220   -0.226223
      3          6           0       -2.839229   -0.444937    0.739048
      4          6           0       -1.939565    0.579826    0.501491
      5          6           0       -2.446640    1.213592   -0.659869
      6          7           0       -3.563887    0.635457   -1.100017
      7          6           0       -0.723810    0.948309    1.296015
      8          7           0        0.486681    1.043143    0.479703
      9          6           0        1.564520    1.681892    1.220367
     10          6           0        0.802490   -0.182020   -0.267490
     11          6           0        1.188864   -1.436060    0.557819
     12          6           0        2.647344   -1.473415    1.032581
     13          6           0        3.627039   -1.284037   -0.141108
     14          6           0        3.301463   -0.024378   -0.925690
     15          8           0        4.141305    0.816977   -1.190140
     16          6           0        1.852626    0.097586   -1.368667
     17          1           0       -5.782646   -0.679721   -0.743772
     18          1           0       -4.683559   -1.989984   -1.239423
     19          1           0       -5.129125   -1.802347    0.478409
     20          1           0       -2.871852   -1.198611    1.513542
     21          1           0       -2.032367    2.064076   -1.184712
     22          1           0       -0.866579    1.937496    1.750583
     23          1           0       -0.612835    0.243995    2.144070
     24          1           0        1.839971    1.162584    2.156473
     25          1           0        2.458163    1.770542    0.600109
     26          1           0        1.251378    2.696535    1.493361
     27          1           0       -0.131387   -0.425559   -0.781597
     28          1           0        1.006333   -2.316511   -0.075459
     29          1           0        0.510759   -1.534434    1.413612
     30          1           0        2.853676   -2.429902    1.527625
     31          1           0        2.827310   -0.693902    1.779695
     32          1           0        3.531247   -2.140967   -0.825196
     33          1           0        4.667249   -1.232910    0.191860
     34          1           0        1.687556    1.082454   -1.811922
     35          1           0        1.709395   -0.656376   -2.156866
 ---------------------------------------------------------------------

 SCF Done:  E(UB3LYP) =  -708.415989848     A.U. after   33 cycles
 SCF Done:  E(UB3LYP) =  -708.415989848     a.u. after    1 cycles

 The electronic state is 2-A.
 Alpha  occ. eigenvalues --  -18.99934 -14.29679 -14.23496 -14.21205 -10.14262
 Alpha  occ. eigenvalues --  -10.11903 -10.11011 -10.10948 -10.10363 -10.09518
 Alpha  occ. eigenvalues --  -10.09324 -10.07730 -10.07458 -10.07284 -10.07112
 Alpha  occ. eigenvalues --  -10.06682  -0.95682  -0.93306  -0.83381  -0.74991
 Alpha  occ. eigenvalues --   -0.72267  -0.70117  -0.65590  -0.63374  -0.62492
 Alpha  occ. eigenvalues --   -0.59214  -0.56257  -0.51447  -0.50016  -0.47931
 Alpha  occ. eigenvalues --   -0.46763  -0.43520  -0.42044  -0.39256  -0.38488
 Alpha  occ. eigenvalues --   -0.38155  -0.37051  -0.36432  -0.34981  -0.34390
 Alpha  occ. eigenvalues --   -0.33503  -0.32699  -0.31794  -0.31456  -0.30829
 Alpha  occ. eigenvalues --   -0.30320  -0.29964  -0.29001  -0.28354  -0.27350
 Alpha  occ. eigenvalues --   -0.26566  -0.25676  -0.24240  -0.22893  -0.22494
 Alpha  occ. eigenvalues --   -0.20176  -0.16318  -0.15032  -0.13849  -0.12061
 Alpha  occ. eigenvalues --    0.03733
 Alpha virt. eigenvalues --    0.05639   0.06968   0.07636   0.07996   0.08300
 Alpha virt. eigenvalues --    0.08896   0.09534   0.09740   0.09989   0.10423
 Alpha virt. eigenvalues --    0.11111   0.11372   0.11583   0.12203   0.12921

  Beta  occ. eigenvalues --  -18.99803 -14.29679 -14.23490 -14.21207 -10.14123
  Beta  occ. eigenvalues --  -10.11859 -10.10988 -10.10939 -10.10353 -10.09512
  Beta  occ. eigenvalues --  -10.09321 -10.07731 -10.07435 -10.07286 -10.07118
  Beta  occ. eigenvalues --  -10.06654  -0.95675  -0.93047  -0.83374  -0.74975
  Beta  occ. eigenvalues --   -0.72192  -0.70097  -0.65552  -0.63341  -0.62363
  Beta  occ. eigenvalues --   -0.59174  -0.56227  -0.51388  -0.49967  -0.47884
  Beta  occ. eigenvalues --   -0.46669  -0.43393  -0.41949  -0.39208  -0.38454
  Beta  occ. eigenvalues --   -0.38112  -0.37009  -0.36360  -0.34947  -0.34296
  Beta  occ. eigenvalues --   -0.33336  -0.32617  -0.31719  -0.31404  -0.30794
  Beta  occ. eigenvalues --   -0.30273  -0.29874  -0.28957  -0.28329  -0.27300
  Beta  occ. eigenvalues --   -0.26469  -0.25438  -0.24171  -0.22812  -0.22260
  Beta  occ. eigenvalues --   -0.20162  -0.16305  -0.15010  -0.13752  -0.12051
  Beta virt. eigenvalues --    0.06244   0.06888   0.07264   0.08132   0.08476
  Beta virt. eigenvalues --    0.08678   0.09417   0.09709   0.09905   0.10462
  Beta virt. eigenvalues --    0.10704   0.11343   0.11653   0.11841   0.12328

 Mulliken charges and spin densities:
               1          2
     1  C    1.103119  -1.397295
     2  N    0.192739  -0.021269
     3  C   -0.958586   0.743190
     4  C    0.232332   0.187966
     5  C   -0.267682   0.287344
     6  N   -0.361188   0.236336
     7  C    0.878545  -2.014208
     8  N    0.246254   0.058163
     9  C    0.019591  -0.320776
    10  C   -0.331374   0.331656
    11  C    0.099670  -0.749331
    12  C   -0.126031   0.010269
    13  C    0.233746  -0.729274
    14  C   -0.260240   0.382560
    15  O   -0.280055   0.046334
    16  C   -0.132991  -0.427246
    17  H   -0.074526   0.233573
    18  H   -0.204957   0.385503
    19  H   -0.570917   0.727902
    20  H   -0.928667   1.133510
    21  H    0.113264   0.034250
    22  H    0.096980   0.054817
    23  H    0.060722   0.079301
    24  H    0.026931   0.087748
    25  H    0.210190  -0.042720
    26  H    0.150810  -0.013078
    27  H    0.365577  -0.178205
    28  H   -0.374099   0.560548
    29  H    0.010984   0.114018
    30  H   -0.403585   0.610086
    31  H    0.114231  -0.019480
    32  H   -0.050735   0.207219
    33  H    0.123494   0.060119
    34  H    0.208357  -0.000003
    35  H   -0.161905   0.340476
 Sum of Mulliken charges =  -1.00000   1.00000

 Dipole moment (field-independent basis, Debye):
    X=              1.7244    Y=              5.1676    Z=              1.0219  Tot=              5.5427
 Quadrupole moment (field-independent basis, Debye-Ang):
   XX=           -191.8489   YY=           -142.6005   ZZ=           -130.1484
   XY=            -11.0634   XZ=              9.1998   YZ=              8.4042

 Summary of Natural Population Analysis:

                                       Natural Population
                Natural  -----------------------------------------------
    Atom  No    Charge         Core      Valence    Rydberg      Total
 -----------------------------------------------------------------------
      C    1   -0.17132      0.99964     2.16329    0.00838     3.17132
      N    2   -0.10636      0.99967     2.59377    0.01291     3.60636
      C    3   -0.00000      0.99948     1.98865    0.01187     3.00000
      C    4   -0.08251      0.99952     2.07233    0.01067     3.08251
      C    5   -0.00710      0.99957     1.99402    0.01352     3.00710
      N    6   -0.15373      0.99973     2.64247    0.01153     3.65373
      C    7   -0.08881      0.99958     2.07844    0.01080     3.08881
      N    8   -0.27776      0.99971     2.76729    0.01076     3.77776
      C    9   -0.17894      0.99964     2.17279    0.00651     3.17894
      C   10   -0.00373      0.99956     1.98892    0.01525     3.00373
      C   11   -0.20164      0.99960     2.19224    0.00980     3.20164
      C   12   -0.18947      0.99962     2.18117    0.00869     3.18947
      C   13   -0.23670      0.99958     2.22840    0.00872     3.23670
      C   14    0.30838      0.99965     1.67027    0.02170     2.69162
      O   15   -0.28656      0.99987     3.28003    0.00665     4.28656
      C   16   -0.24336      0.99956     2.23394    0.00987     3.24336
      H   17    0.10271      0.00000     0.39590    0.00139     0.39729
      H   18    0.09977      0.00000     0.39887    0.00136     0.40023
      H   19    0.10398      0.00000     0.39370    0.00232     0.39602
      H   20    0.10869      0.00000     0.38926    0.00205     0.39131
      H   21    0.09929      0.00000     0.39966    0.00104     0.40071
      H   22    0.09816      0.00000     0.40075    0.00109     0.40184
      H   23    0.08559      0.00000     0.41265    0.00175     0.41441
      H   24    0.07783      0.00000     0.42081    0.00136     0.42217
      H   25    0.10499      0.00000     0.39405    0.00096     0.39501
      H   26    0.09102      0.00000     0.40806    0.00093     0.40898
      H   27    0.10595      0.00000     0.39142    0.00263     0.39405
      H   28    0.10251      0.00000     0.39537    0.00212     0.39749
      H   29    0.10240      0.00000     0.39613    0.00147     0.39760
      H   30    0.10218      0.00000     0.39645    0.00136     0.39782
      H   31    0.09331      0.00000     0.40508    0.00161     0.40669
      H   32    0.10845      0.00000     0.38974    0.00181     0.39155
      H   33    0.10539      0.00000     0.39365    0.00096     0.39461
      H   34    0.11199      0.00000     0.38679    0.00122     0.38801
      H   35    0.11540      0.00000     0.38335    0.00124     0.38460
 =======================================================================
   * Total *   -0.00000     15.99397    43.79971    0.20632    60.00000

 Normal termination of Gaussian 16 at Fri Dec 11 00:12:57 2020.
