 Gaussian 16, Revision A.03,

 -----------------------------------------------------------
 # opt freq B3LYP/6-31G(d) empiricaldispersion=gd3bj scf=xqc
 -----------------------------------------------------------

 ------------------------------
 CID_70507088_JID_6453_neutraal
 ------------------------------
 Symbolic Z-matrix:
 Charge =  0 Multiplicity = 1

 SCF Done:  E(RB3LYP) =  -1012.75651685     A.U. after   15 cycles
 SCF Done:  E(RB3LYP) =  -1012.76041661     A.U. after   13 cycles
 SCF Done:  E(RB3LYP) =  -1012.76101631     A.U. after   13 cycles
 SCF Done:  E(RB3LYP) =  -1012.76259993     A.U. after   13 cycles
 SCF Done:  E(RB3LYP) =  -1012.76320033     A.U. after   12 cycles
 SCF Done:  E(RB3LYP) =  -1012.76348994     A.U. after   12 cycles
 SCF Done:  E(RB3LYP) =  -1012.76362782     A.U. after   11 cycles
 SCF Done:  E(RB3LYP) =  -1012.76398142     A.U. after   12 cycles
 SCF Done:  E(RB3LYP) =  -1012.76413890     A.U. after   13 cycles
 SCF Done:  E(RB3LYP) =  -1012.76459422     A.U. after   11 cycles
 SCF Done:  E(RB3LYP) =  -1012.76576437     A.U. after   11 cycles
 SCF Done:  E(RB3LYP) =  -1012.76579348     A.U. after   11 cycles
 SCF Done:  E(RB3LYP) =  -1012.76579539     A.U. after    9 cycles
 SCF Done:  E(RB3LYP) =  -1012.76579620     A.U. after    9 cycles
 SCF Done:  E(RB3LYP) =  -1012.76579647     A.U. after    9 cycles
 SCF Done:  E(RB3LYP) =  -1012.76579649     A.U. after    8 cycles
 Optimization completed.
    -- Stationary point found.
 Normal termination of Gaussian 16 at Thu Dec 10 23:08:02 2020.

 --------------------------------------------------------------------
 #N Geom=AllCheck Guess=TCheck SCRF=Check GenChk RB3LYP/6-31G(d) Freq
 --------------------------------------------------------------------

 Structure from the checkpoint file:  "JID_6453.chk"
 ------------------------------
 CID_70507088_JID_6453_neutraal
 ------------------------------
 Charge =  0 Multiplicity = 1

 SCF Done:  E(RB3LYP) =  -1012.76579649     A.U. after    1 cycles

  Exact polarizability: 278.141 -25.663 145.386   9.499  19.905 112.396
 Approx polarizability: 380.885 -56.397 240.017  17.023  52.571 189.901

                      1                      2                      3
                      A                      A                      A
 Frequencies --     25.9215                29.5580                48.7652
 Red. masses --      3.6775                 4.8504                 2.7050
 Frc consts  --      0.0015                 0.0025                 0.0038
 IR Inten    --      1.6022                 1.1154                 0.2488

                      4                      5                      6
                      A                      A                      A
 Frequencies --     65.6372                85.5655                93.2570
 Red. masses --      5.5762                 5.6827                 4.5033
 Frc consts  --      0.0142                 0.0245                 0.0231
 IR Inten    --      2.8466                 3.3252                 1.3961

                      7                      8                      9
                      A                      A                      A
 Frequencies --    142.0076               178.8817               199.9774
 Red. masses --      5.2285                 4.5587                 3.9285
 Frc consts  --      0.0621                 0.0859                 0.0926
 IR Inten    --      4.5512                 0.8468                 1.1182

                     10                     11                     12
                      A                      A                      A
 Frequencies --    217.8351               237.5357               239.5174
 Red. masses --      2.5171                 3.8393                 1.3610
 Frc consts  --      0.0704                 0.1276                 0.0460
 IR Inten    --      1.6166                 0.1520                 0.3388

                     13                     14                     15
                      A                      A                      A
 Frequencies --    271.5695               302.5893               323.7909
 Red. masses --      1.1425                 4.8041                 4.2208
 Frc consts  --      0.0496                 0.2592                 0.2607
 IR Inten    --      0.0966                 2.6704                 0.6269

                     16                     17                     18
                      A                      A                      A
 Frequencies --    359.2731               402.5115               415.6894
 Red. masses --      2.8719                 2.4489                 2.6952
 Frc consts  --      0.2184                 0.2338                 0.2744
 IR Inten    --      0.3610                 8.2398                 1.3876

                     19                     20                     21
                      A                      A                      A
 Frequencies --    418.9241               439.4074               451.2128
 Red. masses --      2.3561                 2.0968                 2.7780
 Frc consts  --      0.2436                 0.2385                 0.3332
 IR Inten    --      3.7240                12.9235                17.9283

                     22                     23                     24
                      A                      A                      A
 Frequencies --    472.2628               514.5129               533.6086
 Red. masses --      2.3874                 3.7785                 5.5076
 Frc consts  --      0.3137                 0.5893                 0.9240
 IR Inten    --     35.3852                19.9187                11.5623

                     25                     26                     27
                      A                      A                      A
 Frequencies --    555.2234               581.5788               649.6177
 Red. masses --      2.9684                 1.5439                 6.7553
 Frc consts  --      0.5391                 0.3077                 1.6796
 IR Inten    --     52.1270               139.8913                 1.6600

                     28                     29                     30
                      A                      A                      A
 Frequencies --    693.6576               716.0121               725.8342
 Red. masses --      2.5387                 4.7305                 3.2774
 Frc consts  --      0.7197                 1.4289                 1.0173
 IR Inten    --     32.1750                 8.7383                 9.1307

                     31                     32                     33
                      A                      A                      A
 Frequencies --    730.9697               756.8164               825.0365
 Red. masses --      2.5722                 2.5326                 2.8023
 Frc consts  --      0.8097                 0.8547                 1.1239
 IR Inten    --      8.4809                32.7667                 1.2984

                     34                     35                     36
                      A                      A                      A
 Frequencies --    837.7102               849.6060               858.6454
 Red. masses --      3.4350                 1.4961                 1.4094
 Frc consts  --      1.4202                 0.6363                 0.6122
 IR Inten    --      8.4595                16.1400                18.2781

                     37                     38                     39
                      A                      A                      A
 Frequencies --    868.7518               941.9698               963.5435
 Red. masses --      1.5088                 1.2237                 1.9441
 Frc consts  --      0.6709                 0.6397                 1.0635
 IR Inten    --      1.1736                 3.7747                 3.5898

                     40                     41                     42
                      A                      A                      A
 Frequencies --    975.0567               980.0446               982.9808
 Red. masses --      1.3471                 1.4472                 1.3067
 Frc consts  --      0.7546                 0.8189                 0.7439
 IR Inten    --      1.0591                 0.5245                 0.2616

                     43                     44                     45
                      A                      A                      A
 Frequencies --   1012.3983              1037.5460              1112.3364
 Red. masses --      5.4679                 3.3551                 1.5135
 Frc consts  --      3.3019                 2.1280                 1.1033
 IR Inten    --      3.1432                14.3038                18.2157

                     46                     47                     48
                      A                      A                      A
 Frequencies --   1116.6539              1124.5396              1140.7913
 Red. masses --      3.1430                 1.8725                 2.0404
 Frc consts  --      2.3091                 1.3951                 1.5645
 IR Inten    --     10.9534                13.7082                 1.3499

                     49                     50                     51
                      A                      A                      A
 Frequencies --   1153.4372              1184.5609              1205.3712
 Red. masses --      1.3761                 1.6385                 1.7468
 Frc consts  --      1.0787                 1.3546                 1.4953
 IR Inten    --      2.7754                 1.1077                 6.1083

                     52                     53                     54
                      A                      A                      A
 Frequencies --   1224.8444              1266.5973              1298.7551
 Red. masses --      1.1724                 1.3884                 1.2186
 Frc consts  --      1.0363                 1.3124                 1.2111
 IR Inten    --      6.1990                 5.4118                14.6588

                     55                     56                     57
                      A                      A                      A
 Frequencies --   1310.9520              1336.2168              1343.6548
 Red. masses --      1.8806                 2.6451                 1.7592
 Frc consts  --      1.9042                 2.7826                 1.8713
 IR Inten    --      5.6479                 4.7527                 1.5431

                     58                     59                     60
                      A                      A                      A
 Frequencies --   1370.1403              1393.3254              1430.8619
 Red. masses --      1.4015                 1.3652                 1.2577
 Frc consts  --      1.5501                 1.5615                 1.5171
 IR Inten    --      0.7552                 1.3354                 2.0145

                     61                     62                     63
                      A                      A                      A
 Frequencies --   1433.1442              1449.8019              1455.7618
 Red. masses --      2.9265                 1.2423                 2.8493
 Frc consts  --      3.5415                 1.5385                 3.5577
 IR Inten    --     24.6909                 5.7517                32.2827

                     64                     65                     66
                      A                      A                      A
 Frequencies --   1488.4558              1517.3970              1523.8484
 Red. masses --      1.0925                 1.0499                 1.0485
 Frc consts  --      1.4261                 1.4243                 1.4345
 IR Inten    --      3.5778                 2.7076                 3.4637

                     67                     68                     69
                      A                      A                      A
 Frequencies --   1534.0347              1540.8963              1544.4106
 Red. masses --      1.0585                 1.1615                 1.9219
 Frc consts  --      1.4676                 1.6248                 2.7008
 IR Inten    --      6.7596                10.0961                54.4449

                     70                     71                     72
                      A                      A                      A
 Frequencies --   1603.5091              1641.7180              1656.3793
 Red. masses --      6.1534                 2.9054                 5.5756
 Frc consts  --      9.3220                 4.6138                 9.0129
 IR Inten    --     21.3164               156.7288                35.2936

                     73                     74                     75
                      A                      A                      A
 Frequencies --   1697.3705              2312.4245              3037.9202
 Red. masses --      1.5125                12.5550                 1.0797
 Frc consts  --      2.5675                39.5551                 5.8708
 IR Inten    --    150.8415               130.2951                 7.9379

                     76                     77                     78
                      A                      A                      A
 Frequencies --   3040.3877              3050.0126              3071.3185
 Red. masses --      1.0383                 1.0407                 1.0587
 Frc consts  --      5.6551                 5.7039                 5.8840
 IR Inten    --     27.0164                19.5970                21.1188

                     79                     80                     81
                      A                      A                      A
 Frequencies --   3104.2283              3110.0447              3117.4801
 Red. masses --      1.1016                 1.1020                 1.1018
 Frc consts  --      6.2545                 6.2803                 6.3092
 IR Inten    --     14.3003                24.0220                44.8234

                     82                     83                     84
                      A                      A                      A
 Frequencies --   3120.3587              3143.2686              3201.1053
 Red. masses --      1.1046                 1.0990                 1.0875
 Frc consts  --      6.3366                 6.3976                 6.5655
 IR Inten    --     36.8275                21.8513                 8.7581

                     85                     86                     87
                      A                      A                      A
 Frequencies --   3202.7019              3216.2308              3218.1357
 Red. masses --      1.0872                 1.0940                 1.0945
 Frc consts  --      6.5702                 6.6675                 6.6787
 IR Inten    --      0.9897                11.2362                 2.3908

                     88                     89                     90
                      A                      A                      A
 Frequencies --   3242.9301              3552.2543              3662.1370
 Red. masses --      1.0890                 1.0475                 1.1002
 Frc consts  --      6.7477                 7.7881                 8.6933
 IR Inten    --      2.9466                30.4927                18.3911

 - Thermochemistry -
 -------------------
 Temperature   298.150 Kelvin.  Pressure   1.00000 Atm.
 Atom     1 has atomic number  6 and mass  12.00000

 Molecular mass:   232.10342 amu.
 Principal axes and moments of inertia in atomic units:
                           1         2         3
     Eigenvalues --  1700.774359540.63367**********
           X            0.99967   0.02564  -0.00095
           Y           -0.02562   0.99956   0.01464
           Z            0.00132  -0.01462   0.99989
 This molecule is an asymmetric top.
 Rotational symmetry number  1.
 Warning -- assumption of classical behavior for rotation
           may cause significant error
 Rotational temperatures (Kelvin)      0.05093     0.00908     0.00831
 Rotational constants (GHZ):           1.06113     0.18916     0.17309
 Zero-point vibrational energy     696917.5 (Joules/Mol)
                                  166.56729 (Kcal/Mol)
 Warning -- explicit consideration of  26 degrees of freedom as
           vibrations may cause significant error
 Vibrational temperatures:     37.30    42.53    70.16    94.44   123.11
          (Kelvin)            134.18   204.32   257.37   287.72   313.42
                              341.76   344.61   390.73   435.36   465.86
                              516.91   579.12   598.08   602.74   632.21
                              649.19   679.48   740.27   767.74   798.84
                              836.76   934.65   998.02  1030.18  1044.31
                             1051.70  1088.89  1187.04  1205.28  1222.39
                             1235.40  1249.94  1355.28  1386.32  1402.89
                             1410.07  1414.29  1456.62  1492.80  1600.40
                             1606.62  1617.96  1641.34  1659.54  1704.32
                             1734.26  1762.28  1822.35  1868.62  1886.17
                             1922.52  1933.22  1971.33  2004.68  2058.69
                             2061.97  2085.94  2094.52  2141.56  2183.20
                             2192.48  2207.13  2217.01  2222.06  2307.09
                             2362.07  2383.16  2442.14  3327.06  4370.89
                             4374.44  4388.29  4418.94  4466.29  4474.66
                             4485.36  4489.50  4522.46  4605.68  4607.97
                             4627.44  4630.18  4665.85  5110.90  5269.00

 Zero-point correction=                           0.265442 (Hartree/Particle)
 Thermal correction to Energy=                    0.282150
 Thermal correction to Enthalpy=                  0.283094
 Thermal correction to Gibbs Free Energy=         0.219510
 Sum of electronic and zero-point Energies=          -1012.500355
 Sum of electronic and thermal Energies=             -1012.483646
 Sum of electronic and thermal Enthalpies=           -1012.482702
 Sum of electronic and thermal Free Energies=        -1012.546287

                     E (Thermal)             CV                S
                      KCal/Mol        Cal/Mol-Kelvin    Cal/Mol-Kelvin
 Total                  177.052             62.620            133.825
 Electronic               0.000              0.000              0.000
 Translational            0.889              2.981             42.228
 Rotational               0.889              2.981             33.492
 Vibrational            175.274             56.659             58.105
 Vibration     1          0.593              1.985              6.119
 Vibration     2          0.593              1.984              5.859
 Vibration     3          0.595              1.978              4.867
 Vibration     4          0.597              1.971              4.280
 Vibration     5          0.601              1.959              3.759
 Vibration     6          0.602              1.954              3.591
 Vibration     7          0.615              1.911              2.777
 Vibration     8          0.629              1.868              2.340
 Vibration     9          0.638              1.840              2.133
 Vibration    10          0.646              1.814              1.977
 Vibration    11          0.656              1.783              1.821
 Vibration    12          0.657              1.780              1.806
 Vibration    13          0.675              1.726              1.586
 Vibration    14          0.694              1.669              1.403
 Vibration    15          0.708              1.628              1.291
 Vibration    16          0.734              1.556              1.125
 Vibration    17          0.768              1.465              0.953
 Vibration    18          0.779              1.436              0.907
 Vibration    19          0.782              1.429              0.896
 Vibration    20          0.799              1.384              0.828
 Vibration    21          0.810              1.358              0.792
 Vibration    22          0.829              1.312              0.731
 Vibration    23          0.870              1.218              0.623
 Vibration    24          0.889              1.176              0.579
 Vibration    25          0.911              1.128              0.533
 Vibration    26          0.938              1.071              0.482

 Optimization completed.
    -- Stationary point found.
 Normal termination of Gaussian 16 at Thu Dec 10 23:17:02 2020.

 ----------------------------------------------------------------------
 # B3LYP/6-311++G(d,p) empiricaldispersion=gd3bj scf=xqc pop=npa geom=c
 heck
 ----------------------------------------------------------------------

 --------------------------------------
 CID_70507088_JID_6453_Energie_neutraal
 --------------------------------------
 Structure from the checkpoint file:  "JID_6453.chk"
 Charge =  0 Multiplicity = 1

 SCF Done:  E(RB3LYP) =  -1012.96279540     A.U. after   17 cycles
 Normal termination of Gaussian 16 at Thu Dec 10 23:21:54 2020.

 ----------------------------------------------------------------------
 # B3LYP/6-311++G(d,p) empiricaldispersion=gd3bj scf=xqc pop=npa geom=c
 heck
 ----------------------------------------------------------------------

 ------------------------------------
 CID_70507088_JID_6453_Energie_kation
 ------------------------------------
 Structure from the checkpoint file:  "JID_6453.chk"
 Charge =  1 Multiplicity = 2

 SCF Done:  E(UB3LYP) =  -1012.68005829     A.U. after   25 cycles
 Normal termination of Gaussian 16 at Thu Dec 10 23:31:01 2020.
 Gaussian 16:  ES64L-G16RevA.03 25-Dec-2016

 ----------------------------------------------------------------------
 # B3LYP/6-311++G(d,p) empiricaldispersion=gd3bj scf=xqc pop=npa geom=c
 heck
 ----------------------------------------------------------------------

 -----------------------------------
 CID_70507088_JID_6453_Energie_anion
 -----------------------------------
 Structure from the checkpoint file:  "JID_6453.chk"
 Charge = -1 Multiplicity = 2

                         Standard orientation:
 ---------------------------------------------------------------------
 Center     Atomic      Atomic             Coordinates (Angstroms)
 Number     Number       Type             X           Y           Z
 ---------------------------------------------------------------------
      1          6           0        2.660968    1.403716   -1.260737
      2          6           0        3.918007    0.907237   -0.539497
      3          6           0        4.814979    2.084576   -0.129041
      4          6           0        3.598278    0.068996    0.706372
      5         16           0        2.736441   -1.527616    0.395633
      6          6           0        1.019367   -1.059215    0.267744
      7          6           0        0.399775   -0.195905    1.182443
      8          6           0       -0.950097    0.107925    1.060352
      9          6           0       -1.726706   -0.457152    0.036324
     10          6           0       -1.108899   -1.344337   -0.858269
     11          6           0        0.247923   -1.633348   -0.751295
     12          6           0       -3.162222   -0.136019   -0.091103
     13          6           0       -3.649703    1.100858    0.230772
     14          6           0       -5.036409    1.372829    0.166464
     15          7           0       -6.190911    1.535869    0.101325
     16          7           0       -3.958904   -1.129223   -0.613367
     17          1           0        2.033661    2.002860   -0.588828
     18          1           0        2.052807    0.575395   -1.632941
     19          1           0        2.934186    2.033377   -2.114771
     20          1           0        4.482400    0.266747   -1.230763
     21          1           0        4.291380    2.751067    0.568192
     22          1           0        5.734049    1.741195    0.359951
     23          1           0        5.100225    2.678586   -1.004256
     24          1           0        4.525570   -0.229405    1.206854
     25          1           0        3.021156    0.653046    1.430559
     26          1           0        0.967402    0.225097    2.005585
     27          1           0       -1.422332    0.758138    1.789906
     28          1           0       -1.687032   -1.769700   -1.672558
     29          1           0        0.721914   -2.289791   -1.474293
     30          1           0       -2.975313    1.907638    0.486045
     31          1           0       -3.709446   -2.080946   -0.379773
     32          1           0       -4.956538   -0.948943   -0.617910
 ---------------------------------------------------------------------

 SCF Done:  E(UB3LYP) =  -1012.98045671     A.U. after   25 cycles

 The electronic state is 2-A.
 Alpha  occ. eigenvalues --  -88.73015 -14.20196 -14.15606 -10.09644 -10.08902
 Alpha  occ. eigenvalues --  -10.08318 -10.08104 -10.06342 -10.06258 -10.06162
 Alpha  occ. eigenvalues --  -10.04965 -10.04959 -10.04577 -10.04197 -10.03969
 Alpha  occ. eigenvalues --  -10.03336  -7.81584  -5.77975  -5.77594  -5.76996
 Alpha  occ. eigenvalues --   -0.80666  -0.75690  -0.73960  -0.72317  -0.66977
 Alpha  occ. eigenvalues --   -0.63854  -0.62198  -0.60830  -0.59761  -0.55024
 Alpha  occ. eigenvalues --   -0.49841  -0.48753  -0.47067  -0.44678  -0.41792
 Alpha  occ. eigenvalues --   -0.39511  -0.38538  -0.35716  -0.35239  -0.33998
 Alpha  occ. eigenvalues --   -0.33031  -0.32644  -0.31082  -0.31075  -0.30034
 Alpha  occ. eigenvalues --   -0.29728  -0.27364  -0.26323  -0.26139  -0.25118
 Alpha  occ. eigenvalues --   -0.24460  -0.24070  -0.22971  -0.22297  -0.22014
 Alpha  occ. eigenvalues --   -0.20834  -0.19923  -0.19014  -0.15504  -0.13693
 Alpha  occ. eigenvalues --   -0.10950  -0.08716   0.03442
 Alpha virt. eigenvalues --    0.05953   0.08146   0.08403   0.08448   0.09324
 Alpha virt. eigenvalues --    0.10211   0.10433   0.10705   0.11096   0.11519
 Alpha virt. eigenvalues --    0.11881   0.12181   0.12961   0.13314   0.13870

  Beta  occ. eigenvalues --  -88.73015 -14.20126 -14.15411 -10.09582 -10.08898
  Beta  occ. eigenvalues --  -10.08096 -10.08045 -10.06270 -10.06163 -10.05966
  Beta  occ. eigenvalues --  -10.05019 -10.04977 -10.04493 -10.04048 -10.03761
  Beta  occ. eigenvalues --  -10.03216  -7.81583  -5.77977  -5.77605  -5.76979
  Beta  occ. eigenvalues --   -0.80345  -0.75407  -0.73682  -0.72180  -0.66623
  Beta  occ. eigenvalues --   -0.63521  -0.61924  -0.60485  -0.59751  -0.54742
  Beta  occ. eigenvalues --   -0.49387  -0.48640  -0.46979  -0.44344  -0.41676
  Beta  occ. eigenvalues --   -0.39333  -0.38455  -0.35606  -0.35171  -0.33889
  Beta  occ. eigenvalues --   -0.32820  -0.32416  -0.30984  -0.30945  -0.29984
  Beta  occ. eigenvalues --   -0.29656  -0.27191  -0.26040  -0.25541  -0.24905
  Beta  occ. eigenvalues --   -0.24100  -0.23654  -0.22587  -0.22110  -0.21718
  Beta  occ. eigenvalues --   -0.20221  -0.19431  -0.18887  -0.14661  -0.12960
  Beta  occ. eigenvalues --   -0.10150  -0.07536
  Beta virt. eigenvalues --    0.05858   0.07994   0.08308   0.08360   0.08721
  Beta virt. eigenvalues --    0.09235   0.10291   0.10526   0.10615   0.11183
  Beta virt. eigenvalues --    0.11511   0.11802   0.12325   0.12927   0.13786

 Mulliken charges and spin densities:
               1          2
     1  C   -0.680723   0.008329
     2  C    0.182508   0.115226
     3  C   -0.472596  -0.147904
     4  C   -0.165928  -0.143127
     5  S   -0.359034   0.085982
     6  C    1.418546   0.118029
     7  C   -0.748047   0.066028
     8  C   -0.996662   0.067395
     9  C    1.281960   0.076481
    10  C   -0.525709   0.198173
    11  C   -0.672288   0.005631
    12  C   -0.509609   0.085130
    13  C    0.480429   0.148671
    14  C   -0.879793  -0.022382
    15  N   -0.374265   0.097656
    16  N   -0.292265   0.042934
    17  H    0.142381   0.002525
    18  H    0.206649  -0.001716
    19  H    0.122957   0.002373
    20  H    0.138053  -0.003385
    21  H    0.128183   0.005418
    22  H    0.087812   0.028848
    23  H    0.082720   0.043766
    24  H    0.101425   0.104681
    25  H    0.150724  -0.022482
    26  H    0.096384   0.024604
    27  H    0.143209   0.002860
    28  H    0.154725   0.005253
    29  H    0.152181  -0.000905
    30  H    0.134302   0.001885
    31  H    0.213444   0.004191
    32  H    0.258326  -0.000169
 Sum of Mulliken charges =  -1.00000   1.00000

 Dipole moment (field-independent basis, Debye):
    X=             10.1175    Y=             -1.1332    Z=             -0.3843  Tot=             10.1880
 Quadrupole moment (field-independent basis, Debye-Ang):
   XX=           -209.1046   YY=           -121.8764   ZZ=           -116.1427
   XY=             28.3600   XZ=             -0.7810   YZ=              3.9798

 Summary of Natural Population Analysis:

                                       Natural Population
                Natural  -----------------------------------------------
    Atom  No    Charge         Core      Valence    Rydberg      Total
 -----------------------------------------------------------------------
      C    1   -0.28761      0.99965     2.28276    0.00520     3.28761
      C    2   -0.12016      0.99961     2.11151    0.00905     3.12016
      C    3   -0.28326      0.99965     2.27862    0.00499     3.28326
      C    4   -0.24209      0.99955     2.22973    0.01281     3.24209
      S    5    0.09965      4.99955     2.88110    0.01970     7.90035
      C    6   -0.03213      0.99939     2.01951    0.01323     3.03213
      C    7   -0.12042      0.99950     2.11116    0.00977     3.12042
      C    8   -0.06841      0.99953     2.06008    0.00880     3.06841
      C    9   -0.01522      0.99948     2.00589    0.00985     3.01522
      C   10   -0.06516      0.99953     2.05617    0.00946     3.06516
      C   11   -0.12306      0.99951     2.11444    0.00911     3.12306
      C   12    0.17185      0.99950     1.81707    0.01158     2.82815
      C   13   -0.21927      0.99941     2.21161    0.00825     3.21927
      C   14    0.13652      0.99967     1.84526    0.01855     2.86348
      N   15   -0.20469      0.99979     2.69326    0.01164     3.70469
      N   16   -0.38786      0.99970     2.87950    0.00866     3.88786
      H   17    0.09996      0.00000     0.39925    0.00079     0.40004
      H   18    0.11330      0.00000     0.38599    0.00071     0.38670
      H   19    0.09240      0.00000     0.40683    0.00077     0.40760
      H   20    0.09095      0.00000     0.40680    0.00225     0.40905
      H   21    0.09601      0.00000     0.40304    0.00095     0.40399
      H   22    0.09573      0.00000     0.40336    0.00091     0.40427
      H   23    0.09705      0.00000     0.40195    0.00100     0.40295
      H   24    0.10088      0.00000     0.39779    0.00133     0.39912
      H   25    0.10020      0.00000     0.39852    0.00128     0.39980
      H   26    0.09373      0.00000     0.40506    0.00122     0.40627
      H   27    0.09847      0.00000     0.40056    0.00097     0.40153
      H   28    0.09775      0.00000     0.40127    0.00099     0.40225
      H   29    0.09739      0.00000     0.40169    0.00092     0.40261
      H   30    0.11136      0.00000     0.38770    0.00094     0.38864
      H   31    0.18596      0.00000     0.31269    0.00135     0.31404
      H   32    0.19021      0.00000     0.30848    0.00131     0.30979
 =======================================================================
   * Total *   -0.00000     19.99303    41.81865    0.18832    62.00000

 Normal termination of Gaussian 16 at Thu Dec 10 23:40:21 2020.
