 Gaussian 16, Revision A.03,

 -----------------------------------------------------------
 # opt freq B3LYP/6-31G(d) empiricaldispersion=gd3bj scf=xqc
 -----------------------------------------------------------

 -------------------------------
 CID_104823307_JID_7621_neutraal
 -------------------------------
 Symbolic Z-matrix:
 Charge =  0 Multiplicity = 1

 SCF Done:  E(RB3LYP) =  -1068.13988155     A.U. after   15 cycles
 SCF Done:  E(RB3LYP) =  -1068.14612442     A.U. after   13 cycles
 SCF Done:  E(RB3LYP) =  -1068.14750738     A.U. after   12 cycles
 SCF Done:  E(RB3LYP) =  -1068.14778235     A.U. after   13 cycles
 SCF Done:  E(RB3LYP) =  -1068.14795421     A.U. after   11 cycles
 SCF Done:  E(RB3LYP) =  -1068.14800617     A.U. after   10 cycles
 SCF Done:  E(RB3LYP) =  -1068.14802159     A.U. after   10 cycles
 SCF Done:  E(RB3LYP) =  -1068.14802630     A.U. after    9 cycles
 SCF Done:  E(RB3LYP) =  -1068.14803576     A.U. after   10 cycles
 SCF Done:  E(RB3LYP) =  -1068.14805023     A.U. after   11 cycles
 SCF Done:  E(RB3LYP) =  -1068.14817471     A.U. after   11 cycles
 SCF Done:  E(RB3LYP) =  -1068.14820469     A.U. after   11 cycles
 SCF Done:  E(RB3LYP) =  -1068.14820542     A.U. after    9 cycles
 SCF Done:  E(RB3LYP) =  -1068.14820557     A.U. after    8 cycles
 SCF Done:  E(RB3LYP) =  -1068.14820559     A.U. after    7 cycles
 Optimization completed.
    -- Stationary point found.
 Normal termination of Gaussian 16 at Mon Dec 14 13:40:47 2020.

 --------------------------------------------------------------------
 #N Geom=AllCheck Guess=TCheck SCRF=Check GenChk RB3LYP/6-31G(d) Freq
 --------------------------------------------------------------------

 Structure from the checkpoint file:  "JID_7621.chk"
 -------------------------------
 CID_104823307_JID_7621_neutraal
 -------------------------------
 Charge =  0 Multiplicity = 1

 SCF Done:  E(RB3LYP) =  -1068.14820559     A.U. after    1 cycles

  Exact polarizability: 261.720 -11.391 179.262   2.214   6.291 100.093
 Approx polarizability: 356.005 -22.739 317.198   8.185  18.179 155.925

                      1                      2                      3
                      A                      A                      A
 Frequencies --     11.8235                35.8139                50.8000
 Red. masses --      2.9008                 1.1008                 3.5602
 Frc consts  --      0.0002                 0.0008                 0.0054
 IR Inten    --      0.0278                 0.1625                 2.9323

                      4                      5                      6
                      A                      A                      A
 Frequencies --     59.5097                88.8328               102.2830
 Red. masses --      3.9814                 4.7952                 3.7740
 Frc consts  --      0.0083                 0.0223                 0.0233
 IR Inten    --      0.8965                 1.2955                 3.7962

                      7                      8                      9
                      A                      A                      A
 Frequencies --    150.3523               190.6545               221.1570
 Red. masses --      4.5327                 3.8586                 2.0963
 Frc consts  --      0.0604                 0.0826                 0.0604
 IR Inten    --      0.8475                 0.8762                 2.6257

                     10                     11                     12
                      A                      A                      A
 Frequencies --    230.3033               246.7520               257.9063
 Red. masses --      1.2918                 3.1936                 2.0071
 Frc consts  --      0.0404                 0.1146                 0.0787
 IR Inten    --      0.1689                 4.5293                16.7527

                     13                     14                     15
                      A                      A                      A
 Frequencies --    280.2597               285.7977               293.9932
 Red. masses --      1.0808                 1.1908                 1.6100
 Frc consts  --      0.0500                 0.0573                 0.0820
 IR Inten    --      6.2587                 0.5139                21.0302

                     16                     17                     18
                      A                      A                      A
 Frequencies --    318.1310               337.7794               347.1527
 Red. masses --      2.7363                 3.3503                 3.7913
 Frc consts  --      0.1632                 0.2252                 0.2692
 IR Inten    --      0.1923                 1.4193                 2.7119

                     19                     20                     21
                      A                      A                      A
 Frequencies --    364.1585               379.6815               422.8657
 Red. masses --      2.7372                 3.1264                 3.1566
 Frc consts  --      0.2139                 0.2655                 0.3326
 IR Inten    --      0.6221                 1.9112                 2.8966

                     22                     23                     24
                      A                      A                      A
 Frequencies --    431.3320               449.4115               478.7995
 Red. masses --      3.8098                 3.7810                 5.0494
 Frc consts  --      0.4176                 0.4499                 0.6820
 IR Inten    --      3.5094                 9.9536                 4.8185

                     25                     26                     27
                      A                      A                      A
 Frequencies --    528.4544               533.0049               599.2425
 Red. masses --      3.6998                 3.2432                 5.3286
 Frc consts  --      0.6088                 0.5429                 1.1274
 IR Inten    --      3.1623                 5.0119                 2.5719

                     28                     29                     30
                      A                      A                      A
 Frequencies --    620.1524               656.0988               673.6799
 Red. masses --      5.3052                 6.8879                 4.6701
 Frc consts  --      1.2021                 1.7469                 1.2488
 IR Inten    --     22.4365                 5.8041                32.2578

                     31                     32                     33
                      A                      A                      A
 Frequencies --    687.9747               708.0631               743.9786
 Red. masses --      5.8191                 3.1455                 2.6816
 Frc consts  --      1.6228                 0.9291                 0.8745
 IR Inten    --     25.2629               134.6998                75.0199

                     34                     35                     36
                      A                      A                      A
 Frequencies --    757.4165               798.2232               831.0467
 Red. masses --      3.2926                 4.5449                 3.2962
 Frc consts  --      1.1129                 1.7062                 1.3413
 IR Inten    --     10.6360                 7.7467                 6.0274

                     37                     38                     39
                      A                      A                      A
 Frequencies --    859.3752               871.1943               943.5545
 Red. masses --      1.4704                 4.4798                 1.7916
 Frc consts  --      0.6398                 2.0033                 0.9398
 IR Inten    --     14.4587                11.3277                 0.5852

                     40                     41                     42
                      A                      A                      A
 Frequencies --    956.0115               972.6468               980.5951
 Red. masses --      1.6720                 1.3219                 1.2003
 Frc consts  --      0.9004                 0.7368                 0.6800
 IR Inten    --      0.9077                 3.6239                 0.0971

                     43                     44                     45
                      A                      A                      A
 Frequencies --    994.6594              1019.8057              1034.0479
 Red. masses --      1.3273                 1.5010                 2.3730
 Frc consts  --      0.7737                 0.9198                 1.4949
 IR Inten    --      1.3351                 3.7483                50.5249

                     46                     47                     48
                      A                      A                      A
 Frequencies --   1044.9568              1059.0871              1073.9081
 Red. masses --      3.3450                 1.3918                 1.5696
 Frc consts  --      2.1520                 0.9198                 1.0665
 IR Inten    --      6.4332                 1.3419                 6.8238

                     49                     50                     51
                      A                      A                      A
 Frequencies --   1078.9507              1108.6859              1168.0662
 Red. masses --      1.7271                 2.4431                 1.2831
 Frc consts  --      1.1846                 1.7694                 1.0315
 IR Inten    --     28.2677                 9.0389                 6.5319

                     52                     53                     54
                      A                      A                      A
 Frequencies --   1224.6537              1241.5443              1264.5217
 Red. masses --      4.4694                 2.6109                 3.1757
 Frc consts  --      3.9494                 2.3712                 2.9919
 IR Inten    --      4.1943                 3.7794                 4.0617

                     55                     56                     57
                      A                      A                      A
 Frequencies --   1272.8791              1287.0751              1304.6141
 Red. masses --      3.2307                 2.1065                 2.8382
 Frc consts  --      3.0840                 2.0560                 2.8462
 IR Inten    --     10.0606                 8.6916                26.0864

                     58                     59                     60
                      A                      A                      A
 Frequencies --   1311.2383              1351.6119              1387.1422
 Red. masses --      6.4756                 1.4851                 4.2931
 Frc consts  --      6.5598                 1.5985                 4.8670
 IR Inten    --      8.4923                 6.2070                42.4364

                     61                     62                     63
                      A                      A                      A
 Frequencies --   1424.3299              1428.0572              1438.0175
 Red. masses --      1.2141                 1.2357                 1.7366
 Frc consts  --      1.4511                 1.4848                 2.1159
 IR Inten    --      5.4111                10.5438                11.3304

                     64                     65                     66
                      A                      A                      A
 Frequencies --   1439.5134              1456.8804              1506.5496
 Red. masses --      1.9620                 1.2260                 1.0468
 Frc consts  --      2.3954                 1.5331                 1.3998
 IR Inten    --     14.4535                 2.5378                 5.3368

                     67                     68                     69
                      A                      A                      A
 Frequencies --   1507.2269              1513.7335              1516.4333
 Red. masses --      1.0483                 1.0464                 1.0494
 Frc consts  --      1.4031                 1.4126                 1.4218
 IR Inten    --      0.2101                 0.1590                 2.6512

                     70                     71                     72
                      A                      A                      A
 Frequencies --   1517.1528              1528.7726              1534.2526
 Red. masses --      1.1175                 1.0534                 1.0767
 Frc consts  --      1.5155                 1.4505                 1.4932
 IR Inten    --     11.1927                 6.1809                 8.2820

                     73                     74                     75
                      A                      A                      A
 Frequencies --   1535.2605              1545.3922              1581.6442
 Red. masses --      2.5928                 1.0959                 5.3556
 Frc consts  --      3.6007                 1.5421                 7.8937
 IR Inten    --     68.7585                 9.0634                52.7199

                     76                     77                     78
                      A                      A                      A
 Frequencies --   1598.2166              1613.0940              1658.2471
 Red. masses --      7.7971                 5.6405                 5.8355
 Frc consts  --     11.7342                 8.6475                 9.4542
 IR Inten    --     58.2514                 8.1668                 3.3148

                     79                     80                     81
                      A                      A                      A
 Frequencies --   1686.7682              3045.9803              3049.6242
 Red. masses --      1.1558                 1.0346                 1.0351
 Frc consts  --      1.9375                 5.6556                 5.6718
 IR Inten    --     94.0386                19.5284                23.4812

                     82                     83                     84
                      A                      A                      A
 Frequencies --   3053.2395              3060.3179              3111.9887
 Red. masses --      1.0369                 1.0369                 1.1019
 Frc consts  --      5.6950                 5.7219                 6.2875
 IR Inten    --     29.9817                26.9455                 7.8442

                     85                     86                     87
                      A                      A                      A
 Frequencies --   3112.0186              3118.2814              3123.3919
 Red. masses --      1.0996                 1.1019                 1.1031
 Frc consts  --      6.2745                 6.3129                 6.3406
 IR Inten    --     15.3999                48.3115                 2.8033

                     88                     89                     90
                      A                      A                      A
 Frequencies --   3128.1990              3130.0961              3136.2710
 Red. masses --      1.1024                 1.1028                 1.1032
 Frc consts  --      6.3561                 6.3661                 6.3933
 IR Inten    --     47.0268                37.2574                16.9207

                     91                     92                     93
                      A                      A                      A
 Frequencies --   3150.6513              3175.0087              3194.4925
 Red. masses --      1.1012                 1.0897                 1.0896
 Frc consts  --      6.4404                 6.4719                 6.5510
 IR Inten    --     20.1359                16.1413                19.6762

                     94                     95                     96
                      A                      A                      A
 Frequencies --   3223.9440              3517.8775              3618.7791
 Red. masses --      1.0933                 1.0485                 1.0973
 Frc consts  --      6.6954                 7.6448                 8.4665
 IR Inten    --      4.6086                13.2780                22.0882

 - Thermochemistry -
 -------------------
 Temperature   298.150 Kelvin.  Pressure   1.00000 Atm.
 Atom     1 has atomic number  6 and mass  12.00000

 Molecular mass:   247.11432 amu.
 Principal axes and moments of inertia in atomic units:
                           1         2         3
     Eigenvalues --  1999.546018202.154649685.55648
           X            0.99995   0.00984  -0.00241
           Y           -0.00984   0.99995  -0.00033
           Z            0.00240   0.00035   1.00000
 This molecule is an asymmetric top.
 Rotational symmetry number  1.
 Warning -- assumption of classical behavior for rotation
           may cause significant error
 Rotational temperatures (Kelvin)      0.04332     0.01056     0.00894
 Rotational constants (GHZ):           0.90258     0.22003     0.18633
 Zero-point vibrational energy     741465.9 (Joules/Mol)
                                  177.21460 (Kcal/Mol)
 Warning -- explicit consideration of  28 degrees of freedom as
           vibrations may cause significant error
 Vibrational temperatures:     17.01    51.53    73.09    85.62   127.81
          (Kelvin)            147.16   216.32   274.31   318.20   331.36
                              355.02   371.07   403.23   411.20   422.99
                              457.72   485.99   499.48   523.94   546.28
                              608.41   620.59   646.60   688.89   760.33
                              766.88   862.18   892.26   943.98   969.28
                              989.84  1018.74  1070.42  1089.75  1148.47
                             1195.69  1236.45  1253.45  1357.56  1375.49
                             1399.42  1410.86  1431.09  1467.27  1487.76
                             1503.46  1523.79  1545.11  1552.37  1595.15
                             1680.59  1762.00  1786.31  1819.36  1831.39
                             1851.81  1877.05  1886.58  1944.67  1995.79
                             2049.29  2054.66  2068.99  2071.14  2096.13
                             2167.59  2168.56  2177.92  2181.81  2182.84
                             2199.56  2207.45  2208.90  2223.47  2275.63
                             2299.48  2320.88  2385.85  2426.88  4382.49
                             4387.73  4392.93  4403.11  4477.46  4477.50
                             4486.51  4493.86  4500.78  4503.51  4512.39
                             4533.08  4568.13  4596.16  4638.54  5061.44
                             5206.62

 Zero-point correction=                           0.282409 (Hartree/Particle)
 Thermal correction to Energy=                    0.299864
 Thermal correction to Enthalpy=                  0.300808
 Thermal correction to Gibbs Free Energy=         0.235607
 Sum of electronic and zero-point Energies=          -1067.865796
 Sum of electronic and thermal Energies=             -1067.848341
 Sum of electronic and thermal Enthalpies=           -1067.847397
 Sum of electronic and thermal Free Energies=        -1067.912599

                     E (Thermal)             CV                S
                      KCal/Mol        Cal/Mol-Kelvin    Cal/Mol-Kelvin
 Total                  188.168             66.004            137.228
 Electronic               0.000              0.000              0.000
 Translational            0.889              2.981             42.415
 Rotational               0.889              2.981             33.429
 Vibrational            186.390             60.043             61.384
 Vibration     1          0.593              1.987              7.678
 Vibration     2          0.594              1.982              5.478
 Vibration     3          0.595              1.977              4.786
 Vibration     4          0.597              1.974              4.473
 Vibration     5          0.602              1.957              3.686
 Vibration     6          0.604              1.947              3.410
 Vibration     7          0.618              1.902              2.668
 Vibration     8          0.634              1.853              2.221
 Vibration     9          0.648              1.809              1.950
 Vibration    10          0.652              1.795              1.877
 Vibration    11          0.661              1.768              1.754
 Vibration    12          0.667              1.749              1.676
 Vibration    13          0.680              1.710              1.532
 Vibration    14          0.684              1.700              1.499
 Vibration    15          0.689              1.685              1.451
 Vibration    16          0.705              1.639              1.320
 Vibration    17          0.718              1.600              1.223
 Vibration    18          0.725              1.581              1.179
 Vibration    19          0.738              1.546              1.104
 Vibration    20          0.750              1.513              1.040
 Vibration    21          0.785              1.421              0.882
 Vibration    22          0.792              1.402              0.854
 Vibration    23          0.808              1.362              0.798
 Vibration    24          0.835              1.297              0.713
 Vibration    25          0.883              1.187              0.591
 Vibration    26          0.888              1.177              0.581
 Vibration    27          0.957              1.033              0.451
 Vibration    28          0.980              0.989              0.416

 Optimization completed.
    -- Stationary point found.
 Normal termination of Gaussian 16 at Mon Dec 14 13:52:12 2020.

 ----------------------------------------------------------------------
 # B3LYP/6-311++G(d,p) empiricaldispersion=gd3bj scf=xqc pop=npa geom=c
 heck
 ----------------------------------------------------------------------

 ---------------------------------------
 CID_104823307_JID_7621_Energie_neutraal
 ---------------------------------------
 Structure from the checkpoint file:  "JID_7621.chk"
 Charge =  0 Multiplicity = 1

 SCF Done:  E(RB3LYP) =  -1068.35443552     A.U. after   17 cycles
 Normal termination of Gaussian 16 at Mon Dec 14 13:59:20 2020.

 ----------------------------------------------------------------------
 # B3LYP/6-311++G(d,p) empiricaldispersion=gd3bj scf=xqc pop=npa geom=c
 heck
 ----------------------------------------------------------------------

 -------------------------------------
 CID_104823307_JID_7621_Energie_kation
 -------------------------------------
 Structure from the checkpoint file:  "JID_7621.chk"
 Charge =  1 Multiplicity = 2

 SCF Done:  E(UB3LYP) =  -1068.09112783     A.U. after   23 cycles
 Normal termination of Gaussian 16 at Mon Dec 14 14:13:32 2020.
 Gaussian 16:  ES64L-G16RevA.03 25-Dec-2016

 ----------------------------------------------------------------------
 # B3LYP/6-311++G(d,p) empiricaldispersion=gd3bj scf=xqc pop=npa geom=c
 heck
 ----------------------------------------------------------------------

 ------------------------------------
 CID_104823307_JID_7621_Energie_anion
 ------------------------------------
 Structure from the checkpoint file:  "JID_7621.chk"
 Charge = -1 Multiplicity = 2

                         Standard orientation:
 ---------------------------------------------------------------------
 Center     Atomic      Atomic             Coordinates (Angstroms)
 Number     Number       Type             X           Y           Z
 ---------------------------------------------------------------------
      1          6           0        5.740476   -0.915122    0.038679
      2          6           0        4.263447   -0.617552    0.032662
      3          7           0        3.892098    0.589958    0.486625
      4          6           0        2.593094    0.899661    0.482288
      5          6           0        1.573739    0.052588    0.012887
      6          6           0        1.974496   -1.218987   -0.427503
      7          6           0        3.321296   -1.553098   -0.416489
      8          6           0        0.158185    0.433217   -0.007445
      9          6           0       -0.356289    1.711091   -0.114358
     10         16           0       -2.104810    1.659178   -0.134815
     11          6           0       -2.016868   -0.121673   -0.024815
     12          7           0       -0.805975   -0.565317    0.028466
     13          6           0       -3.271572   -0.962960    0.083647
     14          6           0       -3.822344   -0.851670    1.523075
     15          6           0       -4.337648   -0.472704   -0.914149
     16          6           0       -2.912947   -2.427543   -0.218299
     17          7           0        0.313835    2.928589   -0.186408
     18          1           0        6.161912   -0.734382    1.033191
     19          1           0        5.945132   -1.950782   -0.248545
     20          1           0        6.268624   -0.253023   -0.657805
     21          1           0        2.343811    1.865099    0.918131
     22          1           0        1.220545   -1.922097   -0.765300
     23          1           0        3.648149   -2.531791   -0.756020
     24          1           0       -4.085451    0.182898    1.768562
     25          1           0       -4.722380   -1.468110    1.631437
     26          1           0       -3.077742   -1.194981    2.248316
     27          1           0       -3.966110   -0.519059   -1.943192
     28          1           0       -5.232568   -1.100547   -0.842692
     29          1           0       -4.641961    0.560184   -0.708465
     30          1           0       -2.526393   -2.533976   -1.236733
     31          1           0       -2.146346   -2.792049    0.469448
     32          1           0       -3.806860   -3.053107   -0.117585
     33          1           0       -0.198974    3.656080   -0.671840
     34          1           0        1.251467    2.838696   -0.565740
 ---------------------------------------------------------------------

 SCF Done:  E(UB3LYP) =  -1068.34717367     A.U. after   33 cycles
 SCF Done:  E(UB3LYP) =  -1068.34717367     a.u. after    1 cycles

 The electronic state is 2-A.
 Alpha  occ. eigenvalues --  -88.76154 -14.21613 -14.19837 -14.18382 -10.11956
 Alpha  occ. eigenvalues --  -10.11687 -10.10223 -10.08962 -10.08756 -10.08186
 Alpha  occ. eigenvalues --  -10.07103 -10.06898 -10.06846 -10.06749 -10.06402
 Alpha  occ. eigenvalues --  -10.06260 -10.05768  -7.84774  -5.81055  -5.80723
 Alpha  occ. eigenvalues --   -5.80356  -0.85502  -0.82450  -0.80736  -0.73065
 Alpha  occ. eigenvalues --   -0.69339  -0.67243  -0.66513  -0.62388  -0.59792
 Alpha  occ. eigenvalues --   -0.59294  -0.57976  -0.52100  -0.51042  -0.48736
 Alpha  occ. eigenvalues --   -0.46103  -0.43564  -0.40585  -0.38653  -0.38142
 Alpha  occ. eigenvalues --   -0.36293  -0.35277  -0.35208  -0.35136  -0.32882
 Alpha  occ. eigenvalues --   -0.32641  -0.31600  -0.31256  -0.29949  -0.29189
 Alpha  occ. eigenvalues --   -0.28815  -0.27587  -0.27313  -0.27043  -0.26479
 Alpha  occ. eigenvalues --   -0.25350  -0.24724  -0.24299  -0.23391  -0.21985
 Alpha  occ. eigenvalues --   -0.18093  -0.16487  -0.15999  -0.14397  -0.14248
 Alpha  occ. eigenvalues --   -0.08665   0.04435
 Alpha virt. eigenvalues --    0.05752   0.07020   0.07213   0.08096   0.08564
 Alpha virt. eigenvalues --    0.08754   0.09059   0.09546   0.09952   0.10394
 Alpha virt. eigenvalues --    0.11064   0.11371   0.11571   0.11768   0.12280

  Beta  occ. eigenvalues --  -88.76144 -14.21515 -14.19829 -14.18248 -10.11778
  Beta  occ. eigenvalues --  -10.11636 -10.10225 -10.08814 -10.08784 -10.08204
  Beta  occ. eigenvalues --  -10.07089 -10.06885 -10.06804 -10.06763 -10.06453
  Beta  occ. eigenvalues --  -10.06245 -10.05566  -7.84764  -5.81032  -5.80723
  Beta  occ. eigenvalues --   -5.80335  -0.85417  -0.82223  -0.80577  -0.73035
  Beta  occ. eigenvalues --   -0.69116  -0.67075  -0.66356  -0.62267  -0.59763
  Beta  occ. eigenvalues --   -0.59260  -0.57897  -0.51981  -0.50952  -0.48420
  Beta  occ. eigenvalues --   -0.45977  -0.43443  -0.40485  -0.38581  -0.38001
  Beta  occ. eigenvalues --   -0.36163  -0.35198  -0.35153  -0.35073  -0.32710
  Beta  occ. eigenvalues --   -0.32423  -0.31558  -0.31181  -0.29885  -0.29048
  Beta  occ. eigenvalues --   -0.28769  -0.27567  -0.27213  -0.26836  -0.26173
  Beta  occ. eigenvalues --   -0.25266  -0.24649  -0.24266  -0.23260  -0.21779
  Beta  occ. eigenvalues --   -0.17522  -0.16171  -0.15840  -0.14157  -0.14043
  Beta  occ. eigenvalues --   -0.08191
  Beta virt. eigenvalues --    0.06419   0.07126   0.07901   0.08394   0.08525
  Beta virt. eigenvalues --    0.08614   0.08827   0.09331   0.09602   0.10138
  Beta virt. eigenvalues --    0.10718   0.11158   0.11396   0.11645   0.11676

 Mulliken charges and spin densities:
               1          2
     1  C   -0.456675  -0.096440
     2  C   -0.125655   0.035648
     3  N   -0.021111   0.065326
     4  C   -0.417443  -0.174227
     5  C    0.465904   0.150630
     6  C    0.071559   0.032036
     7  C   -0.369113   0.079682
     8  C   -0.452038  -0.402653
     9  C    0.224976  -0.000253
    10  S   -0.959184   0.547633
    11  C    1.914388  -2.240884
    12  N    0.323687   0.008703
    13  C   -1.010296   2.079718
    14  C   -0.096903  -0.412177
    15  C   -0.181384  -0.440356
    16  C   -0.342407  -0.327942
    17  N   -0.103580  -0.139647
    18  H    0.118354   0.026079
    19  H    0.119085  -0.000708
    20  H    0.141816   0.004152
    21  H    0.201589  -0.004188
    22  H    0.177606  -0.012248
    23  H    0.135214   0.006533
    24  H    0.084723   0.055582
    25  H   -0.190650   0.345202
    26  H    0.161821  -0.003410
    27  H    0.156714  -0.007630
    28  H   -0.297440   0.461800
    29  H    0.149729  -0.030334
    30  H    0.107579   0.032211
    31  H    0.151987   0.007803
    32  H   -0.196232   0.344326
    33  H   -0.527343   0.804344
    34  H    0.040722   0.205687
 Sum of Mulliken charges =  -1.00000   1.00000

 Dipole moment (field-independent basis, Debye):
    X=              0.9297    Y=             -3.5591    Z=             -0.0471  Tot=              3.6788
 Quadrupole moment (field-independent basis, Debye-Ang):
   XX=           -183.3476   YY=           -157.9534   ZZ=           -127.9505
   XY=            -14.9967   XZ=             -3.2430   YZ=              5.3486

 Summary of Natural Population Analysis:

                                       Natural Population
                Natural  -----------------------------------------------
    Atom  No    Charge         Core      Valence    Rydberg      Total
 -----------------------------------------------------------------------
      C    1   -0.29661      0.99964     2.29223    0.00473     3.29661
      C    2    0.11958      0.99956     1.86824    0.01263     2.88042
      N    3   -0.23031      0.99968     2.71869    0.01195     3.73031
      C    4    0.01763      0.99956     1.96742    0.01539     2.98237
      C    5   -0.04337      0.99948     2.03463    0.00926     3.04337
      C    6   -0.03785      0.99954     2.03032    0.00798     3.03785
      C    7   -0.13458      0.99952     2.12776    0.00731     3.13458
      C    8    0.00413      0.99940     1.98159    0.01488     2.99587
      C    9    0.04313      0.99945     1.94215    0.01527     2.95687
      S   10    0.16589      4.99942     2.81750    0.01719     7.83411
      C   11    0.05511      0.99953     1.92645    0.01890     2.94489
      N   12   -0.23771      0.99962     2.72879    0.00929     3.73771
      C   13   -0.06950      0.99952     2.06019    0.00979     3.06950
      C   14   -0.27881      0.99963     2.27231    0.00687     3.27881
      C   15   -0.28233      0.99964     2.27541    0.00728     3.28233
      C   16   -0.28011      0.99964     2.27245    0.00802     3.28011
      N   17   -0.39839      0.99970     2.88559    0.01310     3.89839
      H   18    0.10428      0.00000     0.39466    0.00106     0.39572
      H   19    0.09332      0.00000     0.40591    0.00077     0.40668
      H   20    0.10294      0.00000     0.39607    0.00098     0.39706
      H   21    0.09026      0.00000     0.40765    0.00209     0.40974
      H   22    0.10382      0.00000     0.39502    0.00116     0.39618
      H   23    0.09495      0.00000     0.40405    0.00099     0.40505
      H   24    0.10136      0.00000     0.39794    0.00070     0.39864
      H   25    0.09712      0.00000     0.40204    0.00085     0.40288
      H   26    0.10248      0.00000     0.39679    0.00073     0.39752
      H   27    0.10181      0.00000     0.39751    0.00067     0.39819
      H   28    0.09966      0.00000     0.39940    0.00094     0.40034
      H   29    0.10089      0.00000     0.39842    0.00069     0.39911
      H   30    0.10186      0.00000     0.39738    0.00076     0.39814
      H   31    0.10787      0.00000     0.39125    0.00088     0.39213
      H   32    0.09634      0.00000     0.40280    0.00087     0.40366
      H   33    0.19279      0.00000     0.29505    0.01215     0.30721
      H   34    0.19233      0.00000     0.30539    0.00228     0.30767
 =======================================================================
   * Total *    0.00000     20.99253    44.78906    0.21841    66.00000

 Normal termination of Gaussian 16 at Mon Dec 14 14:33:15 2020.
