 Gaussian 16, Revision A.03,

 -----------------------------------------------------------
 # opt freq B3LYP/6-31G(d) empiricaldispersion=gd3bj scf=xqc
 -----------------------------------------------------------

 -------------------------------
 CID_116698493_JID_9461_neutraal
 -------------------------------
 Symbolic Z-matrix:
 Charge =  0 Multiplicity = 1

 SCF Done:  E(RB3LYP) =  -825.183911893     A.U. after   14 cycles
 SCF Done:  E(RB3LYP) =  -825.189082577     A.U. after   13 cycles
 SCF Done:  E(RB3LYP) =  -825.190005348     A.U. after   12 cycles
 SCF Done:  E(RB3LYP) =  -825.190310310     A.U. after   12 cycles
 SCF Done:  E(RB3LYP) =  -825.190449904     A.U. after   12 cycles
 SCF Done:  E(RB3LYP) =  -825.190672197     A.U. after   11 cycles
 SCF Done:  E(RB3LYP) =  -825.190928757     A.U. after   12 cycles
 SCF Done:  E(RB3LYP) =  -825.191036768     A.U. after   11 cycles
 SCF Done:  E(RB3LYP) =  -825.191264515     A.U. after   13 cycles
 SCF Done:  E(RB3LYP) =  -825.191902807     A.U. after   11 cycles
 SCF Done:  E(RB3LYP) =  -825.194295801     A.U. after   10 cycles
 SCF Done:  E(RB3LYP) =  -825.194238416     A.U. after   10 cycles
 SCF Done:  E(RB3LYP) =  -825.194321937     A.U. after   10 cycles
 SCF Done:  E(RB3LYP) =  -825.194322371     A.U. after    8 cycles
 SCF Done:  E(RB3LYP) =  -825.194322595     A.U. after    7 cycles
 Optimization completed.
    -- Stationary point found.
 Normal termination of Gaussian 16 at Sun Dec 13 12:44:08 2020.

 --------------------------------------------------------------------
 #N Geom=AllCheck Guess=TCheck SCRF=Check GenChk RB3LYP/6-31G(d) Freq
 --------------------------------------------------------------------

 Structure from the checkpoint file:  "JID_9461.chk"
 -------------------------------
 CID_116698493_JID_9461_neutraal
 -------------------------------
 Charge =  0 Multiplicity = 1

 SCF Done:  E(RB3LYP) =  -825.194322595     A.U. after    1 cycles

  Exact polarizability: 268.743  -2.292 195.416  -1.461 -13.051 101.420
 Approx polarizability: 371.425  -3.952 310.833  -5.427 -31.963 159.454

                      1                      2                      3
                      A                      A                      A
 Frequencies --     36.8442                55.8518                65.4269
 Red. masses --      4.0829                 4.0107                 3.1499
 Frc consts  --      0.0033                 0.0074                 0.0079
 IR Inten    --      0.2375                 0.9929                 4.7944

                      4                      5                      6
                      A                      A                      A
 Frequencies --     75.5686               103.3515               152.1655
 Red. masses --      4.2360                 3.6729                 3.1221
 Frc consts  --      0.0143                 0.0231                 0.0426
 IR Inten    --      1.6166                 0.0065                 2.2942

                      7                      8                      9
                      A                      A                      A
 Frequencies --    172.5766               175.4738               208.9883
 Red. masses --      3.0231                 3.0042                 1.6272
 Frc consts  --      0.0530                 0.0545                 0.0419
 IR Inten    --      0.3033                 1.7004                 0.0404

                     10                     11                     12
                      A                      A                      A
 Frequencies --    223.3482               243.4439               265.2263
 Red. masses --      2.4684                 3.4500                 2.3858
 Frc consts  --      0.0725                 0.1205                 0.0989
 IR Inten    --      1.4828                 2.6492                 1.3931

                     13                     14                     15
                      A                      A                      A
 Frequencies --    275.5930               284.4997               297.9450
 Red. masses --      1.8615                 4.4181                 1.8240
 Frc consts  --      0.0833                 0.2107                 0.0954
 IR Inten    --      1.6471                 1.5006                 0.2280

                     16                     17                     18
                      A                      A                      A
 Frequencies --    313.2366               375.2273               378.4359
 Red. masses --      3.3197                 4.5054                 3.9432
 Frc consts  --      0.1919                 0.3737                 0.3327
 IR Inten    --      1.2890                 0.1863                 4.1603

                     19                     20                     21
                      A                      A                      A
 Frequencies --    430.6879               462.9827               494.9615
 Red. masses --      3.3017                 3.4814                 5.9085
 Frc consts  --      0.3608                 0.4397                 0.8528
 IR Inten    --      6.0668                 1.2827                 0.2180

                     22                     23                     24
                      A                      A                      A
 Frequencies --    545.5378               564.3869               580.7745
 Red. masses --      2.1085                 5.1962                 4.4962
 Frc consts  --      0.3697                 0.9752                 0.8935
 IR Inten    --     92.7875                11.0400                 7.8007

                     25                     26                     27
                      A                      A                      A
 Frequencies --    589.9090               629.3069               629.8145
 Red. masses --      4.0385                 4.4149                 4.3397
 Frc consts  --      0.8280                 1.0301                 1.0142
 IR Inten    --     28.6234                 5.7262                14.4513

                     28                     29                     30
                      A                      A                      A
 Frequencies --    645.6823               672.7303               704.9190
 Red. masses --      4.0568                 4.4270                 2.5415
 Frc consts  --      0.9965                 1.1804                 0.7441
 IR Inten    --      2.5731                 6.6306                 4.1154

                     31                     32                     33
                      A                      A                      A
 Frequencies --    727.4091               757.7774               797.9144
 Red. masses --      2.4595                 3.2038                 2.8168
 Frc consts  --      0.7668                 1.0839                 1.0566
 IR Inten    --     13.6321                60.7569                 2.5925

                     34                     35                     36
                      A                      A                      A
 Frequencies --    823.6618               841.7989               849.2690
 Red. masses --      1.3809                 1.5995                 1.6431
 Frc consts  --      0.5520                 0.6678                 0.6983
 IR Inten    --     42.6059                 4.7873                26.6186

                     37                     38                     39
                      A                      A                      A
 Frequencies --    851.5352               854.6646               877.2592
 Red. masses --      2.5114                 1.5115                 1.5832
 Frc consts  --      1.0729                 0.6505                 0.7179
 IR Inten    --     37.7384                 5.1869                10.9697

                     40                     41                     42
                      A                      A                      A
 Frequencies --    898.9205               938.2771               953.6645
 Red. masses --      2.2351                 1.3835                 3.4498
 Frc consts  --      1.0641                 0.7176                 1.8486
 IR Inten    --     10.1774                 1.1813                 0.2358

                     43                     44                     45
                      A                      A                      A
 Frequencies --    954.6749               975.1936              1015.8545
 Red. masses --      2.7251                 3.0683                 6.1463
 Frc consts  --      1.4633                 1.7192                 3.7370
 IR Inten    --      3.3063                 1.6784                 2.5882

                     46                     47                     48
                      A                      A                      A
 Frequencies --   1060.4706              1087.3268              1091.9295
 Red. masses --      2.6489                 5.7820                 1.7890
 Frc consts  --      1.7551                 4.0276                 1.2568
 IR Inten    --      9.5912                 2.6676                23.7184

                     49                     50                     51
                      A                      A                      A
 Frequencies --   1099.8050              1113.0111              1140.1387
 Red. masses --      1.7977                 2.2687                 1.9785
 Frc consts  --      1.2811                 1.6558                 1.5153
 IR Inten    --     33.5185                 0.7682                 5.1798

                     52                     53                     54
                      A                      A                      A
 Frequencies --   1186.3031              1186.4993              1194.0013
 Red. masses --      1.2707                 1.2706                 1.6629
 Frc consts  --      1.0536                 1.0539                 1.3968
 IR Inten    --      1.3292                 0.0197                 2.9443

                     55                     56                     57
                      A                      A                      A
 Frequencies --   1199.7223              1203.6888              1223.3343
 Red. masses --      1.2468                 1.9615                 1.2766
 Frc consts  --      1.0573                 1.6744                 1.1256
 IR Inten    --     13.7347               207.6561                 2.2562

                     58                     59                     60
                      A                      A                      A
 Frequencies --   1228.0894              1236.7896              1241.7423
 Red. masses --      1.3599                 2.1636                 1.6245
 Frc consts  --      1.2084                 1.9500                 1.4759
 IR Inten    --      2.8323               269.3533                 6.1264

                     61                     62                     63
                      A                      A                      A
 Frequencies --   1298.0712              1302.2951              1306.0582
 Red. masses --      1.9653                 1.8398                 1.4180
 Frc consts  --      1.9511                 1.8384                 1.4251
 IR Inten    --     47.2391                84.0956                28.1655

                     64                     65                     66
                      A                      A                      A
 Frequencies --   1323.9047              1352.2950              1375.5511
 Red. masses --      1.7264                 1.4106                 3.0656
 Frc consts  --      1.7828                 1.5199                 3.4175
 IR Inten    --      6.5249                17.8172                 7.7218

                     67                     68                     69
                      A                      A                      A
 Frequencies --   1377.7082              1388.2238              1425.0249
 Red. masses --      4.1817                 5.0320                 2.0727
 Frc consts  --      4.6764                 5.7136                 2.4799
 IR Inten    --     18.0343                57.3954                23.1460

                     70                     71                     72
                      A                      A                      A
 Frequencies --   1477.0085              1496.9718              1506.4811
 Red. masses --      1.8820                 1.8685                 1.3863
 Frc consts  --      2.4190                 2.4670                 1.8537
 IR Inten    --    141.6056                16.2243                29.7230

                     73                     74                     75
                      A                      A                      A
 Frequencies --   1512.6207              1518.7479              1520.2863
 Red. masses --      1.3034                 1.8157                 1.0851
 Frc consts  --      1.7571                 2.4675                 1.4777
 IR Inten    --      9.3236                 9.0251                 3.8009

                     76                     77                     78
                      A                      A                      A
 Frequencies --   1520.5133              1521.3512              1536.1334
 Red. masses --      1.0603                 1.8629                 1.0508
 Frc consts  --      1.4443                 2.5403                 1.4609
 IR Inten    --     13.8044                45.7072                54.6885

                     79                     80                     81
                      A                      A                      A
 Frequencies --   1540.1721              1548.7586              1556.9986
 Red. masses --      1.1949                 1.4360                 1.9481
 Frc consts  --      1.6700                 2.0294                 2.7825
 IR Inten    --      1.9143                10.7324                23.7740

                     82                     83                     84
                      A                      A                      A
 Frequencies --   1638.4175              1648.1415              1664.3556
 Red. masses --      6.3555                 5.8561                 6.3444
 Frc consts  --     10.0520                 9.3723                10.3546
 IR Inten    --     68.2610               159.4753               234.4165

                     85                     86                     87
                      A                      A                      A
 Frequencies --   1676.5966              2995.5736              3024.8914
 Red. masses --      6.4999                 1.0737                 1.0346
 Frc consts  --     10.7650                 5.6764                 5.5778
 IR Inten    --     82.0359                89.4465                84.4558

                     88                     89                     90
                      A                      A                      A
 Frequencies --   3025.1905              3035.3955              3082.9568
 Red. masses --      1.0347                 1.0690                 1.1065
 Frc consts  --      5.5794                 5.8032                 6.1962
 IR Inten    --     11.4600                38.8088                29.2423

                     91                     92                     93
                      A                      A                      A
 Frequencies --   3083.1219              3103.2714              3109.3094
 Red. masses --      1.1065                 1.0910                 1.0964
 Frc consts  --      6.1971                 6.1904                 6.2451
 IR Inten    --     57.4401                47.0906                43.1122

                     94                     95                     96
                      A                      A                      A
 Frequencies --   3156.2305              3156.3741              3182.0282
 Red. masses --      1.0998                 1.0997                 1.0886
 Frc consts  --      6.4551                 6.4553                 6.4943
 IR Inten    --     31.7492                36.6344                20.3518

                     97                     98                     99
                      A                      A                      A
 Frequencies --   3195.1909              3209.4451              3234.3502
 Red. masses --      1.0899                 1.0925                 1.0914
 Frc consts  --      6.5558                 6.6300                 6.7266
 IR Inten    --      9.1688                11.3200                 0.8701

                    100                    101                    102
                      A                      A                      A
 Frequencies --   3240.4596              3242.2117              3569.8113
 Red. masses --      1.0888                 1.0893                 1.0762
 Frc consts  --      6.7359                 6.7466                 8.0801
 IR Inten    --      7.8471                 1.8198                 5.6463

 - Thermochemistry -
 -------------------
 Temperature   298.150 Kelvin.  Pressure   1.00000 Atm.
 Atom     1 has atomic number  6 and mass  12.00000

 Molecular mass:   255.12593 amu.
 Principal axes and moments of inertia in atomic units:
                           1         2         3
     Eigenvalues --  2953.894059153.96145**********
           X            1.00000  -0.00221   0.00161
           Y            0.00222   1.00000  -0.00056
           Z           -0.00161   0.00056   1.00000
 This molecule is an asymmetric top.
 Rotational symmetry number  1.
 Warning -- assumption of classical behavior for rotation
           may cause significant error
 Rotational temperatures (Kelvin)      0.02932     0.00946     0.00746
 Rotational constants (GHZ):           0.61097     0.19715     0.15546
 Zero-point vibrational energy     789201.1 (Joules/Mol)
                                  188.62359 (Kcal/Mol)
 Warning -- explicit consideration of  25 degrees of freedom as
           vibrations may cause significant error
 Vibrational temperatures:     53.01    80.36    94.13   108.73   148.70
          (Kelvin)            218.93   248.30   252.47   300.69   321.35
                              350.26   381.60   396.52   409.33   428.68
                              450.68   539.87   544.48   619.66   666.13
                              712.14   784.91   812.03   835.60   848.75
                              905.43   906.16   928.99   967.91  1014.22
                             1046.58  1090.27  1148.02  1185.07  1211.16
                             1221.91  1225.17  1229.67  1262.18  1293.35
                             1349.97  1372.11  1373.56  1403.09  1461.59
                             1525.78  1564.42  1571.04  1582.37  1601.37
                             1640.41  1706.83  1707.11  1717.90  1726.13
                             1731.84  1760.11  1766.95  1779.46  1786.59
                             1867.63  1873.71  1879.13  1904.80  1945.65
                             1979.11  1982.21  1997.34  2050.29  2125.09
                             2153.81  2167.49  2176.32  2185.14  2187.35
                             2187.68  2188.89  2210.15  2215.96  2228.32
                             2240.17  2357.32  2371.31  2394.64  2412.25
                             4309.96  4352.14  4352.57  4367.26  4435.69
                             4435.92  4464.92  4473.60  4541.11  4541.32
                             4578.23  4597.17  4617.68  4653.51  4662.30
                             4664.82  5136.16

 Zero-point correction=                           0.300591 (Hartree/Particle)
 Thermal correction to Energy=                    0.317187
 Thermal correction to Enthalpy=                  0.318131
 Thermal correction to Gibbs Free Energy=         0.256020
 Sum of electronic and zero-point Energies=           -824.893732
 Sum of electronic and thermal Energies=              -824.877136
 Sum of electronic and thermal Enthalpies=            -824.876192
 Sum of electronic and thermal Free Energies=         -824.938303

                     E (Thermal)             CV                S
                      KCal/Mol        Cal/Mol-Kelvin    Cal/Mol-Kelvin
 Total                  199.038             65.127            130.723
 Electronic               0.000              0.000              0.000
 Translational            0.889              2.981             42.510
 Rotational               0.889              2.981             34.106
 Vibrational            197.260             59.166             54.108
 Vibration     1          0.594              1.982              5.422
 Vibration     2          0.596              1.975              4.599
 Vibration     3          0.597              1.971              4.286
 Vibration     4          0.599              1.965              4.003
 Vibration     5          0.605              1.947              3.390
 Vibration     6          0.619              1.900              2.645
 Vibration     7          0.626              1.876              2.407
 Vibration     8          0.627              1.873              2.376
 Vibration     9          0.642              1.827              2.052
 Vibration    10          0.649              1.806              1.932
 Vibration    11          0.659              1.774              1.778
 Vibration    12          0.671              1.737              1.627
 Vibration    13          0.677              1.718              1.561
 Vibration    14          0.683              1.702              1.506
 Vibration    15          0.691              1.678              1.428
 Vibration    16          0.701              1.648              1.345
 Vibration    17          0.746              1.523              1.058
 Vibration    18          0.749              1.516              1.045
 Vibration    19          0.792              1.403              0.856
 Vibration    20          0.821              1.332              0.757
 Vibration    21          0.851              1.261              0.671
 Vibration    22          0.901              1.149              0.553
 Vibration    23          0.920              1.108              0.515
 Vibration    24          0.937              1.073              0.484
 Vibration    25          0.947              1.053              0.467

 Optimization completed.
    -- Stationary point found.
 Normal termination of Gaussian 16 at Sun Dec 13 13:01:27 2020.

 ----------------------------------------------------------------------
 # B3LYP/6-311++G(d,p) empiricaldispersion=gd3bj scf=xqc pop=npa geom=c
 heck
 ----------------------------------------------------------------------

 ---------------------------------------
 CID_116698493_JID_9461_Energie_neutraal
 ---------------------------------------
 Structure from the checkpoint file:  "JID_9461.chk"
 Charge =  0 Multiplicity = 1

 SCF Done:  E(RB3LYP) =  -825.413648106     A.U. after   15 cycles
 Normal termination of Gaussian 16 at Sun Dec 13 13:09:17 2020.

 ----------------------------------------------------------------------
 # B3LYP/6-311++G(d,p) empiricaldispersion=gd3bj scf=xqc pop=npa geom=c
 heck
 ----------------------------------------------------------------------

 -------------------------------------
 CID_116698493_JID_9461_Energie_kation
 -------------------------------------
 Structure from the checkpoint file:  "JID_9461.chk"
 Charge =  1 Multiplicity = 2

 SCF Done:  E(UB3LYP) =  -825.155494519     A.U. after   26 cycles
 Normal termination of Gaussian 16 at Sun Dec 13 13:28:52 2020.
 Gaussian 16:  ES64L-G16RevA.03 25-Dec-2016

 ----------------------------------------------------------------------
 # B3LYP/6-311++G(d,p) empiricaldispersion=gd3bj scf=xqc pop=npa geom=c
 heck
 ----------------------------------------------------------------------

 ------------------------------------
 CID_116698493_JID_9461_Energie_anion
 ------------------------------------
 Structure from the checkpoint file:  "JID_9461.chk"
 Charge = -1 Multiplicity = 2

                         Standard orientation:
 ---------------------------------------------------------------------
 Center     Atomic      Atomic             Coordinates (Angstroms)
 Number     Number       Type             X           Y           Z
 ---------------------------------------------------------------------
      1          6           0        3.385719   -3.354793   -0.479016
      2          8           0        3.889193   -2.033235   -0.392203
      3          6           0        2.994737   -1.019737   -0.195733
      4          6           0        3.548005    0.257953   -0.105572
      5          6           0        2.712180    1.358391    0.086741
      6          6           0        1.326506    1.189660    0.189693
      7          6           0        0.774983   -0.095851    0.097253
      8          6           0        1.610810   -1.204256   -0.097141
      9          6           0       -0.693080   -0.282571    0.204764
     10          6           0       -1.566989    0.649594   -0.385411
     11          6           0       -2.939698    0.452908   -0.275471
     12          6           0       -3.463581   -0.657658    0.408467
     13          6           0       -4.973516   -0.567371    0.372566
     14          6           0       -5.207433    0.450700   -0.769591
     15          7           0       -3.975214    1.263114   -0.760895
     16          6           0       -2.605565   -1.572424    0.996607
     17          6           0       -1.221919   -1.387003    0.891202
     18          8           0        3.343909    2.566506    0.172366
     19          6           0        2.545200    3.720430    0.367143
     20          1           0        4.256421   -3.998734   -0.615100
     21          1           0        2.708570   -3.474056   -1.335107
     22          1           0        2.857205   -3.646301    0.438244
     23          1           0        4.620123    0.394601   -0.183557
     24          1           0        0.672509    2.031171    0.376432
     25          1           0        1.167675   -2.185658   -0.201957
     26          1           0       -1.166941    1.488998   -0.946473
     27          1           0       -5.474053   -1.522264    0.185608
     28          1           0       -5.359143   -0.172221    1.322670
     29          1           0       -5.329046   -0.081056   -1.726871
     30          1           0       -6.088754    1.078234   -0.609985
     31          1           0       -3.779274    1.770989   -1.615745
     32          1           0       -2.998861   -2.430951    1.535593
     33          1           0       -0.545691   -2.087788    1.369721
     34          1           0        1.832485    3.861745   -0.456227
     35          1           0        1.992229    3.674159    1.314548
     36          1           0        3.238085    4.563328    0.394148
 ---------------------------------------------------------------------

 SCF Done:  E(UB3LYP) =  -825.401770150     A.U. after   33 cycles
 SCF Done:  E(UB3LYP) =  -825.401965666     a.u. after    4 cycles

 The electronic state is 2-A.
 Alpha  occ. eigenvalues --  -19.06078 -19.05992 -14.21918 -10.13544 -10.13500
 Alpha  occ. eigenvalues --  -10.13497 -10.13373 -10.10556 -10.10054 -10.08067
 Alpha  occ. eigenvalues --  -10.08024 -10.07372 -10.06923 -10.06523 -10.06300
 Alpha  occ. eigenvalues --  -10.06202 -10.06039 -10.06015 -10.06003  -0.97714
 Alpha  occ. eigenvalues --   -0.97539  -0.84574  -0.76098  -0.73515  -0.68735
 Alpha  occ. eigenvalues --   -0.66573  -0.66046  -0.63031  -0.62021  -0.60958
 Alpha  occ. eigenvalues --   -0.59088  -0.53402  -0.51186  -0.50352  -0.48971
 Alpha  occ. eigenvalues --   -0.47132  -0.44391  -0.42179  -0.40463  -0.39501
 Alpha  occ. eigenvalues --   -0.39205  -0.38404  -0.38194  -0.37785  -0.36662
 Alpha  occ. eigenvalues --   -0.36053  -0.35002  -0.32707  -0.32280  -0.31277
 Alpha  occ. eigenvalues --   -0.30097  -0.29248  -0.29013  -0.28586  -0.28258
 Alpha  occ. eigenvalues --   -0.27344  -0.26650  -0.25307  -0.25134  -0.24912
 Alpha  occ. eigenvalues --   -0.24195  -0.22886  -0.21611  -0.19170  -0.15386
 Alpha  occ. eigenvalues --   -0.12556  -0.12314  -0.09853   0.04195
 Alpha virt. eigenvalues --    0.05581   0.05955   0.06016   0.07393   0.07763
 Alpha virt. eigenvalues --    0.08418   0.08885   0.09254   0.09571   0.09773
 Alpha virt. eigenvalues --    0.09845   0.10379   0.10747   0.10968   0.11528

  Beta  occ. eigenvalues --  -19.06079 -19.05990 -14.21900 -10.13520 -10.13504
  Beta  occ. eigenvalues --  -10.13500 -10.13351 -10.10526 -10.10071 -10.08062
  Beta  occ. eigenvalues --  -10.07951 -10.07315 -10.06908 -10.06447 -10.06273
  Beta  occ. eigenvalues --  -10.06168 -10.06037 -10.05943 -10.05936  -0.97707
  Beta  occ. eigenvalues --   -0.97532  -0.84541  -0.75985  -0.73434  -0.68611
  Beta  occ. eigenvalues --   -0.66485  -0.66000  -0.62953  -0.61938  -0.60885
  Beta  occ. eigenvalues --   -0.58995  -0.53255  -0.51124  -0.50281  -0.48928
  Beta  occ. eigenvalues --   -0.47058  -0.44339  -0.42122  -0.40432  -0.39459
  Beta  occ. eigenvalues --   -0.39137  -0.38340  -0.38162  -0.37765  -0.36586
  Beta  occ. eigenvalues --   -0.35984  -0.34957  -0.32664  -0.32209  -0.31226
  Beta  occ. eigenvalues --   -0.30039  -0.29161  -0.28915  -0.28527  -0.28177
  Beta  occ. eigenvalues --   -0.27295  -0.26495  -0.25275  -0.25092  -0.24882
  Beta  occ. eigenvalues --   -0.24132  -0.22823  -0.21426  -0.19077  -0.15041
  Beta  occ. eigenvalues --   -0.12367  -0.11940  -0.09634
  Beta virt. eigenvalues --    0.05978   0.06340   0.06620   0.06837   0.07714
  Beta virt. eigenvalues --    0.08250   0.08700   0.09141   0.09371   0.09719
  Beta virt. eigenvalues --    0.09908   0.10049   0.10562   0.10965   0.11127

 Mulliken charges and spin densities:
               1          2
     1  C    0.144647  -0.504086
     2  O   -0.185678   0.022649
     3  C   -0.847903   0.197153
     4  C   -0.344647  -0.067581
     5  C   -0.879885   0.238716
     6  C    0.063215  -0.048976
     7  C    1.246088  -0.349858
     8  C    0.118433  -0.019440
     9  C    1.451226  -0.189922
    10  C   -1.005103   0.238089
    11  C   -0.937840  -0.127474
    12  C    1.738055  -0.265636
    13  C    0.018254  -0.519123
    14  C    0.659153  -0.985487
    15  N   -0.226673   0.196976
    16  C   -0.871675   0.258695
    17  C   -0.455871   0.106398
    18  O   -0.187221   0.022435
    19  C    0.134598  -0.488228
    20  H   -0.172480   0.336225
    21  H    0.023492   0.127224
    22  H   -0.071788   0.223049
    23  H    0.157547   0.020200
    24  H    0.067803   0.046258
    25  H    0.208889  -0.098803
    26  H    0.061931   0.092136
    27  H    0.053552   0.081308
    28  H   -0.035579   0.199860
    29  H   -0.042166   0.181651
    30  H   -0.509515   0.693107
    31  H   -0.161214   0.407169
    32  H   -0.078027   0.216001
    33  H    0.029805   0.123563
    34  H   -0.024893   0.176545
    35  H   -0.045177   0.204070
    36  H   -0.093353   0.255137
 Sum of Mulliken charges =  -1.00000   1.00000

 Dipole moment (field-independent basis, Debye):
    X=              3.0700    Y=             -2.0775    Z=             -0.1594  Tot=              3.7103
 Quadrupole moment (field-independent basis, Debye-Ang):
   XX=           -214.6473   YY=           -155.8592   ZZ=           -138.0461
   XY=             14.1659   XZ=             -0.5876   YZ=              0.6547

 Summary of Natural Population Analysis:

                                       Natural Population
                Natural  -----------------------------------------------
    Atom  No    Charge         Core      Valence    Rydberg      Total
 -----------------------------------------------------------------------
      C    1   -0.10177      0.99960     2.09279    0.00937     3.10177
      O    2   -0.27615      0.99985     3.26667    0.00963     4.27615
      C    3    0.16840      0.99939     1.82039    0.01182     2.83160
      C    4   -0.13643      0.99949     2.12735    0.00959     3.13643
      C    5    0.16788      0.99939     1.82095    0.01177     2.83212
      C    6   -0.15009      0.99948     2.14352    0.00709     3.15009
      C    7    0.00906      0.99952     1.98207    0.00935     2.99094
      C    8   -0.15126      0.99948     2.14472    0.00706     3.15126
      C    9   -0.00939      0.99950     1.99978    0.01010     3.00939
      C   10   -0.10871      0.99948     2.10106    0.00816     3.10871
      C   11    0.08839      0.99944     1.90069    0.01147     2.91161
      C   12   -0.02369      0.99947     2.01548    0.00874     3.02369
      C   13   -0.19983      0.99961     2.19159    0.00863     3.19983
      C   14   -0.07891      0.99964     2.06876    0.01050     3.07891
      N   15   -0.31875      0.99969     2.80785    0.01121     3.81875
      C   16   -0.09366      0.99952     2.08520    0.00894     3.09366
      C   17   -0.11198      0.99954     2.10441    0.00804     3.11198
      O   18   -0.27602      0.99986     3.26670    0.00947     4.27602
      C   19   -0.10198      0.99961     2.09307    0.00931     3.10198
      H   20    0.09153      0.00000     0.40748    0.00099     0.40847
      H   21    0.08356      0.00000     0.41528    0.00116     0.41644
      H   22    0.08551      0.00000     0.41315    0.00134     0.41449
      H   23    0.10671      0.00000     0.39153    0.00177     0.39329
      H   24    0.10681      0.00000     0.39176    0.00143     0.39319
      H   25    0.10534      0.00000     0.39326    0.00140     0.39466
      H   26    0.10057      0.00000     0.39783    0.00160     0.39943
      H   27    0.10194      0.00000     0.39710    0.00096     0.39806
      H   28    0.10306      0.00000     0.39544    0.00150     0.39694
      H   29    0.08158      0.00000     0.41691    0.00151     0.41842
      H   30    0.09598      0.00000     0.40153    0.00249     0.40402
      H   31    0.18450      0.00000     0.31212    0.00338     0.31550
      H   32    0.09695      0.00000     0.40220    0.00085     0.40305
      H   33    0.09914      0.00000     0.39938    0.00148     0.40086
      H   34    0.08495      0.00000     0.41383    0.00122     0.41505
      H   35    0.08577      0.00000     0.41297    0.00126     0.41423
      H   36    0.09098      0.00000     0.40810    0.00092     0.40902
 =======================================================================
   * Total *   -0.00000     18.99156    48.80292    0.20552    68.00000

 Normal termination of Gaussian 16 at Sun Dec 13 15:06:52 2020.
