 Gaussian 16, Revision A.03,

 -----------------------------------------------------------
 # opt freq B3LYP/6-31G(d) empiricaldispersion=gd3bj scf=xqc
 -----------------------------------------------------------

 -------------------------------
 CID_150448846_JID_1325_neutraal
 -------------------------------
 Symbolic Z-matrix:
 Charge =  0 Multiplicity = 1

 SCF Done:  E(RB3LYP) =  -551.050970215     A.U. after   15 cycles
 SCF Done:  E(RB3LYP) =  -551.056975733     A.U. after   14 cycles
 SCF Done:  E(RB3LYP) =  -551.058813996     A.U. after   14 cycles
 SCF Done:  E(RB3LYP) =  -551.059549399     A.U. after   14 cycles
 SCF Done:  E(RB3LYP) =  -551.059913825     A.U. after   16 cycles
 SCF Done:  E(RB3LYP) =  -551.060650857     A.U. after   15 cycles
 SCF Done:  E(RB3LYP) =  -551.061657482     A.U. after   16 cycles
 SCF Done:  E(RB3LYP) =  -551.060253601     A.U. after   16 cycles
 SCF Done:  E(RB3LYP) =  -551.062757020     A.U. after   14 cycles
 SCF Done:  E(RB3LYP) =  -551.063528797     A.U. after   13 cycles
 SCF Done:  E(RB3LYP) =  -551.065974606     A.U. after   12 cycles
 SCF Done:  E(RB3LYP) =  -551.066008959     A.U. after   11 cycles
 SCF Done:  E(RB3LYP) =  -551.066025999     A.U. after   11 cycles
 SCF Done:  E(RB3LYP) =  -551.066027446     A.U. after    8 cycles
 SCF Done:  E(RB3LYP) =  -551.066027817     A.U. after    8 cycles
 SCF Done:  E(RB3LYP) =  -551.066027901     A.U. after    7 cycles
 Optimization completed.
    -- Stationary point found.
 Normal termination of Gaussian 16 at Tue Dec  8 19:49:57 2020.

 --------------------------------------------------------------------
 #N Geom=AllCheck Guess=TCheck SCRF=Check GenChk RB3LYP/6-31G(d) Freq
 --------------------------------------------------------------------

 Structure from the checkpoint file:  "JID_1325.chk"
 -------------------------------
 CID_150448846_JID_1325_neutraal
 -------------------------------
 Charge =  0 Multiplicity = 1

 SCF Done:  E(RB3LYP) =  -551.066027901     A.U. after    1 cycles

  Exact polarizability:  96.119   0.608 102.906   2.948  -1.947  71.164
 Approx polarizability: 117.232 -11.355 186.998   5.387  -6.193 106.220

                      1                      2                      3
                      A                      A                      A
 Frequencies --     26.6447                37.5402                59.7429
 Red. masses --      4.7741                 3.7488                 4.6854
 Frc consts  --      0.0020                 0.0031                 0.0099
 IR Inten    --      0.3746                 0.1043                 0.1000

                      4                      5                      6
                      A                      A                      A
 Frequencies --     74.6475                88.2858               152.0274
 Red. masses --      6.2810                 3.1952                 3.3461
 Frc consts  --      0.0206                 0.0147                 0.0456
 IR Inten    --      1.2064                 0.2039                 2.8712

                      7                      8                      9
                      A                      A                      A
 Frequencies --    176.6545               230.1412               262.3314
 Red. masses --      2.4402                 1.5087                 7.6351
 Frc consts  --      0.0449                 0.0471                 0.3096
 IR Inten    --      0.3904                 0.5923                11.2440

                     10                     11                     12
                      A                      A                      A
 Frequencies --    281.1498               298.0505               337.9986
 Red. masses --      3.6395                 1.7768                 2.2543
 Frc consts  --      0.1695                 0.0930                 0.1517
 IR Inten    --      1.4412                 2.7968                 1.8140

                     13                     14                     15
                      A                      A                      A
 Frequencies --    406.9680               453.1328               540.9354
 Red. masses --      2.1580                 2.1554                 3.1164
 Frc consts  --      0.2106                 0.2607                 0.5373
 IR Inten    --      6.4304                 3.1449                 0.8469

                     16                     17                     18
                      A                      A                      A
 Frequencies --    546.6332               618.5159               700.9933
 Red. masses --      8.3406                 5.3467                 7.8997
 Frc consts  --      1.4684                 1.2051                 2.2871
 IR Inten    --     13.1756                 4.1065                 3.0702

                     19                     20                     21
                      A                      A                      A
 Frequencies --    732.7920               788.6797               849.9114
 Red. masses --      1.2701                 1.7884                 1.8367
 Frc consts  --      0.4018                 0.6554                 0.7817
 IR Inten    --      8.8794                 0.2688                 1.4621

                     22                     23                     24
                      A                      A                      A
 Frequencies --    867.0671               902.6031               917.6198
 Red. masses --     10.0430                 1.7709                 2.0991
 Frc consts  --      4.4485                 0.8500                 1.0414
 IR Inten    --     10.5176                14.8230                 2.9038

                     25                     26                     27
                      A                      A                      A
 Frequencies --    973.3141              1000.3933              1030.4922
 Red. masses --      6.7603                 1.7343                 1.6301
 Frc consts  --      3.7733                 1.0226                 1.0199
 IR Inten    --    136.7336                14.3076                 2.4838

                     28                     29                     30
                      A                      A                      A
 Frequencies --   1044.4142              1100.6279              1132.0464
 Red. masses --      1.7140                 1.8777                 2.6021
 Frc consts  --      1.1016                 1.3401                 1.9647
 IR Inten    --      2.9146                 3.4919                59.4894

                     31                     32                     33
                      A                      A                      A
 Frequencies --   1158.6877              1161.2956              1165.1299
 Red. masses --      4.8628                 2.0520                 4.3826
 Frc consts  --      3.8466                 1.6305                 3.5053
 IR Inten    --     12.6142                41.7715               151.9290

                     34                     35                     36
                      A                      A                      A
 Frequencies --   1191.1377              1250.2860              1268.2929
 Red. masses --      2.2775                 1.2581                 1.2897
 Frc consts  --      1.9039                 1.1588                 1.2223
 IR Inten    --     28.9047                 3.3172                 3.7789

                     37                     38                     39
                      A                      A                      A
 Frequencies --   1307.8555              1324.5435              1346.3669
 Red. masses --      1.1773                 1.1188                 1.1096
 Frc consts  --      1.1864                 1.1565                 1.1851
 IR Inten    --      2.2975                11.2330                 4.4891

                     40                     41                     42
                      A                      A                      A
 Frequencies --   1385.9719              1403.3768              1416.1322
 Red. masses --      1.3801                 1.4498                 1.3064
 Frc consts  --      1.5619                 1.6823                 1.5436
 IR Inten    --      7.9497                 4.5235                 7.8732

                     43                     44                     45
                      A                      A                      A
 Frequencies --   1430.8088              1443.6375              1450.2402
 Red. masses --      1.2762                 1.2720                 1.3458
 Frc consts  --      1.5393                 1.5619                 1.6677
 IR Inten    --     14.9019                 3.9277                 9.3085

                     46                     47                     48
                      A                      A                      A
 Frequencies --   1506.8789              1510.7155              1520.4728
 Red. masses --      1.0753                 1.1030                 1.0948
 Frc consts  --      1.4386                 1.4832                 1.4912
 IR Inten    --      3.2681                 2.7151                 7.2082

                     49                     50                     51
                      A                      A                      A
 Frequencies --   1523.8332              1534.1254              1540.0555
 Red. masses --      1.0615                 1.0533                 1.0684
 Frc consts  --      1.4522                 1.4606                 1.4929
 IR Inten    --      0.3308                 7.1850                 2.1119

                     52                     53                     54
                      A                      A                      A
 Frequencies --   1556.6507              2194.7930              3018.4625
 Red. masses --      1.0876                13.9490                 1.0628
 Frc consts  --      1.5528                39.5897                 5.7054
 IR Inten    --      3.6715               255.2859                32.3655

                     55                     56                     57
                      A                      A                      A
 Frequencies --   3037.9090              3039.9245              3041.7460
 Red. masses --      1.0678                 1.0600                 1.0618
 Frc consts  --      5.8063                 5.7713                 5.7881
 IR Inten    --     18.2248                 4.0617                68.8486

                     58                     59                     60
                      A                      A                      A
 Frequencies --   3043.8724              3052.5167              3068.8953
 Red. masses --      1.0391                 1.0639                 1.0985
 Frc consts  --      5.6725                 5.8406                 6.0958
 IR Inten    --     23.2960                15.8712                47.1492

                     61                     62                     63
                      A                      A                      A
 Frequencies --   3073.6630              3085.4278              3099.5723
 Red. masses --      1.0959                 1.1020                 1.0996
 Frc consts  --      6.1002                 6.1811                 6.2243
 IR Inten    --     18.0750                27.7515                60.3181

                     64                     65                     66
                      A                      A                      A
 Frequencies --   3109.1185              3114.0624              3136.0207
 Red. masses --      1.1021                 1.1016                 1.1048
 Frc consts  --      6.2767                 6.2942                 6.4017
 IR Inten    --     59.1457                44.0612                25.2158

 - Thermochemistry -
 -------------------
 Temperature   298.150 Kelvin.  Pressure   1.00000 Atm.
 Atom     1 has atomic number  6 and mass  12.00000

 Molecular mass:   159.10078 amu.
 Principal axes and moments of inertia in atomic units:
                           1         2         3
     Eigenvalues --   805.889523529.700913973.83623
           X            0.99996  -0.00759   0.00387
           Y            0.00760   0.99996  -0.00352
           Z           -0.00384   0.00355   0.99999
 This molecule is an asymmetric top.
 Rotational symmetry number  1.
 Warning -- assumption of classical behavior for rotation
           may cause significant error
 Rotational temperatures (Kelvin)      0.10748     0.02454     0.02180
 Rotational constants (GHZ):           2.23944     0.51130     0.45416
 Zero-point vibrational energy     533204.5 (Joules/Mol)
                                  127.43894 (Kcal/Mol)
 Warning -- explicit consideration of  17 degrees of freedom as
           vibrations may cause significant error
 Vibrational temperatures:     38.34    54.01    85.96   107.40   127.02
          (Kelvin)            218.73   254.17   331.12   377.44   404.51
                              428.83   486.30   585.54   651.96   778.29
                              786.48   889.91  1008.57  1054.32  1134.73
                             1222.83  1247.52  1298.64  1320.25  1400.38
                             1439.34  1482.65  1502.68  1583.56  1628.76
                             1667.09  1670.85  1676.36  1713.78  1798.88
                             1824.79  1881.71  1905.72  1937.12  1994.10
                             2019.15  2037.50  2058.61  2077.07  2086.57
                             2168.06  2173.58  2187.62  2192.46  2207.26
                             2215.80  2239.67  3157.82  4342.89  4370.87
                             4373.77  4376.39  4379.45  4391.89  4415.46
                             4422.32  4439.24  4459.59  4473.33  4480.44
                             4512.03

 Zero-point correction=                           0.203087 (Hartree/Particle)
 Thermal correction to Energy=                    0.215504
 Thermal correction to Enthalpy=                  0.216448
 Thermal correction to Gibbs Free Energy=         0.162342
 Sum of electronic and zero-point Energies=           -550.862941
 Sum of electronic and thermal Energies=              -550.850524
 Sum of electronic and thermal Enthalpies=            -550.849580
 Sum of electronic and thermal Free Energies=         -550.903686

                     E (Thermal)             CV                S
                      KCal/Mol        Cal/Mol-Kelvin    Cal/Mol-Kelvin
 Total                  135.231             43.302            113.876
 Electronic               0.000              0.000              0.000
 Translational            0.889              2.981             41.102
 Rotational               0.889              2.981             30.803
 Vibrational            133.453             37.341             41.971
 Vibration     1          0.593              1.984              6.065
 Vibration     2          0.594              1.982              5.385
 Vibration     3          0.597              1.973              4.466
 Vibration     4          0.599              1.966              4.027
 Vibration     5          0.601              1.957              3.698
 Vibration     6          0.619              1.900              2.647
 Vibration     7          0.628              1.871              2.363
 Vibration     8          0.652              1.795              1.878
 Vibration     9          0.670              1.742              1.646
 Vibration    10          0.681              1.709              1.527
 Vibration    11          0.691              1.677              1.428
 Vibration    12          0.718              1.600              1.222
 Vibration    13          0.772              1.455              0.937
 Vibration    14          0.812              1.354              0.786
 Vibration    15          0.896              1.160              0.563
 Vibration    16          0.902              1.147              0.551
 Vibration    17          0.978              0.993              0.419

 Optimization completed.
    -- Stationary point found.
 Normal termination of Gaussian 16 at Tue Dec  8 19:54:52 2020.

 ----------------------------------------------------------------------
 # B3LYP/6-311++G(d,p) empiricaldispersion=gd3bj scf=xqc pop=npa geom=c
 heck
 ----------------------------------------------------------------------

 ---------------------------------------
 CID_150448846_JID_1325_Energie_neutraal
 ---------------------------------------
 Structure from the checkpoint file:  "JID_1325.chk"
 Charge =  0 Multiplicity = 1

 SCF Done:  E(RB3LYP) =  -551.225415043     A.U. after   15 cycles
 Normal termination of Gaussian 16 at Tue Dec  8 19:57:04 2020.

 ----------------------------------------------------------------------
 # B3LYP/6-311++G(d,p) empiricaldispersion=gd3bj scf=xqc pop=npa geom=c
 heck
 ----------------------------------------------------------------------

 -------------------------------------
 CID_150448846_JID_1325_Energie_kation
 -------------------------------------
 Structure from the checkpoint file:  "JID_1325.chk"
 Charge =  1 Multiplicity = 2

 SCF Done:  E(UB3LYP) =  -550.872142810     A.U. after   28 cycles
 Normal termination of Gaussian 16 at Tue Dec  8 20:03:10 2020.
 Gaussian 16:  ES64L-G16RevA.03 25-Dec-2016

 ----------------------------------------------------------------------
 # B3LYP/6-311++G(d,p) empiricaldispersion=gd3bj scf=xqc pop=npa geom=c
 heck
 ----------------------------------------------------------------------

 ------------------------------------
 CID_150448846_JID_1325_Energie_anion
 ------------------------------------
 Structure from the checkpoint file:  "JID_1325.chk"
 Charge = -1 Multiplicity = 2

                         Standard orientation:
 ---------------------------------------------------------------------
 Center     Atomic      Atomic             Coordinates (Angstroms)
 Number     Number       Type             X           Y           Z
 ---------------------------------------------------------------------
      1          6           0        4.052578    0.210490    0.618540
      2          6           0        3.149956    0.343307   -0.611791
      3          6           0        2.163291   -0.818930   -0.796278
      4          6           0        1.185922   -1.038120    0.368912
      5          6           0        0.349978    0.183422    0.717771
      6          8           0       -0.351093    0.598752   -0.462924
      7          6           0       -1.282804    1.603537   -0.251588
      8          8           0       -2.413510    1.164351    0.503787
      9          7           0       -3.182349    0.241224   -0.300368
     10          7           0       -2.775319   -0.922239   -0.049024
     11          7           0       -2.541647   -2.028538    0.095376
     12          1           0        3.478222    0.238796    1.551701
     13          1           0        4.786445    1.022891    0.661179
     14          1           0        4.604271   -0.737640    0.600782
     15          1           0        2.596195    1.290275   -0.564190
     16          1           0        3.775527    0.409409   -1.511280
     17          1           0        1.582491   -0.648760   -1.709520
     18          1           0        2.727662   -1.748543   -0.951023
     19          1           0        0.506331   -1.861729    0.117766
     20          1           0        1.725241   -1.342335    1.274835
     21          1           0       -0.367920   -0.055818    1.511955
     22          1           0        0.977135    1.015167    1.071507
     23          1           0       -0.889719    2.427070    0.360837
     24          1           0       -1.603378    1.951035   -1.236733
 ---------------------------------------------------------------------

 SCF Done:  E(UB3LYP) =  -551.233257976     A.U. after   30 cycles

 The electronic state is 2-A.
 Alpha  occ. eigenvalues --  -19.01396 -19.01040 -14.26890 -14.22041 -14.19032
 Alpha  occ. eigenvalues --  -10.14068 -10.10191 -10.06238 -10.05803 -10.05701
 Alpha  occ. eigenvalues --  -10.05523  -0.98044  -0.93798  -0.89237  -0.75381
 Alpha  occ. eigenvalues --   -0.69897  -0.64469  -0.58388  -0.54157  -0.50772
 Alpha  occ. eigenvalues --   -0.45614  -0.42330  -0.39414  -0.37626  -0.36283
 Alpha  occ. eigenvalues --   -0.34885  -0.33587  -0.32776  -0.31845  -0.30088
 Alpha  occ. eigenvalues --   -0.29123  -0.28004  -0.27699  -0.26818  -0.24965
 Alpha  occ. eigenvalues --   -0.22876  -0.22046  -0.21820  -0.21208  -0.19194
 Alpha  occ. eigenvalues --   -0.16560  -0.13713  -0.08701   0.04751
 Alpha virt. eigenvalues --    0.06235   0.08594   0.08613   0.09474   0.11116
 Alpha virt. eigenvalues --    0.11659   0.11881   0.12407   0.12841   0.14159
 Alpha virt. eigenvalues --    0.14364   0.15417   0.16216   0.17235   0.17447

  Beta  occ. eigenvalues --  -19.01392 -19.00706 -14.26409 -14.22041 -14.18273
  Beta  occ. eigenvalues --  -10.14068 -10.10186 -10.06228 -10.05771 -10.05698
  Beta  occ. eigenvalues --  -10.05512  -0.97337  -0.93389  -0.88593  -0.74719
  Beta  occ. eigenvalues --   -0.69868  -0.64426  -0.58321  -0.53960  -0.50616
  Beta  occ. eigenvalues --   -0.45470  -0.41936  -0.39309  -0.37545  -0.36174
  Beta  occ. eigenvalues --   -0.34577  -0.32494  -0.31967  -0.31429  -0.29890
  Beta  occ. eigenvalues --   -0.28740  -0.27659  -0.26800  -0.26469  -0.24883
  Beta  occ. eigenvalues --   -0.22668  -0.22017  -0.21793  -0.20592  -0.18207
  Beta  occ. eigenvalues --   -0.16495  -0.13207  -0.08396
  Beta virt. eigenvalues --    0.06906   0.08752   0.08794   0.09656   0.11040
  Beta virt. eigenvalues --    0.11592   0.12024   0.12154   0.12589   0.13275
  Beta virt. eigenvalues --    0.14162   0.14353   0.15434   0.16282   0.17371

 Mulliken charges and spin densities:
               1          2
     1  C    0.773568  -1.384344
     2  C   -0.620809   0.511062
     3  C   -0.123882  -0.093503
     4  C   -0.104818  -0.205539
     5  C   -0.332546  -0.108194
     6  O   -0.069657   0.003875
     7  C   -0.120708   0.029858
     8  O   -0.074809   0.027747
     9  N   -0.549475  -0.004570
    10  N    0.570911   0.131649
    11  N   -0.590603   0.468647
    12  H   -0.137700   0.274362
    13  H   -0.414884   0.549477
    14  H   -0.078142   0.207192
    15  H    0.109816   0.028585
    16  H   -0.185617   0.333201
    17  H    0.191969  -0.024440
    18  H    0.005258   0.118035
    19  H    0.210807  -0.005064
    20  H    0.040869   0.080124
    21  H    0.187853  -0.025259
    22  H    0.084690   0.049556
    23  H    0.122512   0.018930
    24  H    0.105397   0.018613
 Sum of Mulliken charges =  -1.00000   1.00000

 Dipole moment (field-independent basis, Debye):
    X=              1.9994    Y=              1.4962    Z=             -0.3931  Tot=              2.5280
 Quadrupole moment (field-independent basis, Debye-Ang):
   XX=           -143.9577   YY=            -89.8513   ZZ=            -80.7627
   XY=             -8.9794   XZ=             -2.3971   YZ=             -0.7853

 Summary of Natural Population Analysis:

                                       Natural Population
                Natural  -----------------------------------------------
    Atom  No    Charge         Core      Valence    Rydberg      Total
 -----------------------------------------------------------------------
      C    1   -0.28843      0.99967     2.28342    0.00534     3.28843
      C    2   -0.19462      0.99964     2.18566    0.00932     3.19462
      C    3   -0.19043      0.99963     2.18183    0.00898     3.19043
      C    4   -0.20497      0.99962     2.19570    0.00965     3.20497
      C    5   -0.01585      0.99958     2.00379    0.01248     3.01585
      O    6   -0.30369      0.99988     3.29472    0.00910     4.30369
      C    7    0.13936      0.99965     1.84241    0.01858     2.86064
      O    8   -0.21124      0.99990     3.20221    0.00912     4.21124
      N    9   -0.10733      0.99973     2.58989    0.01770     3.60733
      N   10    0.13154      0.99971     2.35332    0.01543     3.36846
      N   11    0.05261      0.99981     2.43389    0.01369     3.44739
      H   12    0.09562      0.00000     0.40330    0.00108     0.40438
      H   13    0.09899      0.00000     0.39973    0.00128     0.40101
      H   14    0.09426      0.00000     0.40467    0.00107     0.40574
      H   15    0.09531      0.00000     0.40339    0.00129     0.40469
      H   16    0.09365      0.00000     0.40534    0.00102     0.40635
      H   17    0.10339      0.00000     0.39550    0.00111     0.39661
      H   18    0.09145      0.00000     0.40761    0.00094     0.40855
      H   19    0.11070      0.00000     0.38816    0.00113     0.38930
      H   20    0.09519      0.00000     0.40393    0.00087     0.40481
      H   21    0.09332      0.00000     0.40515    0.00153     0.40668
      H   22    0.07542      0.00000     0.42293    0.00165     0.42458
      H   23    0.06757      0.00000     0.43057    0.00186     0.43243
      H   24    0.07819      0.00000     0.42066    0.00115     0.42181
 =======================================================================
   * Total *   -0.00000     10.99683    31.85779    0.14538    43.00000

 Normal termination of Gaussian 16 at Tue Dec  8 20:09:17 2020.
