 Gaussian 16, Revision A.03,

 -----------------------------------------------------------
 # opt freq B3LYP/6-31G(d) empiricaldispersion=gd3bj scf=xqc
 -----------------------------------------------------------

 -------------------------------
 CID_149325983_JID_8930_neutraal
 -------------------------------
 Symbolic Z-matrix:
 Charge =  0 Multiplicity = 1

 SCF Done:  E(RB3LYP) =  -829.033633521     A.U. after   15 cycles
 SCF Done:  E(RB3LYP) =  -829.038549472     A.U. after   12 cycles
 SCF Done:  E(RB3LYP) =  -829.038957920     A.U. after   12 cycles
 SCF Done:  E(RB3LYP) =  -829.039908717     A.U. after   13 cycles
 SCF Done:  E(RB3LYP) =  -829.040211325     A.U. after   12 cycles
 SCF Done:  E(RB3LYP) =  -829.040382452     A.U. after   11 cycles
 SCF Done:  E(RB3LYP) =  -829.040440719     A.U. after   11 cycles
 SCF Done:  E(RB3LYP) =  -829.040449773     A.U. after    9 cycles
 SCF Done:  E(RB3LYP) =  -829.040444697     A.U. after    9 cycles
 SCF Done:  E(RB3LYP) =  -829.040447883     A.U. after    9 cycles
 SCF Done:  E(RB3LYP) =  -829.040460642     A.U. after    8 cycles
 SCF Done:  E(RB3LYP) =  -829.040459808     A.U. after    7 cycles
 SCF Done:  E(RB3LYP) =  -829.040458363     A.U. after    7 cycles
 SCF Done:  E(RB3LYP) =  -829.040459216     A.U. after    8 cycles
 Optimization completed.
    -- Stationary point found.
 Normal termination of Gaussian 16 at Fri Dec 11 23:07:55 2020.

 --------------------------------------------------------------------
 #N Geom=AllCheck Guess=TCheck SCRF=Check GenChk RB3LYP/6-31G(d) Freq
 --------------------------------------------------------------------

 Structure from the checkpoint file:  "JID_8930.chk"
 -------------------------------
 CID_149325983_JID_8930_neutraal
 -------------------------------
 Charge =  0 Multiplicity = 1

 SCF Done:  E(RB3LYP) =  -829.040459216     A.U. after    1 cycles

  Exact polarizability: 200.498   9.010 139.885  -2.838  -7.583 147.147
 Approx polarizability: 237.725  21.679 210.718 -13.113 -23.800 232.272

                      1                      2                      3
                      A                      A                      A
 Frequencies --     21.1192                28.4649                55.8211
 Red. masses --      3.9058                 3.6443                 4.0278
 Frc consts  --      0.0010                 0.0017                 0.0074
 IR Inten    --      1.0285                 0.2497                 1.1406

                      4                      5                      6
                      A                      A                      A
 Frequencies --     58.8076               100.0965               115.3473
 Red. masses --      5.1546                 3.1883                 3.6710
 Frc consts  --      0.0105                 0.0188                 0.0288
 IR Inten    --      0.7480                 1.9552                 0.3518

                      7                      8                      9
                      A                      A                      A
 Frequencies --    125.6482               130.7753               173.4242
 Red. masses --      3.4447                 3.3165                 3.2163
 Frc consts  --      0.0320                 0.0334                 0.0570
 IR Inten    --      1.2027                 1.4239                 0.7539

                     10                     11                     12
                      A                      A                      A
 Frequencies --    203.7867               211.3426               221.2388
 Red. masses --      2.7535                 1.1395                 3.4442
 Frc consts  --      0.0674                 0.0300                 0.0993
 IR Inten    --      2.1023                 0.2577                 2.4266

                     13                     14                     15
                      A                      A                      A
 Frequencies --    246.1333               255.2334               261.1850
 Red. masses --      1.2693                 1.0537                 2.7702
 Frc consts  --      0.0453                 0.0404                 0.1113
 IR Inten    --     24.4636                 0.2191                 0.6881

                     16                     17                     18
                      A                      A                      A
 Frequencies --    275.2976               294.9418               301.0389
 Red. masses --      1.0708                 2.1488                 1.3336
 Frc consts  --      0.0478                 0.1101                 0.0712
 IR Inten    --      0.0553                 3.6928               104.9411

                     19                     20                     21
                      A                      A                      A
 Frequencies --    323.6152               332.5485               352.4660
 Red. masses --      3.0770                 1.7942                 2.4865
 Frc consts  --      0.1899                 0.1169                 0.1820
 IR Inten    --      9.5888                38.3142                 2.0051

                     22                     23                     24
                      A                      A                      A
 Frequencies --    367.1471               395.3139               407.3383
 Red. masses --      2.7657                 4.2569                 2.2760
 Frc consts  --      0.2196                 0.3919                 0.2225
 IR Inten    --      1.8999                 9.4942                 2.0346

                     25                     26                     27
                      A                      A                      A
 Frequencies --    426.6426               431.6824               451.6430
 Red. masses --      2.3441                 2.5654                 2.2320
 Frc consts  --      0.2514                 0.2817                 0.2682
 IR Inten    --     10.2510                 0.8391                 8.3312

                     28                     29                     30
                      A                      A                      A
 Frequencies --    458.5207               463.4240               488.5514
 Red. masses --      3.1919                 2.9110                 3.2162
 Frc consts  --      0.3954                 0.3683                 0.4523
 IR Inten    --      7.7271                 2.6231                 2.3081

                     31                     32                     33
                      A                      A                      A
 Frequencies --    528.9541               562.9075               652.8166
 Red. masses --      3.7191                 4.1316                 3.0407
 Frc consts  --      0.6131                 0.7713                 0.7635
 IR Inten    --      3.1921                 0.6897                 9.3888

                     34                     35                     36
                      A                      A                      A
 Frequencies --    691.5292               709.9808               749.8325
 Red. masses --      3.7998                 2.9800                 3.3404
 Frc consts  --      1.0706                 0.8850                 1.1066
 IR Inten    --      5.8648                 5.2612                 6.0419

                     37                     38                     39
                      A                      A                      A
 Frequencies --    793.7545               797.2384               816.9638
 Red. masses --      1.6229                 3.4843                 3.5953
 Frc consts  --      0.6025                 1.3048                 1.4138
 IR Inten    --      2.0600                 4.3416                 1.9476

                     40                     41                     42
                      A                      A                      A
 Frequencies --    867.1086               867.9709               893.0831
 Red. masses --      3.8029                 1.3513                 2.0593
 Frc consts  --      1.6846                 0.5998                 0.9677
 IR Inten    --     19.4901                58.4113                 5.3498

                     43                     44                     45
                      A                      A                      A
 Frequencies --    904.4747               937.5880               937.9822
 Red. masses --      1.9933                 1.6293                 1.6378
 Frc consts  --      0.9607                 0.8438                 0.8490
 IR Inten    --     55.8813                 0.9998                 0.1545

                     46                     47                     48
                      A                      A                      A
 Frequencies --    947.7255               967.6413               981.9846
 Red. masses --      1.9643                 2.0130                 1.1977
 Frc consts  --      1.0395                 1.1105                 0.6805
 IR Inten    --      5.3950                62.7703                 0.2428

                     49                     50                     51
                      A                      A                      A
 Frequencies --    985.6360               999.2195              1016.6432
 Red. masses --      2.0888                 2.4694                 2.5349
 Frc consts  --      1.1956                 1.4527                 1.5436
 IR Inten    --      5.8979                36.1489                29.5266

                     52                     53                     54
                      A                      A                      A
 Frequencies --   1019.7491              1039.3442              1066.7108
 Red. masses --      1.8982                 1.3404                 1.6064
 Frc consts  --      1.1630                 0.8531                 1.0770
 IR Inten    --     14.2263                28.0836                 0.4018

                     55                     56                     57
                      A                      A                      A
 Frequencies --   1066.8276              1075.2365              1081.1509
 Red. masses --      1.6692                 1.4886                 1.9221
 Frc consts  --      1.1193                 1.0140                 1.3237
 IR Inten    --      0.1714                 3.2078                27.5513

                     58                     59                     60
                      A                      A                      A
 Frequencies --   1093.0508              1115.4441              1141.0370
 Red. masses --      1.9448                 2.5538                 1.8224
 Frc consts  --      1.3690                 1.8721                 1.3980
 IR Inten    --     10.0607                32.7878                26.6083

                     61                     62                     63
                      A                      A                      A
 Frequencies --   1159.7361              1179.1100              1200.3839
 Red. masses --      1.5121                 1.7084                 1.1024
 Frc consts  --      1.1982                 1.3994                 0.9359
 IR Inten    --     28.9578                12.2152                 4.0455

                     64                     65                     66
                      A                      A                      A
 Frequencies --   1221.0107              1240.4398              1277.2393
 Red. masses --      2.3328                 1.2489                 1.3659
 Frc consts  --      2.0491                 1.1322                 1.3128
 IR Inten    --    351.1877                 8.8690                 9.1481

                     67                     68                     69
                      A                      A                      A
 Frequencies --   1286.0990              1291.3992              1298.9017
 Red. masses --      2.7067                 1.4963                 2.2076
 Frc consts  --      2.6377                 1.4702                 2.1944
 IR Inten    --     15.5114                27.7452                33.1330

                     70                     71                     72
                      A                      A                      A
 Frequencies --   1323.2925              1329.6457              1336.9255
 Red. masses --      1.8712                 2.9581                 1.3690
 Frc consts  --      1.9306                 3.0813                 1.4417
 IR Inten    --    149.1387               195.4962                 6.5829

                     73                     74                     75
                      A                      A                      A
 Frequencies --   1345.4323              1357.8422              1370.6798
 Red. masses --      1.4333                 1.4344                 1.3533
 Frc consts  --      1.5286                 1.5582                 1.4981
 IR Inten    --      1.0586                13.2327                 7.5629

                     76                     77                     78
                      A                      A                      A
 Frequencies --   1379.7388              1394.5020              1405.0167
 Red. masses --      1.5787                 1.3792                 1.5768
 Frc consts  --      1.7707                 1.5802                 1.8340
 IR Inten    --      9.3293                 0.9659                13.8481

                     79                     80                     81
                      A                      A                      A
 Frequencies --   1419.7374              1423.0371              1426.8203
 Red. masses --      1.3770                 1.2814                 1.2944
 Frc consts  --      1.6353                 1.5289                 1.5525
 IR Inten    --      6.4681                17.2115                25.7278

                     82                     83                     84
                      A                      A                      A
 Frequencies --   1432.6948              1450.8566              1451.6820
 Red. masses --      1.6576                 1.4301                 1.2426
 Frc consts  --      2.0046                 1.7737                 1.5428
 IR Inten    --     17.5924                12.5557                17.6392

                     85                     86                     87
                      A                      A                      A
 Frequencies --   1500.1119              1510.9560              1514.3343
 Red. masses --      1.0470                 1.0802                 1.0813
 Frc consts  --      1.3882                 1.4530                 1.4610
 IR Inten    --      0.5221                 0.9661                 3.9165

                     88                     89                     90
                      A                      A                      A
 Frequencies --   1518.2373              1520.2540              1520.6485
 Red. masses --      1.0919                 1.0473                 1.0515
 Frc consts  --      1.4829                 1.4261                 1.4326
 IR Inten    --     10.4307                 0.4391                 0.5557

                     91                     92                     93
                      A                      A                      A
 Frequencies --   1524.8635              1532.0958              1535.5081
 Red. masses --      1.0650                 1.0877                 1.0525
 Frc consts  --      1.4590                 1.5043                 1.4621
 IR Inten    --     19.8247                 4.9062                 1.0541

                     94                     95                     96
                      A                      A                      A
 Frequencies --   1537.4826              1557.2991              1700.8983
 Red. masses --      1.0969                 1.0551                 1.0911
 Frc consts  --      1.5277                 1.5076                 1.8598
 IR Inten    --      0.7811                11.9981                47.2638

                     97                     98                     99
                      A                      A                      A
 Frequencies --   1714.9909              1787.0660              2925.5996
 Red. masses --      6.5164                10.0458                 1.0740
 Frc consts  --     11.2923                18.9023                 5.4160
 IR Inten    --     20.8407               287.2710                98.6354

                    100                    101                    102
                      A                      A                      A
 Frequencies --   2992.3339              3015.7948              3044.8918
 Red. masses --      1.0817                 1.0707                 1.0661
 Frc consts  --      5.7068                 5.7377                 5.8235
 IR Inten    --     23.3734                55.3496                28.4205

                    103                    104                    105
                      A                      A                      A
 Frequencies --   3053.7203              3057.1493              3059.0517
 Red. masses --      1.0633                 1.0354                 1.0385
 Frc consts  --      5.8421                 5.7015                 5.7256
 IR Inten    --     46.8297                 9.6160                23.8289

                    106                    107                    108
                      A                      A                      A
 Frequencies --   3062.9640              3066.0941              3087.3968
 Red. masses --      1.0684                 1.0385                 1.1018
 Frc consts  --      5.9054                 5.7521                 6.1878
 IR Inten    --     35.3236                23.1766                12.9442

                    109                    110                    111
                      A                      A                      A
 Frequencies --   3093.8547              3096.6718              3115.4820
 Red. masses --      1.0924                 1.0897                 1.0948
 Frc consts  --      6.1609                 6.1568                 6.2606
 IR Inten    --      7.3495                41.8166                44.6065

                    112                    113                    114
                      A                      A                      A
 Frequencies --   3120.9566              3122.8539              3126.4981
 Red. masses --      1.1025                 1.1023                 1.0954
 Frc consts  --      6.3273                 6.3339                 6.3089
 IR Inten    --      7.4688                17.7195                22.2245

                    115                    116                    117
                      A                      A                      A
 Frequencies --   3133.7161              3136.0175              3171.7485
 Red. masses --      1.1032                 1.1025                 1.0885
 Frc consts  --      6.3828                 6.3881                 6.4517
 IR Inten    --     31.2030                53.6061                 5.1519

                    118                    119                    120
                      A                      A                      A
 Frequencies --   3174.1946              3177.0986              3217.6153
 Red. masses --      1.0995                 1.0988                 1.0895
 Frc consts  --      6.5267                 6.5350                 6.6458
 IR Inten    --      0.6683                11.1656                 8.8240

                    121                    122                    123
                      A                      A                      A
 Frequencies --   3478.7308              3560.1598              3717.5318
 Red. masses --      1.0501                 1.0926                 1.0657
 Frc consts  --      7.4870                 8.1595                 8.6779
 IR Inten    --      1.1211                 0.2734                 3.6165

 - Thermochemistry -
 -------------------
 Temperature   298.150 Kelvin.  Pressure   1.00000 Atm.
 Atom     1 has atomic number  6 and mass  12.00000

 Molecular mass:   255.18344 amu.
 Principal axes and moments of inertia in atomic units:
                           1         2         3
     Eigenvalues --  1963.15024********************
           X            0.99995   0.00358   0.00899
           Y           -0.00302   0.99811  -0.06143
           Z           -0.00919   0.06140   0.99807
 This molecule is an asymmetric top.
 Rotational symmetry number  1.
 Warning -- assumption of classical behavior for rotation
           may cause significant error
 Rotational temperatures (Kelvin)      0.04412     0.00795     0.00792
 Rotational constants (GHZ):           0.91931     0.16557     0.16494
 Zero-point vibrational energy    1005301.5 (Joules/Mol)
                                  240.27281 (Kcal/Mol)
 Warning -- explicit consideration of  32 degrees of freedom as
           vibrations may cause significant error
 Vibrational temperatures:     30.39    40.95    80.31    84.61   144.02
          (Kelvin)            165.96   180.78   188.16   249.52   293.20
                              304.07   318.31   354.13   367.22   375.79
                              396.09   424.36   433.13   465.61   478.46
                              507.12   528.24   568.77   586.07   613.84
                              621.09   649.81   659.71   666.76   702.92
                              761.05   809.90   939.26   994.96  1021.50
                             1078.84  1142.04  1147.05  1175.43  1247.58
                             1248.82  1284.95  1301.34  1348.98  1349.55
                             1363.57  1392.22  1412.86  1418.11  1437.65
                             1462.72  1467.19  1495.38  1534.76  1534.93
                             1547.03  1555.53  1572.66  1604.88  1641.70
                             1668.60  1696.48  1727.08  1756.76  1784.72
                             1837.66  1850.41  1858.04  1868.83  1903.92
                             1913.06  1923.54  1935.78  1953.63  1972.10
                             1985.14  2006.38  2021.51  2042.69  2047.43
                             2052.88  2061.33  2087.46  2088.65  2158.33
                             2173.93  2178.79  2184.40  2187.31  2187.87
                             2193.94  2204.34  2209.25  2212.09  2240.61
                             2447.21  2467.49  2571.19  4209.29  4305.30
                             4339.06  4380.92  4393.62  4398.56  4401.29
                             4406.92  4411.43  4442.08  4451.37  4455.42
                             4482.48  4490.36  4493.09  4498.33  4508.72
                             4512.03  4563.44  4566.96  4571.14  4629.43
                             5005.12  5122.28  5348.70

 Zero-point correction=                           0.382899 (Hartree/Particle)
 Thermal correction to Energy=                    0.402762
 Thermal correction to Enthalpy=                  0.403707
 Thermal correction to Gibbs Free Energy=         0.334506
 Sum of electronic and zero-point Energies=           -828.657560
 Sum of electronic and thermal Energies=              -828.637697
 Sum of electronic and thermal Enthalpies=            -828.636753
 Sum of electronic and thermal Free Energies=         -828.705953

                     E (Thermal)             CV                S
                      KCal/Mol        Cal/Mol-Kelvin    Cal/Mol-Kelvin
 Total                  252.737             76.499            145.644
 Electronic               0.000              0.000              0.000
 Translational            0.889              2.981             42.510
 Rotational               0.889              2.981             33.815
 Vibrational            250.960             70.537             69.319
 Vibration     1          0.593              1.985              6.526
 Vibration     2          0.593              1.984              5.934
 Vibration     3          0.596              1.975              4.600
 Vibration     4          0.596              1.974              4.497
 Vibration     5          0.604              1.949              3.452
 Vibration     6          0.608              1.937              3.177
 Vibration     7          0.611              1.927              3.012
 Vibration     8          0.612              1.923              2.935
 Vibration     9          0.627              1.875              2.398
 Vibration    10          0.639              1.835              2.099
 Vibration    11          0.643              1.824              2.032
 Vibration    12          0.648              1.809              1.949
 Vibration    13          0.661              1.769              1.758
 Vibration    14          0.666              1.754              1.694
 Vibration    15          0.669              1.744              1.654
 Vibration    16          0.677              1.719              1.563
 Vibration    17          0.689              1.683              1.445
 Vibration    18          0.693              1.672              1.411
 Vibration    19          0.708              1.628              1.292
 Vibration    20          0.714              1.611              1.248
 Vibration    21          0.729              1.570              1.155
 Vibration    22          0.740              1.540              1.092
 Vibration    23          0.762              1.480              0.980
 Vibration    24          0.772              1.454              0.936
 Vibration    25          0.788              1.412              0.870
 Vibration    26          0.793              1.401              0.853
 Vibration    27          0.810              1.357              0.791
 Vibration    28          0.817              1.342              0.770
 Vibration    29          0.821              1.331              0.756
 Vibration    30          0.844              1.275              0.687
 Vibration    31          0.884              1.186              0.590
 Vibration    32          0.919              1.112              0.518

                           ! Non-Optimized Parameters !
 Normal termination of Gaussian 16 at Fri Dec 11 23:26:43 2020.

 ----------------------------------------------------------------------
 # B3LYP/6-311++G(d,p) empiricaldispersion=gd3bj scf=xqc pop=npa geom=c
 heck
 ----------------------------------------------------------------------

 ---------------------------------------
 CID_149325983_JID_8930_Energie_neutraal
 ---------------------------------------
 Structure from the checkpoint file:  "JID_8930.chk"
 Charge =  0 Multiplicity = 1

 SCF Done:  E(RB3LYP) =  -829.292624290     A.U. after   15 cycles
 Normal termination of Gaussian 16 at Fri Dec 11 23:36:18 2020.

 ----------------------------------------------------------------------
 # B3LYP/6-311++G(d,p) empiricaldispersion=gd3bj scf=xqc pop=npa geom=c
 heck
 ----------------------------------------------------------------------

 -------------------------------------
 CID_149325983_JID_8930_Energie_kation
 -------------------------------------
 Structure from the checkpoint file:  "JID_8930.chk"
 Charge =  1 Multiplicity = 2

 SCF Done:  E(UB3LYP) =  -828.977794010     A.U. after   33 cycles
 SCF Done:  E(UB3LYP) =  -828.977794010     a.u. after    1 cycles
 Normal termination of Gaussian 16 at Sat Dec 12 00:06:21 2020.
 Gaussian 16:  ES64L-G16RevA.03 25-Dec-2016

 ----------------------------------------------------------------------
 # B3LYP/6-311++G(d,p) empiricaldispersion=gd3bj scf=xqc pop=npa geom=c
 heck
 ----------------------------------------------------------------------

 ------------------------------------
 CID_149325983_JID_8930_Energie_anion
 ------------------------------------
 Structure from the checkpoint file:  "JID_8930.chk"
 Charge = -1 Multiplicity = 2

                         Standard orientation:
 ---------------------------------------------------------------------
 Center     Atomic      Atomic             Coordinates (Angstroms)
 Number     Number       Type             X           Y           Z
 ---------------------------------------------------------------------
      1          6           0        4.330742   -0.433479    1.898967
      2          6           0        4.135420    0.104970    0.481778
      3          6           0        4.302855    1.625896    0.452346
      4          6           0        5.072037   -0.601740   -0.500806
      5          8           0        2.741009   -0.252661    0.192812
      6          6           0        2.164292    0.059765   -0.987779
      7          8           0        2.716089    0.639773   -1.906853
      8          6           0        0.753692   -0.381135   -1.061750
      9          6           0        0.110363   -1.035678   -0.086966
     10          6           0       -1.310980   -1.534523   -0.100162
     11          6           0       -2.167893   -1.040751   -1.278063
     12          6           0       -2.532968    0.449506   -1.157174
     13          6           0       -3.135884    0.872615    0.198862
     14          6           0       -2.306874    0.297517    1.356576
     15          6           0       -2.019210   -1.202379    1.232061
     16          6           0       -4.646964    0.579124    0.321745
     17          7           0       -5.027442   -0.831446    0.185382
     18          8           0       -3.006064    2.299493    0.342031
     19          1           0        5.349928   -0.228870    2.242500
     20          1           0        4.164904   -1.515193    1.925405
     21          1           0        3.627927    0.041623    2.590710
     22          1           0        5.309239    1.889399    0.796097
     23          1           0        4.159821    2.016898   -0.555460
     24          1           0        3.577793    2.098423    1.123518
     25          1           0        4.885085   -1.680894   -0.491013
     26          1           0        4.930977   -0.226680   -1.514920
     27          1           0        6.112131   -0.432461   -0.200820
     28          1           0        0.278169   -0.122453   -2.001965
     29          1           0        0.667259   -1.254289    0.823151
     30          1           0       -1.243712   -2.632657   -0.164929
     31          1           0       -3.073315   -1.653535   -1.303799
     32          1           0       -1.650879   -1.213251   -2.229553
     33          1           0       -3.219786    0.732904   -1.969328
     34          1           0       -1.629684    1.054439   -1.286535
     35          1           0       -1.362228    0.855180    1.371446
     36          1           0       -2.816507    0.513644    2.302880
     37          1           0       -2.958114   -1.759831    1.278864
     38          1           0       -1.393415   -1.525109    2.074190
     39          1           0       -4.954475    0.918934    1.316005
     40          1           0       -5.162302    1.234622   -0.407158
     41          1           0       -5.969006   -0.962930    0.549060
     42          1           0       -5.071024   -1.086961   -0.798696
     43          1           0       -3.466735    2.708086   -0.409062
 ---------------------------------------------------------------------

 SCF Done:  E(UB3LYP) =  -829.288718401     A.U. after   33 cycles
 SCF Done:  E(UB3LYP) =  -829.288718401     a.u. after    1 cycles

 The electronic state is 2-A.
 Alpha  occ. eigenvalues --  -19.04326 -19.01859 -18.97437 -14.18754 -10.16472
 Alpha  occ. eigenvalues --  -10.15220 -10.11886 -10.08704 -10.08139 -10.07431
 Alpha  occ. eigenvalues --  -10.07247 -10.06444 -10.05810 -10.05671 -10.05227
 Alpha  occ. eigenvalues --  -10.05003 -10.04884 -10.04258  -0.98000  -0.92188
 Alpha  occ. eigenvalues --   -0.89300  -0.77884  -0.72830  -0.72171  -0.66590
 Alpha  occ. eigenvalues --   -0.63675  -0.62546  -0.61168  -0.60895  -0.56609
 Alpha  occ. eigenvalues --   -0.53599  -0.51402  -0.49958  -0.46149  -0.42317
 Alpha  occ. eigenvalues --   -0.41675  -0.40549  -0.38928  -0.38219  -0.37445
 Alpha  occ. eigenvalues --   -0.36373  -0.36017  -0.35136  -0.34808  -0.33515
 Alpha  occ. eigenvalues --   -0.33364  -0.32687  -0.31747  -0.31489  -0.30546
 Alpha  occ. eigenvalues --   -0.29441  -0.28819  -0.28529  -0.27947  -0.27194
 Alpha  occ. eigenvalues --   -0.26631  -0.26179  -0.26087  -0.25347  -0.23598
 Alpha  occ. eigenvalues --   -0.23373  -0.22420  -0.22263  -0.21187  -0.19488
 Alpha  occ. eigenvalues --   -0.19236  -0.17228  -0.15042  -0.14611  -0.13619
 Alpha  occ. eigenvalues --    0.04172
 Alpha virt. eigenvalues --    0.05827   0.06010   0.07734   0.08104   0.08269
 Alpha virt. eigenvalues --    0.08664   0.08852   0.09709   0.10205   0.10517
 Alpha virt. eigenvalues --    0.11027   0.11317   0.11429   0.11897   0.12400

  Beta  occ. eigenvalues --  -19.04298 -19.01852 -18.97256 -14.18698 -10.16319
  Beta  occ. eigenvalues --  -10.15221 -10.11888 -10.08680 -10.08137 -10.07430
  Beta  occ. eigenvalues --  -10.07241 -10.06471 -10.05800 -10.05650 -10.05216
  Beta  occ. eigenvalues --  -10.04976 -10.04604 -10.04230  -0.97845  -0.92174
  Beta  occ. eigenvalues --   -0.89038  -0.77799  -0.72723  -0.72120  -0.66351
  Beta  occ. eigenvalues --   -0.63644  -0.62409  -0.61161  -0.60886  -0.56473
  Beta  occ. eigenvalues --   -0.53377  -0.51349  -0.49839  -0.45950  -0.42252
  Beta  occ. eigenvalues --   -0.41575  -0.40508  -0.38842  -0.38156  -0.37356
  Beta  occ. eigenvalues --   -0.36253  -0.35904  -0.35057  -0.34702  -0.33348
  Beta  occ. eigenvalues --   -0.33178  -0.32639  -0.31689  -0.31426  -0.30504
  Beta  occ. eigenvalues --   -0.29186  -0.28758  -0.28489  -0.27892  -0.27159
  Beta  occ. eigenvalues --   -0.26565  -0.26043  -0.25974  -0.25269  -0.23538
  Beta  occ. eigenvalues --   -0.23326  -0.22354  -0.22102  -0.21095  -0.19463
  Beta  occ. eigenvalues --   -0.18723  -0.17207  -0.14873  -0.13686  -0.13482
  Beta virt. eigenvalues --    0.05769   0.06911   0.07806   0.08143   0.08251
  Beta virt. eigenvalues --    0.08702   0.08900   0.09175   0.09823   0.10253
  Beta virt. eigenvalues --    0.10639   0.11047   0.11395   0.11546   0.12111

 Mulliken charges and spin densities:
               1          2
     1  C   -0.369850  -0.043641
     2  C   -0.137525   0.064970
     3  C   -0.307066  -0.079659
     4  C   -0.374573  -0.017292
     5  O    0.144597   0.001837
     6  C   -0.531778   0.020536
     7  O   -0.269568   0.056085
     8  C   -0.036292   0.206877
     9  C   -0.199441  -0.054903
    10  C   -0.114141   0.471406
    11  C    0.364038  -0.837322
    12  C   -0.435266   0.155920
    13  C   -0.292657   0.033372
    14  C   -0.045246   0.025865
    15  C   -0.383255  -0.252520
    16  C    0.890040  -1.444318
    17  N   -0.377860  -0.009718
    18  O   -0.193333   0.010850
    19  H    0.100163   0.021863
    20  H    0.136869   0.013671
    21  H    0.126435   0.031708
    22  H    0.107942   0.030632
    23  H    0.183807   0.016713
    24  H    0.127197   0.001041
    25  H    0.125506   0.004012
    26  H    0.204106  -0.005147
    27  H    0.129036   0.006330
    28  H    0.166322   0.020753
    29  H    0.307001  -0.109536
    30  H   -0.036311   0.256340
    31  H   -0.124160   0.279787
    32  H    0.170097  -0.024976
    33  H   -0.146969   0.320528
    34  H    0.124206   0.041055
    35  H    0.131527   0.079001
    36  H    0.132282   0.007159
    37  H    0.191095   0.035330
    38  H    0.028554   0.118786
    39  H    0.020089   0.177141
    40  H   -0.390403   0.513747
    41  H   -0.273685   0.537868
    42  H   -0.116313   0.326502
    43  H    0.244782  -0.008654
 Sum of Mulliken charges =  -1.00000   1.00000

 Dipole moment (field-independent basis, Debye):
    X=              9.0702    Y=              0.9326    Z=              2.6404  Tot=              9.4926
 Quadrupole moment (field-independent basis, Debye-Ang):
   XX=           -210.8230   YY=           -139.4195   ZZ=           -140.1810
   XY=            -11.8521   XZ=              6.5242   YZ=             -0.8497

 Summary of Natural Population Analysis:

                                       Natural Population
                Natural  -----------------------------------------------
    Atom  No    Charge         Core      Valence    Rydberg      Total
 -----------------------------------------------------------------------
      C    1   -0.28819      0.99961     2.28256    0.00603     3.28819
      C    2    0.13511      0.99955     1.85402    0.01132     2.86489
      C    3   -0.30128      0.99961     2.29615    0.00552     3.30128
      C    4   -0.30067      0.99961     2.29586    0.00521     3.30067
      O    5   -0.30002      0.99985     3.29001    0.01016     4.30002
      C    6    0.40971      0.99965     1.56638    0.02425     2.59029
      O    7   -0.31040      0.99987     3.30570    0.00482     4.31040
      C    8   -0.16461      0.99947     2.15660    0.00854     3.16461
      C    9    0.00534      0.99953     1.98619    0.00894     2.99466
      C   10   -0.13091      0.99958     2.12067    0.01066     3.13091
      C   11   -0.19026      0.99961     2.18073    0.00992     3.19026
      C   12   -0.20732      0.99958     2.19731    0.01044     3.20732
      C   13    0.12876      0.99951     1.85663    0.01510     2.87124
      C   14   -0.19565      0.99957     2.18650    0.00958     3.19565
      C   15   -0.18792      0.99961     2.17926    0.00905     3.18792
      C   16   -0.09383      0.99956     2.07986    0.01441     3.09383
      N   17   -0.42464      0.99977     2.91310    0.01178     3.92464
      O   18   -0.37587      0.99989     3.36975    0.00623     4.37587
      H   19    0.09524      0.00000     0.40378    0.00098     0.40476
      H   20    0.10242      0.00000     0.39658    0.00100     0.39758
      H   21    0.10391      0.00000     0.39502    0.00107     0.39609
      H   22    0.09462      0.00000     0.40428    0.00110     0.40538
      H   23    0.11697      0.00000     0.38167    0.00136     0.38303
      H   24    0.10207      0.00000     0.39679    0.00114     0.39793
      H   25    0.10055      0.00000     0.39861    0.00084     0.39945
      H   26    0.11717      0.00000     0.38196    0.00087     0.38283
      H   27    0.09456      0.00000     0.40465    0.00080     0.40544
      H   28    0.09780      0.00000     0.40019    0.00201     0.40220
      H   29    0.09389      0.00000     0.40491    0.00120     0.40611
      H   30    0.10952      0.00000     0.38936    0.00112     0.39048
      H   31    0.10177      0.00000     0.39656    0.00166     0.39823
      H   32    0.09890      0.00000     0.40013    0.00096     0.40110
      H   33    0.09586      0.00000     0.40309    0.00105     0.40414
      H   34    0.10752      0.00000     0.39110    0.00138     0.39248
      H   35    0.10594      0.00000     0.39293    0.00112     0.39406
      H   36    0.09896      0.00000     0.40012    0.00092     0.40104
      H   37    0.11222      0.00000     0.38603    0.00176     0.38778
      H   38    0.09344      0.00000     0.40568    0.00088     0.40656
      H   39    0.09359      0.00000     0.40520    0.00121     0.40641
      H   40    0.07612      0.00000     0.42191    0.00197     0.42388
      H   41    0.17893      0.00000     0.31764    0.00342     0.32107
      H   42    0.17641      0.00000     0.31897    0.00462     0.32359
      H   43    0.22426      0.00000     0.27317    0.00257     0.27574
 =======================================================================
   * Total *   -0.00000     17.99341    51.78763    0.21896    70.00000

 Normal termination of Gaussian 16 at Sat Dec 12 00:35:31 2020.
