 Gaussian 16, Revision A.03,

 -----------------------------------------------------------
 # opt freq B3LYP/6-31G(d) empiricaldispersion=gd3bj scf=xqc
 -----------------------------------------------------------

 -------------------------------
 CID_86797945_JID_10359_neutraal
 -------------------------------
 Symbolic Z-matrix:
 Charge =  0 Multiplicity = 1

 SCF Done:  E(RB3LYP) =  -1327.20446727     A.U. after   17 cycles
 SCF Done:  E(RB3LYP) =  -1327.19632649     A.U. after   17 cycles
 SCF Done:  E(RB3LYP) =  -1327.20860295     A.U. after   15 cycles
 SCF Done:  E(RB3LYP) =  -1327.20220284     A.U. after   16 cycles
 SCF Done:  E(RB3LYP) =  -1327.20613938     A.U. after   14 cycles
 SCF Done:  E(RB3LYP) =  -1327.20895130     A.U. after   10 cycles
 SCF Done:  E(RB3LYP) =  -1327.21076630     A.U. after   15 cycles
 SCF Done:  E(RB3LYP) =  -1327.20957226     A.U. after   15 cycles
 SCF Done:  E(RB3LYP) =  -1327.21167453     A.U. after   14 cycles
 SCF Done:  E(RB3LYP) =  -1327.21187959     A.U. after   13 cycles
 SCF Done:  E(RB3LYP) =  -1327.21220492     A.U. after   11 cycles
 SCF Done:  E(RB3LYP) =  -1327.21220823     A.U. after   10 cycles
 SCF Done:  E(RB3LYP) =  -1327.21221250     A.U. after   10 cycles
 SCF Done:  E(RB3LYP) =  -1327.21221340     A.U. after    9 cycles
 SCF Done:  E(RB3LYP) =  -1327.21221355     A.U. after    8 cycles
 Optimization completed.
    -- Stationary point found.
 Normal termination of Gaussian 16 at Mon Dec 14 13:53:25 2020.

 --------------------------------------------------------------------
 #N Geom=AllCheck Guess=TCheck SCRF=Check GenChk RB3LYP/6-31G(d) Freq
 --------------------------------------------------------------------

 Structure from the checkpoint file:  "JID_10359.chk"
 -------------------------------
 CID_86797945_JID_10359_neutraal
 -------------------------------
 Charge =  0 Multiplicity = 1

 SCF Done:  E(RB3LYP) =  -1327.21221355     A.U. after    1 cycles

  Exact polarizability: 230.548   1.560 155.797   6.075 -22.587 132.620
 Approx polarizability: 322.312  -6.900 267.851  14.342 -59.163 259.286

                      1                      2                      3
                      A                      A                      A
 Frequencies --     24.8656                39.5791                50.2264
 Red. masses --     11.8234                 9.2530                 9.2375
 Frc consts  --      0.0043                 0.0085                 0.0137
 IR Inten    --      0.5519                 0.7752                 1.7540

                      4                      5                      6
                      A                      A                      A
 Frequencies --     59.6228                67.3900                93.4763
 Red. masses --      6.3516                 6.5408                 3.2787
 Frc consts  --      0.0133                 0.0175                 0.0169
 IR Inten    --      1.1652                 0.1217                 0.6723

                      7                      8                      9
                      A                      A                      A
 Frequencies --    103.2272               125.5732               147.2833
 Red. masses --      3.5584                 1.5384                 4.4175
 Frc consts  --      0.0223                 0.0143                 0.0565
 IR Inten    --      0.5237                 0.7381                 4.5206

                     10                     11                     12
                      A                      A                      A
 Frequencies --    172.1328               216.3729               233.0336
 Red. masses --      7.8573                 6.3062                 4.8575
 Frc consts  --      0.1372                 0.1739                 0.1554
 IR Inten    --      2.4526                 1.5884                 4.4599

                     13                     14                     15
                      A                      A                      A
 Frequencies --    247.1932               261.2080               276.1120
 Red. masses --      7.6768                 6.6933                 5.9850
 Frc consts  --      0.2764                 0.2691                 0.2688
 IR Inten    --      3.3697                 1.4848                 3.9256

                     16                     17                     18
                      A                      A                      A
 Frequencies --    327.0968               391.9167               404.9172
 Red. masses --      3.6528                 4.5173                 5.5610
 Frc consts  --      0.2303                 0.4088                 0.5372
 IR Inten    --      7.4364                 3.5438                 1.3891

                     19                     20                     21
                      A                      A                      A
 Frequencies --    414.7006               438.6646               487.1693
 Red. masses --      5.0966                 2.2448                 4.6420
 Frc consts  --      0.5164                 0.2545                 0.6491
 IR Inten    --     12.9504                 4.2611                 4.3353

                     22                     23                     24
                      A                      A                      A
 Frequencies --    506.0034               526.6839               553.2092
 Red. masses --      6.7207                 5.4764                 6.1274
 Frc consts  --      1.0138                 0.8950                 1.1049
 IR Inten    --      1.0407                11.2251                 4.9580

                     25                     26                     27
                      A                      A                      A
 Frequencies --    578.7331               583.4680               598.6204
 Red. masses --      4.1958                 5.0931                 5.4505
 Frc consts  --      0.8280                 1.0216                 1.1508
 IR Inten    --     11.8657                 4.0371                14.1368

                     28                     29                     30
                      A                      A                      A
 Frequencies --    639.6684               667.6062               689.8299
 Red. masses --      1.2972                 7.2075                 6.7016
 Frc consts  --      0.3127                 1.8927                 1.8790
 IR Inten    --    123.8540                 6.8249                10.9769

                     31                     32                     33
                      A                      A                      A
 Frequencies --    713.0394               743.3848               749.6235
 Red. masses --      5.3919                 1.3870                 3.4115
 Frc consts  --      1.6152                 0.4516                 1.1295
 IR Inten    --      5.9658                 8.4670                13.7270

                     34                     35                     36
                      A                      A                      A
 Frequencies --    760.3770               771.4780               784.6740
 Red. masses --      4.8773                 5.9971                 3.9284
 Frc consts  --      1.6614                 2.1030                 1.4251
 IR Inten    --      8.6081                 8.8149                 9.1991

                     37                     38                     39
                      A                      A                      A
 Frequencies --    828.1597               829.9398               835.5385
 Red. masses --      2.0755                 6.7186                 2.3329
 Frc consts  --      0.8387                 2.7266                 0.9596
 IR Inten    --      6.6785                86.2988                15.4704

                     40                     41                     42
                      A                      A                      A
 Frequencies --    847.0212               885.8118               914.6224
 Red. masses --      1.6214                 4.6766                 1.4878
 Frc consts  --      0.6854                 2.1621                 0.7333
 IR Inten    --     13.6184                33.7302                18.6105

                     43                     44                     45
                      A                      A                      A
 Frequencies --    927.2545               962.1168               962.7463
 Red. masses --      3.8405                 3.1838                 1.3187
 Frc consts  --      1.9455                 1.7364                 0.7201
 IR Inten    --      6.2346                12.5180                 1.0671

                     46                     47                     48
                      A                      A                      A
 Frequencies --    978.1420              1002.8585              1081.1702
 Red. masses --      4.6867                 2.4827                 2.2700
 Frc consts  --      2.6419                 1.4711                 1.5634
 IR Inten    --     20.9550                61.9260                87.8789

                     49                     50                     51
                      A                      A                      A
 Frequencies --   1109.2235              1150.4240              1157.5478
 Red. masses --      1.7936                 1.6039                 1.3533
 Frc consts  --      1.3002                 1.2507                 1.0683
 IR Inten    --     17.7195                 3.6699                15.8264

                     52                     53                     54
                      A                      A                      A
 Frequencies --   1170.1062              1184.8255              1251.5408
 Red. masses --      1.3908                 1.9745                 1.7392
 Frc consts  --      1.1220                 1.6331                 1.6050
 IR Inten    --      8.8191                 1.7477                80.5199

                     55                     56                     57
                      A                      A                      A
 Frequencies --   1268.8771              1288.4438              1293.1010
 Red. masses --      1.6661                 1.5272                 3.5605
 Frc consts  --      1.5805                 1.4937                 3.5077
 IR Inten    --     26.5044                98.1735                49.3770

                     58                     59                     60
                      A                      A                      A
 Frequencies --   1299.7422              1346.9968              1364.4346
 Red. masses --      3.6442                 2.9937                 3.1339
 Frc consts  --      3.6272                 3.2003                 3.4375
 IR Inten    --     59.3948                18.8348                21.7056

                     61                     62                     63
                      A                      A                      A
 Frequencies --   1397.5346              1400.1868              1421.7487
 Red. masses --      1.3838                11.9845                 2.3648
 Frc consts  --      1.5924                13.8433                 2.8164
 IR Inten    --     16.9348               407.9171                57.4619

                     64                     65                     66
                      A                      A                      A
 Frequencies --   1436.1600              1473.1420              1490.9504
 Red. masses --      2.4029                 1.2498                 5.8398
 Frc consts  --      2.9201                 1.5980                 7.6485
 IR Inten    --    168.0729                37.0207               104.9307

                     67                     68                     69
                      A                      A                      A
 Frequencies --   1505.2053              1513.8398              1514.8580
 Red. masses --      1.0993                 1.1231                 2.2062
 Frc consts  --      1.4675                 1.5165                 2.9829
 IR Inten    --     12.5216                15.9819                 1.6489

                     70                     71                     72
                      A                      A                      A
 Frequencies --   1530.7720              1541.6684              1583.4651
 Red. masses --      2.7054                 1.1178                 6.3898
 Frc consts  --      3.7351                 1.5653                 9.4396
 IR Inten    --     40.9797                19.9389                26.8322

                     73                     74                     75
                      A                      A                      A
 Frequencies --   1618.1551              1661.4247              1673.6691
 Red. masses --     10.2373                 6.2527                 7.8876
 Frc consts  --     15.7934                10.1691                13.0177
 IR Inten    --    250.8524                32.5067                22.2083

                     76                     77                     78
                      A                      A                      A
 Frequencies --   1765.0983              3046.9223              3079.1255
 Red. masses --     11.5993                 1.0432                 1.0633
 Frc consts  --     21.2921                 5.7064                 5.9396
 IR Inten    --    275.6899                38.3806                23.5183

                     79                     80                     81
                      A                      A                      A
 Frequencies --   3113.8054              3131.9477              3189.9942
 Red. masses --      1.0976                 1.1012                 1.0991
 Frc consts  --      6.2702                 6.3643                 6.5899
 IR Inten    --     25.7417                 7.0115                 2.5054

                     82                     83                     84
                      A                      A                      A
 Frequencies --   3202.5677              3259.7014              3263.1675
 Red. masses --      1.0903                 1.0946                 1.0926
 Frc consts  --      6.5887                 6.8526                 6.8547
 IR Inten    --      5.5539                 1.1026                 2.0861

                     85                     86                     87
                      A                      A                      A
 Frequencies --   3264.6082              3282.4177              3425.4119
 Red. masses --      1.0913                 1.0953                 1.0680
 Frc consts  --      6.8529                 6.9531                 7.3835
 IR Inten    --      5.5406                 1.9497              1132.1397

 - Thermochemistry -
 -------------------
 Temperature   298.150 Kelvin.  Pressure   1.00000 Atm.
 Atom     1 has atomic number  6 and mass  12.00000

 Molecular mass:   293.04703 amu.
 Principal axes and moments of inertia in atomic units:
                           1         2         3
     Eigenvalues --  3122.19502********************
           X            0.99998   0.00613  -0.00157
           Y           -0.00618   0.99940  -0.03410
           Z            0.00136   0.03411   0.99942
 This molecule is an asymmetric top.
 Rotational symmetry number  1.
 Warning -- assumption of classical behavior for rotation
           may cause significant error
 Rotational temperatures (Kelvin)      0.02774     0.00806     0.00714
 Rotational constants (GHZ):           0.57804     0.16802     0.14884
 Zero-point vibrational energy     599187.7 (Joules/Mol)
                                  143.20929 (Kcal/Mol)
 Warning -- explicit consideration of  27 degrees of freedom as
           vibrations may cause significant error
 Vibrational temperatures:     35.78    56.95    72.26    85.78    96.96
          (Kelvin)            134.49   148.52   180.67   211.91   247.66
                              311.31   335.28   355.66   375.82   397.26
                              470.62   563.88   582.59   596.66   631.14
                              700.93   728.03   757.78   795.94   832.67
                              839.48   861.28   920.34   960.54   992.51
                             1025.90  1069.56  1078.54  1094.01  1109.98
                             1128.97  1191.54  1194.10  1202.15  1218.67
                             1274.49  1315.94  1334.11  1384.27  1385.18
                             1407.33  1442.89  1555.56  1595.93  1655.20
                             1665.45  1683.52  1704.70  1800.69  1825.63
                             1853.78  1860.48  1870.04  1938.03  1963.12
                             2010.74  2014.56  2045.58  2066.31  2119.52
                             2145.15  2165.65  2178.08  2179.54  2202.44
                             2218.12  2278.25  2328.16  2390.42  2408.04
                             2539.58  4383.84  4430.17  4480.07  4506.17
                             4589.69  4607.78  4689.98  4694.97  4697.04
                             4722.67  4928.40

 Zero-point correction=                           0.228219 (Hartree/Particle)
 Thermal correction to Energy=                    0.245862
 Thermal correction to Enthalpy=                  0.246806
 Thermal correction to Gibbs Free Energy=         0.180381
 Sum of electronic and zero-point Energies=          -1326.983995
 Sum of electronic and thermal Energies=             -1326.966352
 Sum of electronic and thermal Enthalpies=           -1326.965407
 Sum of electronic and thermal Free Energies=        -1327.031833

                     E (Thermal)             CV                S
                      KCal/Mol        Cal/Mol-Kelvin    Cal/Mol-Kelvin
 Total                  154.281             65.886            139.804
 Electronic               0.000              0.000              0.000
 Translational            0.889              2.981             42.923
 Rotational               0.889              2.981             34.363
 Vibrational            152.503             59.924             62.518
 Vibration     1          0.593              1.985              6.202
 Vibration     2          0.594              1.981              5.280
 Vibration     3          0.595              1.978              4.808
 Vibration     4          0.597              1.974              4.470
 Vibration     5          0.598              1.970              4.228
 Vibration     6          0.602              1.954              3.586
 Vibration     7          0.605              1.947              3.392
 Vibration     8          0.611              1.927              3.013
 Vibration     9          0.617              1.906              2.707
 Vibration    10          0.626              1.877              2.412
 Vibration    11          0.645              1.816              1.989
 Vibration    12          0.654              1.790              1.855
 Vibration    13          0.661              1.767              1.751
 Vibration    14          0.669              1.744              1.654
 Vibration    15          0.678              1.718              1.558
 Vibration    16          0.711              1.621              1.274
 Vibration    17          0.759              1.487              0.993
 Vibration    18          0.770              1.460              0.945
 Vibration    19          0.778              1.438              0.910
 Vibration    20          0.799              1.386              0.831
 Vibration    21          0.843              1.278              0.691
 Vibration    22          0.861              1.237              0.643
 Vibration    23          0.882              1.191              0.595
 Vibration    24          0.909              1.133              0.538
 Vibration    25          0.935              1.077              0.488
 Vibration    26          0.940              1.067              0.479
 Vibration    27          0.957              1.035              0.452

                           ! Non-Optimized Parameters !
 Normal termination of Gaussian 16 at Mon Dec 14 14:09:14 2020.

 ----------------------------------------------------------------------
 # B3LYP/6-311++G(d,p) empiricaldispersion=gd3bj scf=xqc pop=npa geom=c
 heck
 ----------------------------------------------------------------------

 ---------------------------------------
 CID_86797945_JID_10359_Energie_neutraal
 ---------------------------------------
 Structure from the checkpoint file:  "JID_10359.chk"
 Charge =  0 Multiplicity = 1

 SCF Done:  E(RB3LYP) =  -1327.50423343     A.U. after   19 cycles
 Normal termination of Gaussian 16 at Mon Dec 14 14:15:50 2020.

 ----------------------------------------------------------------------
 # B3LYP/6-311++G(d,p) empiricaldispersion=gd3bj scf=xqc pop=npa geom=c
 heck
 ----------------------------------------------------------------------

 -------------------------------------
 CID_86797945_JID_10359_Energie_kation
 -------------------------------------
 Structure from the checkpoint file:  "JID_10359.chk"
 Charge =  1 Multiplicity = 2

 SCF Done:  E(UB3LYP) =  -1327.19144717     A.U. after   33 cycles
 SCF Done:  E(UB3LYP) =  -1327.19144717     a.u. after    1 cycles
 Normal termination of Gaussian 16 at Mon Dec 14 14:31:47 2020.
 Gaussian 16:  ES64L-G16RevA.03 25-Dec-2016

 ----------------------------------------------------------------------
 # B3LYP/6-311++G(d,p) empiricaldispersion=gd3bj scf=xqc pop=npa geom=c
 heck
 ----------------------------------------------------------------------

 ------------------------------------
 CID_86797945_JID_10359_Energie_anion
 ------------------------------------
 Structure from the checkpoint file:  "JID_10359.chk"
 Charge = -1 Multiplicity = 2

                         Standard orientation:
 ---------------------------------------------------------------------
 Center     Atomic      Atomic             Coordinates (Angstroms)
 Number     Number       Type             X           Y           Z
 ---------------------------------------------------------------------
      1          6           0        2.509963    2.687271    0.049002
      2          7           0        1.347449    1.878395   -0.301131
      3          6           0        1.570922    0.827038   -1.284823
      4          6           0        2.504917   -0.235284   -0.757734
      5          6           0        3.646145   -0.694114   -1.349785
      6         16           0        4.399890   -1.905289   -0.362171
      7          6           0        3.121246   -1.699070    0.796625
      8          7           0        2.223366   -0.813679    0.467524
      9          6           0        0.354943    1.761040    0.650620
     10          8           0        0.400249    2.351034    1.720601
     11          6           0       -0.866973    0.956267    0.277682
     12          6           0       -1.156296   -0.264421    0.921051
     13          6           0       -2.396490   -0.874573    0.707158
     14          6           0       -3.307347   -0.270928   -0.149303
     15          6           0       -3.035691    0.917632   -0.823912
     16          6           0       -1.803519    1.520066   -0.597473
     17          7           0       -4.605129   -0.929081   -0.370057
     18          8           0       -4.829121   -1.975818    0.236375
     19          8           0       -5.390710   -0.392980   -1.152014
     20          8           0       -0.286074   -0.888267    1.744002
     21          1           0        3.241259    2.116222    0.635540
     22          1           0        2.177829    3.535678    0.645542
     23          1           0        2.987303    3.039657   -0.870309
     24          1           0        0.606734    0.381144   -1.540302
     25          1           0        1.986501    1.265684   -2.197771
     26          1           0        4.077977   -0.391622   -2.293242
     27          1           0        3.090552   -2.276313    1.712527
     28          1           0       -2.631721   -1.810389    1.196067
     29          1           0       -3.774805    1.346548   -1.486799
     30          1           0       -1.564048    2.459293   -1.087063
     31          1           0        0.638717   -0.668025    1.479829
 ---------------------------------------------------------------------

 SCF Done:  E(UB3LYP) =  -1327.54431559     A.U. after   25 cycles

 The electronic state is 2-A.
 Alpha  occ. eigenvalues --  -88.80396 -19.01984 -18.99213 -18.97260 -18.97227
 Alpha  occ. eigenvalues --  -14.35290 -14.25421 -14.23841 -10.17340 -10.14783
 Alpha  occ. eigenvalues --  -10.13426 -10.13273 -10.12214 -10.11818 -10.11505
 Alpha  occ. eigenvalues --  -10.08269 -10.06593 -10.06236 -10.05155 -10.04455
 Alpha  occ. eigenvalues --   -7.89056  -5.85327  -5.84973  -5.84687  -1.05146
 Alpha  occ. eigenvalues --   -0.94728  -0.93510  -0.89047  -0.87976  -0.84874
 Alpha  occ. eigenvalues --   -0.74471  -0.72323  -0.69476  -0.67037  -0.63051
 Alpha  occ. eigenvalues --   -0.62643  -0.60482  -0.56083  -0.52509  -0.49393
 Alpha  occ. eigenvalues --   -0.48643  -0.48272  -0.45815  -0.43928  -0.42452
 Alpha  occ. eigenvalues --   -0.39671  -0.38874  -0.38480  -0.37473  -0.37087
 Alpha  occ. eigenvalues --   -0.36049  -0.34191  -0.33791  -0.33597  -0.33388
 Alpha  occ. eigenvalues --   -0.33084  -0.31937  -0.31578  -0.30688  -0.29763
 Alpha  occ. eigenvalues --   -0.29195  -0.28121  -0.27597  -0.26274  -0.23653
 Alpha  occ. eigenvalues --   -0.21655  -0.21097  -0.20616  -0.17976  -0.16750
 Alpha  occ. eigenvalues --   -0.15943  -0.15778  -0.14644  -0.14001  -0.12639
 Alpha  occ. eigenvalues --   -0.11292   0.01427
 Alpha virt. eigenvalues --    0.03120   0.05530   0.06832   0.07465   0.08272
 Alpha virt. eigenvalues --    0.09259   0.09311   0.09963   0.10587   0.10893
 Alpha virt. eigenvalues --    0.10998   0.11162   0.11477   0.12039   0.12868

  Beta  occ. eigenvalues --  -88.80368 -19.01994 -18.99178 -18.96906 -18.96849
  Beta  occ. eigenvalues --  -14.34805 -14.25424 -14.23788 -10.17336 -10.14542
  Beta  occ. eigenvalues --  -10.13423 -10.13279 -10.12111 -10.11860 -10.11503
  Beta  occ. eigenvalues --  -10.08203 -10.06622 -10.06055 -10.05096 -10.04315
  Beta  occ. eigenvalues --   -7.89031  -5.85316  -5.84964  -5.84591  -1.04338
  Beta  occ. eigenvalues --   -0.94675  -0.93515  -0.88870  -0.87285  -0.84842
  Beta  occ. eigenvalues --   -0.74264  -0.72160  -0.69341  -0.66674  -0.62911
  Beta  occ. eigenvalues --   -0.62452  -0.60294  -0.55526  -0.52235  -0.49317
  Beta  occ. eigenvalues --   -0.48496  -0.48013  -0.45750  -0.43763  -0.42339
  Beta  occ. eigenvalues --   -0.39359  -0.38752  -0.38248  -0.37389  -0.35839
  Beta  occ. eigenvalues --   -0.34748  -0.33962  -0.33641  -0.33445  -0.33042
  Beta  occ. eigenvalues --   -0.32871  -0.31847  -0.31458  -0.30521  -0.29684
  Beta  occ. eigenvalues --   -0.29058  -0.28032  -0.27488  -0.26084  -0.23505
  Beta  occ. eigenvalues --   -0.21355  -0.20615  -0.20521  -0.17477  -0.16431
  Beta  occ. eigenvalues --   -0.15715  -0.14285  -0.13520  -0.13005  -0.12275
  Beta  occ. eigenvalues --   -0.10679
  Beta virt. eigenvalues --    0.04960   0.05529   0.06767   0.07142   0.07489
  Beta virt. eigenvalues --    0.08315   0.09305   0.09573   0.09970   0.10854
  Beta virt. eigenvalues --    0.10897   0.11094   0.11377   0.11596   0.12264

 Mulliken charges and spin densities:
               1          2
     1  C   -0.293378  -0.003070
     2  N    0.306417   0.005169
     3  C   -1.490497   0.018830
     4  C   -0.481500  -0.040035
     5  C    0.719929   0.088888
     6  S   -0.406866   0.041138
     7  C    0.156733   0.173698
     8  N    0.122760   0.016407
     9  C   -0.599827  -0.014526
    10  O   -0.216947   0.007635
    11  C    0.790363   0.129013
    12  C   -0.283077  -0.021384
    13  C   -0.361533   0.137650
    14  C   -0.114326  -0.010131
    15  C   -0.273628   0.075845
    16  C   -0.181558  -0.014887
    17  N   -0.279881   0.157679
    18  O   -0.134715   0.137153
    19  O   -0.142030   0.144137
    20  O   -0.262193  -0.001294
    21  H    0.174491  -0.000194
    22  H    0.183092   0.000816
    23  H    0.122435   0.000464
    24  H    0.223755  -0.003600
    25  H    0.143215   0.000370
    26  H    0.274009  -0.004707
    27  H    0.257173  -0.010899
    28  H    0.239486  -0.008111
    29  H    0.228920  -0.003712
    30  H    0.147513   0.001663
    31  H    0.431666  -0.000006
 Sum of Mulliken charges =  -1.00000   1.00000

 Dipole moment (field-independent basis, Debye):
    X=             14.8801    Y=              2.6163    Z=             -3.1635  Tot=             15.4360
 Quadrupole moment (field-independent basis, Debye-Ang):
   XX=           -214.0852   YY=           -141.7935   ZZ=           -135.7960
   XY=            -15.4554   XZ=             -9.0725   YZ=             -9.3631

 Summary of Natural Population Analysis:

                                       Natural Population
                Natural  -----------------------------------------------
    Atom  No    Charge         Core      Valence    Rydberg      Total
 -----------------------------------------------------------------------
      C    1   -0.18126      0.99965     2.17451    0.00710     3.18126
      N    2   -0.25555      0.99965     2.74590    0.01000     3.75555
      C    3   -0.09502      0.99956     2.08550    0.00996     3.09502
      C    4    0.05786      0.99949     1.93015    0.01251     2.94214
      C    5   -0.19209      0.99945     2.18338    0.00925     3.19209
      S    6    0.19053      4.99948     2.78824    0.02175     7.80947
      C    7   -0.00134      0.99966     1.98666    0.01502     3.00134
      N    8   -0.26097      0.99963     2.74708    0.01426     3.76097
      C    9    0.34810      0.99959     1.62699    0.02531     2.65190
      O   10   -0.30739      0.99988     3.30165    0.00586     4.30739
      C   11   -0.07139      0.99942     2.05917    0.01280     3.07139
      C   12    0.16049      0.99937     1.82649    0.01366     2.83951
      C   13   -0.08999      0.99949     2.08100    0.00950     3.08999
      C   14    0.05903      0.99940     1.93035    0.01122     2.94097
      C   15   -0.10364      0.99953     2.09411    0.01001     3.10364
      C   16   -0.10219      0.99954     2.09436    0.00829     3.10219
      N   17    0.29021      0.99972     2.18264    0.02743     3.20979
      O   18   -0.19507      0.99990     3.18738    0.00780     4.19507
      O   19   -0.19521      0.99990     3.18756    0.00775     4.19521
      O   20   -0.35978      0.99987     3.35279    0.00713     4.35978
      H   21    0.09413      0.00000     0.40454    0.00133     0.40587
      H   22    0.11072      0.00000     0.38829    0.00100     0.38928
      H   23    0.08941      0.00000     0.40972    0.00086     0.41059
      H   24    0.12321      0.00000     0.37578    0.00101     0.37679
      H   25    0.09657      0.00000     0.40242    0.00101     0.40343
      H   26    0.10969      0.00000     0.38935    0.00096     0.39031
      H   27    0.09967      0.00000     0.39937    0.00097     0.40033
      H   28    0.11900      0.00000     0.37979    0.00121     0.38100
      H   29    0.11465      0.00000     0.38411    0.00123     0.38535
      H   30    0.09678      0.00000     0.40211    0.00111     0.40322
      H   31    0.25084      0.00000     0.24633    0.00282     0.24916
 =======================================================================
   * Total *    0.00000     23.99217    51.74771    0.26012    76.00000

 Normal termination of Gaussian 16 at Mon Dec 14 14:43:34 2020.
