 Gaussian 16, Revision A.03,

 -----------------------------------------------------------
 # opt freq B3LYP/6-31G(d) empiricaldispersion=gd3bj scf=xqc
 -----------------------------------------------------------

 ------------------------------
 CID_13369485_JID_4158_neutraal
 ------------------------------
 Symbolic Z-matrix:
 Charge =  0 Multiplicity = 1

 SCF Done:  E(RB3LYP) =  -586.304662383     A.U. after   14 cycles
 SCF Done:  E(RB3LYP) =  -586.306153470     A.U. after   10 cycles
 SCF Done:  E(RB3LYP) =  -586.306363251     A.U. after   11 cycles
 SCF Done:  E(RB3LYP) =  -586.306441157     A.U. after   11 cycles
 SCF Done:  E(RB3LYP) =  -586.306465748     A.U. after    9 cycles
 SCF Done:  E(RB3LYP) =  -586.306494295     A.U. after   10 cycles
 SCF Done:  E(RB3LYP) =  -586.306504066     A.U. after   10 cycles
 SCF Done:  E(RB3LYP) =  -586.306506518     A.U. after    9 cycles
 SCF Done:  E(RB3LYP) =  -586.306507399     A.U. after    8 cycles
 SCF Done:  E(RB3LYP) =  -586.306507580     A.U. after    7 cycles
 SCF Done:  E(RB3LYP) =  -586.306507806     A.U. after    7 cycles
 SCF Done:  E(RB3LYP) =  -586.306507910     A.U. after    8 cycles
 SCF Done:  E(RB3LYP) =  -586.306507926     A.U. after    6 cycles
 SCF Done:  E(RB3LYP) =  -586.306507943     A.U. after    7 cycles
 SCF Done:  E(RB3LYP) =  -586.306507952     A.U. after    7 cycles
 SCF Done:  E(RB3LYP) =  -586.306507956     A.U. after    6 cycles
 Optimization completed.
    -- Stationary point found.
 Normal termination of Gaussian 16 at Thu Dec 10 09:20:54 2020.

 --------------------------------------------------------------------
 #N Geom=AllCheck Guess=TCheck SCRF=Check GenChk RB3LYP/6-31G(d) Freq
 --------------------------------------------------------------------

 Structure from the checkpoint file:  "JID_4158.chk"
 ------------------------------
 CID_13369485_JID_4158_neutraal
 ------------------------------
 Charge =  0 Multiplicity = 1

 SCF Done:  E(RB3LYP) =  -586.306507956     A.U. after    1 cycles

  Exact polarizability: 189.261   1.427 122.378  -5.182   1.284 117.360
 Approx polarizability: 215.809   0.138 181.198 -13.133   2.662 176.593

                      1                      2                      3
                      A                      A                      A
 Frequencies --      9.8842                19.4822                30.5464
 Red. masses --      4.3919                 3.9119                 3.6527
 Frc consts  --      0.0003                 0.0009                 0.0020
 IR Inten    --      0.2652                 0.2018                 0.1508

                      4                      5                      6
                      A                      A                      A
 Frequencies --     50.8197                54.1347                63.9813
 Red. masses --      3.7103                 3.5903                 3.2143
 Frc consts  --      0.0056                 0.0062                 0.0078
 IR Inten    --      0.5648                 0.1739                 0.1398

                      7                      8                      9
                      A                      A                      A
 Frequencies --     81.8490                98.1385               139.1580
 Red. masses --      3.1364                 2.9086                 2.4549
 Frc consts  --      0.0124                 0.0165                 0.0280
 IR Inten    --      0.3817                 0.1993                 3.5895

                     10                     11                     12
                      A                      A                      A
 Frequencies --    175.4169               187.4343               234.0151
 Red. masses --      1.9079                 2.8145                 1.4593
 Frc consts  --      0.0346                 0.0583                 0.0471
 IR Inten    --      5.9143                 0.2266                 5.3601

                     13                     14                     15
                      A                      A                      A
 Frequencies --    265.8227               282.8768               301.4038
 Red. masses --      1.8930                 1.8377                 1.5653
 Frc consts  --      0.0788                 0.0866                 0.0838
 IR Inten    --     16.8896                26.6106                21.7554

                     16                     17                     18
                      A                      A                      A
 Frequencies --    318.0414               341.8351               368.5726
 Red. masses --      1.6971                 2.0568                 2.0672
 Frc consts  --      0.1011                 0.1416                 0.1655
 IR Inten    --     47.9802                 5.0589                 0.7529

                     19                     20                     21
                      A                      A                      A
 Frequencies --    384.3395               415.9526               466.6570
 Red. masses --      1.8336                 1.7521                 1.9808
 Frc consts  --      0.1596                 0.1786                 0.2542
 IR Inten    --      1.3792                 0.0452                 0.8674

                     22                     23                     24
                      A                      A                      A
 Frequencies --    495.6723               543.9337               567.5996
 Red. masses --      2.1456                 2.2748                 2.3661
 Frc consts  --      0.3106                 0.3965                 0.4491
 IR Inten    --      4.3767                 0.4917                 9.8660

                     25                     26                     27
                      A                      A                      A
 Frequencies --    594.4368               708.0375               732.6062
 Red. masses --      2.8819                 1.2621                 1.4630
 Frc consts  --      0.6000                 0.3728                 0.4626
 IR Inten    --      0.7387                21.1890                 0.4178

                     28                     29                     30
                      A                      A                      A
 Frequencies --    760.1302               766.9626               788.9487
 Red. masses --      1.4300                 1.5026                 1.5792
 Frc consts  --      0.4868                 0.5208                 0.5791
 IR Inten    --     19.7648                 6.5177                 6.8457

                     31                     32                     33
                      A                      A                      A
 Frequencies --    814.7773               850.1882               857.5575
 Red. masses --      2.5689                 1.9736                 2.1868
 Frc consts  --      1.0048                 0.8405                 0.9475
 IR Inten    --      1.4155                 5.0133                 1.7245

                     34                     35                     36
                      A                      A                      A
 Frequencies --    872.7350               918.2459               926.9503
 Red. masses --      1.9719                 1.6926                 1.9614
 Frc consts  --      0.8849                 0.8408                 0.9929
 IR Inten    --      0.6071                 1.0075                 0.8736

                     37                     38                     39
                      A                      A                      A
 Frequencies --    957.8114               972.3377               987.8551
 Red. masses --      1.7227                 1.8740                 1.6656
 Frc consts  --      0.9311                 1.0439                 0.9577
 IR Inten    --      5.6780                10.9264                 5.9074

                     40                     41                     42
                      A                      A                      A
 Frequencies --   1003.5955              1012.8997              1017.7512
 Red. masses --      1.6271                 1.3515                 1.7082
 Frc consts  --      0.9655                 0.8170                 1.0425
 IR Inten    --      5.0509                 0.5869                 1.3313

                     43                     44                     45
                      A                      A                      A
 Frequencies --   1055.4967              1062.9328              1077.3846
 Red. masses --      1.5973                 1.5168                 2.0253
 Frc consts  --      1.0485                 1.0097                 1.3851
 IR Inten    --     13.3696                 5.5027                 1.8978

                     46                     47                     48
                      A                      A                      A
 Frequencies --   1084.4543              1095.8485              1102.6345
 Red. masses --      1.5800                 2.5051                 2.2272
 Frc consts  --      1.0948                 1.7725                 1.5954
 IR Inten    --     19.6460                62.5132                 6.1568

                     49                     50                     51
                      A                      A                      A
 Frequencies --   1120.1304              1140.9916              1147.8340
 Red. masses --      2.2683                 1.8591                 1.7306
 Frc consts  --      1.6768                 1.4260                 1.3434
 IR Inten    --      0.4561                 4.9056                 5.1914

                     52                     53                     54
                      A                      A                      A
 Frequencies --   1183.7881              1201.4332              1208.6397
 Red. masses --      1.3661                 1.2723                 1.3572
 Frc consts  --      1.1280                 1.0820                 1.1681
 IR Inten    --      5.7666                 7.6178                 3.7841

                     55                     56                     57
                      A                      A                      A
 Frequencies --   1224.6747              1254.1283              1275.7406
 Red. masses --      1.2999                 1.2824                 1.3146
 Frc consts  --      1.1487                 1.1884                 1.2606
 IR Inten    --      0.9951                 1.9218                 2.6550

                     58                     59                     60
                      A                      A                      A
 Frequencies --   1300.9640              1309.5029              1315.7645
 Red. masses --      1.2145                 1.2124                 1.1638
 Frc consts  --      1.2111                 1.2250                 1.1871
 IR Inten    --      3.7223                 2.9390                 1.7429

                     61                     62                     63
                      A                      A                      A
 Frequencies --   1331.5778              1351.4052              1358.1440
 Red. masses --      1.1494                 1.1589                 1.2407
 Frc consts  --      1.2007                 1.2470                 1.3483
 IR Inten    --      1.0857                 0.3777                11.6838

                     64                     65                     66
                      A                      A                      A
 Frequencies --   1365.2034              1379.3626              1386.1256
 Red. masses --      1.3892                 1.3558                 1.4724
 Frc consts  --      1.5255                 1.5199                 1.6668
 IR Inten    --      0.0987                24.1735                 0.8262

                     67                     68                     69
                      A                      A                      A
 Frequencies --   1395.1032              1403.4889              1408.2931
 Red. masses --      1.4478                 1.3696                 1.3042
 Frc consts  --      1.6602                 1.5895                 1.5240
 IR Inten    --      1.0161                 3.0171                 9.2485

                     70                     71                     72
                      A                      A                      A
 Frequencies --   1410.5972              1424.8514              1425.4094
 Red. masses --      1.2829                 1.4127                 1.4294
 Frc consts  --      1.5040                 1.6898                 1.7112
 IR Inten    --     14.8950                 1.4624                 2.0360

                     73                     74                     75
                      A                      A                      A
 Frequencies --   1436.7280              1443.0674              1458.3193
 Red. masses --      1.2845                 1.2759                 1.4278
 Frc consts  --      1.5622                 1.5655                 1.7891
 IR Inten    --     36.4300                 4.6278                 5.5859

                     76                     77                     78
                      A                      A                      A
 Frequencies --   1503.5009              1505.1806              1514.7455
 Red. masses --      1.0884                 1.0812                 1.1045
 Frc consts  --      1.4496                 1.4432                 1.4932
 IR Inten    --      5.4584                 1.1561                 4.2065

                     79                     80                     81
                      A                      A                      A
 Frequencies --   1517.2210              1521.4090              1525.3940
 Red. masses --      1.0818                 1.0960                 1.0668
 Frc consts  --      1.4672                 1.4946                 1.4625
 IR Inten    --      4.9611                 3.0326                 9.1400

                     82                     83                     84
                      A                      A                      A
 Frequencies --   1532.0067              1534.6130              1536.5992
 Red. masses --      1.0657                 1.0845                 1.0880
 Frc consts  --      1.4736                 1.5048                 1.5135
 IR Inten    --      9.2446                 3.8760                 3.9969

                     85                     86                     87
                      A                      A                      A
 Frequencies --   1537.6115              1543.9811              1548.3785
 Red. masses --      1.0676                 1.0830                 1.0892
 Frc consts  --      1.4871                 1.5212                 1.5386
 IR Inten    --      1.5809                 3.1232                 0.2913

                     88                     89                     90
                      A                      A                      A
 Frequencies --   1741.9799              3011.0642              3026.9112
 Red. masses --      6.4646                 1.0707                 1.0632
 Frc consts  --     11.5578                 5.7197                 5.7396
 IR Inten    --      0.6474                46.7912                23.7377

                     91                     92                     93
                      A                      A                      A
 Frequencies --   3033.2369              3034.2523              3036.3697
 Red. masses --      1.0640                 1.0626                 1.0622
 Frc consts  --      5.7680                 5.7641                 5.7699
 IR Inten    --     26.1329                42.5870                 6.5320

                     94                     95                     96
                      A                      A                      A
 Frequencies --   3036.6202              3039.8517              3040.5066
 Red. masses --      1.0679                 1.0629                 1.0597
 Frc consts  --      5.8020                 5.7871                 5.7719
 IR Inten    --     19.5239                 6.9587                26.1384

                     97                     98                     99
                      A                      A                      A
 Frequencies --   3042.8317              3045.1557              3049.5530
 Red. masses --      1.0594                 1.0453                 1.0629
 Frc consts  --      5.7791                 5.7111                 5.8238
 IR Inten    --     13.1522                11.8369                 4.1079

                    100                    101                    102
                      A                      A                      A
 Frequencies --   3058.4501              3062.7173              3068.5764
 Red. masses --      1.0986                 1.0983                 1.0989
 Frc consts  --      6.0545                 6.0699                 6.0964
 IR Inten    --      2.9380                26.5537                36.8223

                    103                    104                    105
                      A                      A                      A
 Frequencies --   3075.1729              3078.3899              3083.2571
 Red. masses --      1.0983                 1.1013                 1.1003
 Frc consts  --      6.1195                 6.1492                 6.1628
 IR Inten    --    130.2141               144.1652                38.6420

                    106                    107                    108
                      A                      A                      A
 Frequencies --   3086.1849              3087.9827              3099.7088
 Red. masses --      1.0992                 1.1016                 1.0938
 Frc consts  --      6.1684                 6.1890                 6.1917
 IR Inten    --     26.6303                63.0896                15.7575

                    109                    110                    111
                      A                      A                      A
 Frequencies --   3104.2825              3109.2074              3116.1839
 Red. masses --      1.0955                 1.1016                 1.1019
 Frc consts  --      6.2198                 6.2742                 6.3045
 IR Inten    --     57.5264                49.6064                51.4713

                    112                    113                    114
                      A                      A                      A
 Frequencies --   3129.0589              3158.8772              3754.0389
 Red. masses --      1.0848                 1.0935                 1.0661
 Frc consts  --      6.2577                 6.4291                 8.8518
 IR Inten    --     24.2169                38.7513                 6.3007

 - Thermochemistry -
 -------------------
 Temperature   298.150 Kelvin.  Pressure   1.00000 Atm.
 Atom     1 has atomic number  6 and mass  12.00000

 Molecular mass:   198.19837 amu.
 Principal axes and moments of inertia in atomic units:
                           1         2         3
     Eigenvalues --   712.15527********************
           X            0.99999   0.00360   0.00054
           Y           -0.00359   0.99985  -0.01716
           Z           -0.00060   0.01716   0.99985
 This molecule is an asymmetric top.
 Rotational symmetry number  1.
 Warning -- assumption of classical behavior for rotation
           may cause significant error
 Rotational temperatures (Kelvin)      0.12162     0.00777     0.00772
 Rotational constants (GHZ):           2.53420     0.16190     0.16080
 Zero-point vibrational energy     981610.6 (Joules/Mol)
                                  234.61056 (Kcal/Mol)
 Warning -- explicit consideration of  25 degrees of freedom as
           vibrations may cause significant error
 Vibrational temperatures:     14.22    28.03    43.95    73.12    77.89
          (Kelvin)             92.05   117.76   141.20   200.22   252.39
                              269.68   336.70   382.46   407.00   433.65
                              457.59   491.82   530.29   552.98   598.46
                              671.42   713.16   782.60   816.65   855.26
                             1018.71  1054.06  1093.66  1103.49  1135.12
                             1172.28  1223.23  1233.83  1255.67  1321.15
                             1333.67  1378.08  1398.98  1421.30  1443.95
                             1457.34  1464.32  1518.62  1529.32  1550.12
                             1560.29  1576.68  1586.45  1611.62  1641.63
                             1651.48  1703.21  1728.59  1738.96  1762.03
                             1804.41  1835.51  1871.80  1884.08  1893.09
                             1915.84  1944.37  1954.07  1964.22  1984.60
                             1994.33  2007.24  2019.31  2026.22  2029.53
                             2050.04  2050.85  2067.13  2076.25  2098.20
                             2163.20  2165.62  2179.38  2182.94  2188.97
                             2194.70  2204.22  2207.97  2210.82  2212.28
                             2221.44  2227.77  2506.32  4332.25  4355.05
                             4364.15  4365.61  4368.66  4369.02  4373.67
                             4374.61  4377.96  4381.30  4387.63  4400.43
                             4406.57  4415.00  4424.49  4429.12  4436.12
                             4440.33  4442.92  4459.79  4466.37  4473.46
                             4483.49  4502.02  4544.92  5401.22

 Zero-point correction=                           0.373876 (Hartree/Particle)
 Thermal correction to Energy=                    0.391380
 Thermal correction to Enthalpy=                  0.392324
 Thermal correction to Gibbs Free Energy=         0.324560
 Sum of electronic and zero-point Energies=           -585.932632
 Sum of electronic and thermal Energies=              -585.915128
 Sum of electronic and thermal Enthalpies=            -585.914184
 Sum of electronic and thermal Free Energies=         -585.981948

                     E (Thermal)             CV                S
                      KCal/Mol        Cal/Mol-Kelvin    Cal/Mol-Kelvin
 Total                  245.595             63.694            142.622
 Electronic               0.000              0.000              0.000
 Translational            0.889              2.981             41.757
 Rotational               0.889              2.981             32.855
 Vibrational            243.817             57.732             68.010
 Vibration     1          0.593              1.987              8.034
 Vibration     2          0.593              1.986              6.686
 Vibration     3          0.594              1.984              5.794
 Vibration     4          0.595              1.977              4.785
 Vibration     5          0.596              1.976              4.660
 Vibration     6          0.597              1.971              4.330
 Vibration     7          0.600              1.962              3.846
 Vibration     8          0.604              1.950              3.491
 Vibration     9          0.615              1.914              2.815
 Vibration    10          0.627              1.873              2.377
 Vibration    11          0.632              1.857              2.253
 Vibration    12          0.654              1.789              1.848
 Vibration    13          0.672              1.736              1.623
 Vibration    14          0.682              1.705              1.516
 Vibration    15          0.693              1.671              1.409
 Vibration    16          0.704              1.639              1.320
 Vibration    17          0.721              1.592              1.204
 Vibration    18          0.741              1.537              1.086
 Vibration    19          0.753              1.504              1.022
 Vibration    20          0.779              1.436              0.906
 Vibration    21          0.824              1.324              0.747
 Vibration    22          0.851              1.260              0.669
 Vibration    23          0.899              1.153              0.557
 Vibration    24          0.924              1.101              0.509
 Vibration    25          0.952              1.044              0.459

 Optimization completed.
    -- Stationary point found.
 Normal termination of Gaussian 16 at Thu Dec 10 09:30:44 2020.

 ----------------------------------------------------------------------
 # B3LYP/6-311++G(d,p) empiricaldispersion=gd3bj scf=xqc pop=npa geom=c
 heck
 ----------------------------------------------------------------------

 --------------------------------------
 CID_13369485_JID_4158_Energie_neutraal
 --------------------------------------
 Structure from the checkpoint file:  "JID_4158.chk"
 Charge =  0 Multiplicity = 1

 SCF Done:  E(RB3LYP) =  -586.483676693     A.U. after   13 cycles
 Normal termination of Gaussian 16 at Thu Dec 10 09:35:25 2020.

 ----------------------------------------------------------------------
 # B3LYP/6-311++G(d,p) empiricaldispersion=gd3bj scf=xqc pop=npa geom=c
 heck
 ----------------------------------------------------------------------

 ------------------------------------
 CID_13369485_JID_4158_Energie_kation
 ------------------------------------
 Structure from the checkpoint file:  "JID_4158.chk"
 Charge =  1 Multiplicity = 2

 SCF Done:  E(UB3LYP) =  -586.160993182     A.U. after   22 cycles
 Normal termination of Gaussian 16 at Thu Dec 10 09:46:03 2020.
 Gaussian 16:  ES64L-G16RevA.03 25-Dec-2016

 ----------------------------------------------------------------------
 # B3LYP/6-311++G(d,p) empiricaldispersion=gd3bj scf=xqc pop=npa geom=c
 heck
 ----------------------------------------------------------------------

 -----------------------------------
 CID_13369485_JID_4158_Energie_anion
 -----------------------------------
 Structure from the checkpoint file:  "JID_4158.chk"
 Charge = -1 Multiplicity = 2

                         Standard orientation:
 ---------------------------------------------------------------------
 Center     Atomic      Atomic             Coordinates (Angstroms)
 Number     Number       Type             X           Y           Z
 ---------------------------------------------------------------------
      1          6           0       -6.056843   -0.773599    0.336008
      2          6           0       -5.203887    0.088371   -0.599419
      3          6           0       -4.185369    0.978195    0.129362
      4          6           0       -3.160372    0.224817    0.992398
      5          6           0       -2.328369   -0.826965    0.241953
      6          6           0       -1.538708   -0.292486   -0.963291
      7          6           0       -0.571210    0.857907   -0.648118
      8          6           0        0.484334    0.538597    0.432504
      9          6           0        1.316943   -0.673887    0.110088
     10          6           0        2.558882   -0.674998   -0.387279
     11          6           0        3.401770    0.538088   -0.690753
     12          6           0        4.386358    0.902209    0.440934
     13          6           0        5.348041   -0.227928    0.811173
     14          8           0        6.166267   -0.644797   -0.279151
     15          1           0       -5.448191   -1.501455    0.883990
     16          1           0       -6.815188   -1.332978   -0.223047
     17          1           0       -6.577039   -0.153593    1.076788
     18          1           0       -4.684184   -0.558729   -1.318222
     19          1           0       -5.862716    0.732186   -1.196819
     20          1           0       -3.657408    1.591389   -0.612716
     21          1           0       -4.728628    1.684397    0.772815
     22          1           0       -2.489214    0.960260    1.455023
     23          1           0       -3.676691   -0.268973    1.825502
     24          1           0       -1.636890   -1.295902    0.954620
     25          1           0       -2.986196   -1.634524   -0.104491
     26          1           0       -0.975389   -1.121817   -1.409716
     27          1           0       -2.238767    0.045815   -1.737865
     28          1           0       -0.048130    1.137068   -1.571787
     29          1           0       -1.136710    1.744023   -0.331824
     30          1           0        1.122821    1.417966    0.568949
     31          1           0       -0.020625    0.377268    1.394114
     32          1           0        0.836864   -1.637052    0.281364
     33          1           0        3.027718   -1.642803   -0.570586
     34          1           0        3.975567    0.362018   -1.611012
     35          1           0        2.766881    1.405642   -0.897078
     36          1           0        4.970975    1.779426    0.136905
     37          1           0        3.815924    1.179233    1.337693
     38          1           0        6.043753    0.115415    1.583177
     39          1           0        4.787173   -1.077394    1.230630
     40          1           0        5.594742   -1.098434   -0.916566
 ---------------------------------------------------------------------

 SCF Done:  E(UB3LYP) =  -586.471607713     A.U. after   32 cycles

 The electronic state is 2-A.
 Alpha  occ. eigenvalues --  -19.03154 -10.12442 -10.07954 -10.07927 -10.07487
 Alpha  occ. eigenvalues --  -10.07396 -10.07314 -10.07227 -10.07227 -10.06963
 Alpha  occ. eigenvalues --  -10.06948 -10.06888 -10.06876 -10.06607  -0.93179
 Alpha  occ. eigenvalues --   -0.73047  -0.71692  -0.69550  -0.66869  -0.64076
 Alpha  occ. eigenvalues --   -0.61002  -0.58777  -0.56526  -0.53140  -0.50681
 Alpha  occ. eigenvalues --   -0.48308  -0.44835  -0.43292  -0.41322  -0.40321
 Alpha  occ. eigenvalues --   -0.38432  -0.38248  -0.35922  -0.35427  -0.34979
 Alpha  occ. eigenvalues --   -0.33970  -0.33105  -0.31893  -0.31262  -0.29831
 Alpha  occ. eigenvalues --   -0.29388  -0.28240  -0.28122  -0.27610  -0.26301
 Alpha  occ. eigenvalues --   -0.25815  -0.25163  -0.24743  -0.24025  -0.23822
 Alpha  occ. eigenvalues --   -0.22910  -0.22163  -0.21594  -0.21246  -0.18737
 Alpha  occ. eigenvalues --   -0.15503   0.04027
 Alpha virt. eigenvalues --    0.05487   0.06315   0.06906   0.07400   0.07627
 Alpha virt. eigenvalues --    0.07825   0.09017   0.09445   0.09715   0.09824
 Alpha virt. eigenvalues --    0.10120   0.10397   0.10861   0.11238   0.11359

  Beta  occ. eigenvalues --  -19.03118 -10.12426 -10.07936 -10.07913 -10.07472
  Beta  occ. eigenvalues --  -10.07372 -10.07289 -10.07211 -10.07211 -10.06948
  Beta  occ. eigenvalues --  -10.06935 -10.06877 -10.06862 -10.06575  -0.93103
  Beta  occ. eigenvalues --   -0.73011  -0.71654  -0.69516  -0.66829  -0.64032
  Beta  occ. eigenvalues --   -0.60953  -0.58724  -0.56475  -0.53082  -0.50624
  Beta  occ. eigenvalues --   -0.48250  -0.44778  -0.43234  -0.41270  -0.40266
  Beta  occ. eigenvalues --   -0.38400  -0.38214  -0.35875  -0.35382  -0.34946
  Beta  occ. eigenvalues --   -0.33924  -0.33076  -0.31851  -0.31231  -0.29804
  Beta  occ. eigenvalues --   -0.29356  -0.28203  -0.28083  -0.27579  -0.26271
  Beta  occ. eigenvalues --   -0.25782  -0.25126  -0.24710  -0.23998  -0.23791
  Beta  occ. eigenvalues --   -0.22872  -0.22142  -0.21563  -0.21214  -0.18692
  Beta  occ. eigenvalues --   -0.15421
  Beta virt. eigenvalues --    0.05904   0.06402   0.06839   0.07204   0.07711
  Beta virt. eigenvalues --    0.08009   0.08045   0.09338   0.09597   0.09860
  Beta virt. eigenvalues --    0.10052   0.10312   0.10590   0.11125   0.11436

 Mulliken charges and spin densities:
               1          2
     1  C    1.033139  -1.674694
     2  C   -0.953629   0.791127
     3  C    0.320651  -0.605062
     4  C    0.059703  -0.271780
     5  C    0.258941  -0.557497
     6  C   -0.583805   0.313010
     7  C    0.442673  -0.874414
     8  C   -0.487317   0.329003
     9  C   -0.382381   0.421982
    10  C    0.521647  -0.627170
    11  C    0.398113  -1.022374
    12  C    0.092082  -0.189707
    13  C    0.140096  -0.721179
    14  O   -0.237467   0.011147
    15  H   -0.075260   0.211919
    16  H   -0.232041   0.366153
    17  H   -0.162466   0.298264
    18  H    0.050884   0.070877
    19  H   -0.253464   0.403977
    20  H    0.022900   0.111105
    21  H   -0.188782   0.340701
    22  H   -0.072616   0.237264
    23  H    0.028531   0.128399
    24  H   -0.021564   0.169116
    25  H   -0.053684   0.223958
    26  H    0.105685   0.056945
    27  H   -0.073112   0.239531
    28  H   -0.008883   0.166614
    29  H    0.052712   0.084111
    30  H   -0.310819   0.494137
    31  H    0.056600   0.087788
    32  H    0.040503   0.133726
    33  H   -0.530328   0.704836
    34  H   -0.124316   0.312901
    35  H   -0.012688   0.129060
    36  H   -0.004869   0.164274
    37  H    0.067392   0.042235
    38  H   -0.002120   0.166508
    39  H    0.048437   0.116898
    40  H    0.030921   0.216311
 Sum of Mulliken charges =  -1.00000   1.00000

 Dipole moment (field-independent basis, Debye):
    X=              1.0629    Y=              0.8888    Z=              1.0053  Tot=              1.7118
 Quadrupole moment (field-independent basis, Debye-Ang):
   XX=           -246.5828   YY=           -127.1117   ZZ=           -121.8151
   XY=              5.7055   XZ=              8.5929   YZ=             -1.3124

 Summary of Natural Population Analysis:

                                       Natural Population
                Natural  -----------------------------------------------
    Atom  No    Charge         Core      Valence    Rydberg      Total
 -----------------------------------------------------------------------
      C    1   -0.28583      0.99967     2.28157    0.00459     3.28583
      C    2   -0.19342      0.99964     2.18497    0.00881     3.19342
      C    3   -0.19104      0.99963     2.18243    0.00899     3.19104
      C    4   -0.19423      0.99962     2.18532    0.00929     3.19423
      C    5   -0.19280      0.99962     2.18550    0.00768     3.19280
      C    6   -0.19313      0.99962     2.18607    0.00744     3.19313
      C    7   -0.18623      0.99962     2.17818    0.00843     3.18623
      C    8   -0.21125      0.99961     2.20338    0.00827     3.21125
      C    9   -0.08732      0.99951     2.07746    0.01035     3.08732
      C   10   -0.09597      0.99952     2.08374    0.01272     3.09597
      C   11   -0.21612      0.99961     2.20545    0.01106     3.21612
      C   12   -0.19651      0.99962     2.18987    0.00702     3.19651
      C   13   -0.01099      0.99960     1.99952    0.01188     3.01099
      O   14   -0.37092      0.99990     3.36418    0.00684     4.37092
      H   15    0.09593      0.00000     0.40285    0.00122     0.40407
      H   16    0.09842      0.00000     0.40039    0.00119     0.40158
      H   17    0.09536      0.00000     0.40326    0.00138     0.40464
      H   18    0.09313      0.00000     0.40564    0.00123     0.40687
      H   19    0.09558      0.00000     0.40329    0.00113     0.40442
      H   20    0.09588      0.00000     0.40285    0.00126     0.40412
      H   21    0.09571      0.00000     0.40318    0.00111     0.40429
      H   22    0.09694      0.00000     0.40177    0.00129     0.40306
      H   23    0.09677      0.00000     0.40209    0.00114     0.40323
      H   24    0.09617      0.00000     0.40255    0.00128     0.40383
      H   25    0.09691      0.00000     0.40194    0.00116     0.40309
      H   26    0.09921      0.00000     0.39961    0.00119     0.40079
      H   27    0.09644      0.00000     0.40230    0.00126     0.40356
      H   28    0.09716      0.00000     0.40161    0.00123     0.40284
      H   29    0.09573      0.00000     0.40302    0.00125     0.40427
      H   30    0.10076      0.00000     0.39800    0.00125     0.39924
      H   31    0.10119      0.00000     0.39740    0.00141     0.39881
      H   32    0.09423      0.00000     0.40455    0.00122     0.40577
      H   33    0.09312      0.00000     0.40529    0.00158     0.40688
      H   34    0.10129      0.00000     0.39708    0.00163     0.39871
      H   35    0.10374      0.00000     0.39488    0.00137     0.39626
      H   36    0.09689      0.00000     0.40183    0.00128     0.40311
      H   37    0.09769      0.00000     0.40095    0.00136     0.40231
      H   38    0.08369      0.00000     0.41497    0.00134     0.41631
      H   39    0.07839      0.00000     0.42018    0.00143     0.42161
      H   40    0.22945      0.00000     0.26644    0.00412     0.27055
 =======================================================================
   * Total *   -0.00000     13.99479    41.84555    0.15966    56.00000

 Normal termination of Gaussian 16 at Thu Dec 10 10:01:23 2020.
