 Gaussian 16, Revision A.03,

 -----------------------------------------------------------
 # opt freq B3LYP/6-31G(d) empiricaldispersion=gd3bj scf=xqc
 -----------------------------------------------------------

 ------------------------------
 CID_11953474_JID_5120_neutraal
 ------------------------------
 Symbolic Z-matrix:
 Charge =  0 Multiplicity = 1

 SCF Done:  E(RB3LYP) =  -690.180418833     A.U. after   15 cycles
 SCF Done:  E(RB3LYP) =  -690.186418777     A.U. after   14 cycles
 SCF Done:  E(RB3LYP) =  -690.187295199     A.U. after   13 cycles
 SCF Done:  E(RB3LYP) =  -690.187597110     A.U. after   12 cycles
 SCF Done:  E(RB3LYP) =  -690.187628280     A.U. after   12 cycles
 SCF Done:  E(RB3LYP) =  -690.187831743     A.U. after   11 cycles
 SCF Done:  E(RB3LYP) =  -690.187871377     A.U. after   10 cycles
 SCF Done:  E(RB3LYP) =  -690.187920028     A.U. after   10 cycles
 SCF Done:  E(RB3LYP) =  -690.187948339     A.U. after   11 cycles
 SCF Done:  E(RB3LYP) =  -690.187961349     A.U. after   10 cycles
 SCF Done:  E(RB3LYP) =  -690.187967455     A.U. after   10 cycles
 SCF Done:  E(RB3LYP) =  -690.187968800     A.U. after    9 cycles
 SCF Done:  E(RB3LYP) =  -690.187969483     A.U. after    9 cycles
 SCF Done:  E(RB3LYP) =  -690.187969688     A.U. after    9 cycles
 SCF Done:  E(RB3LYP) =  -690.187969748     A.U. after    7 cycles
 Optimization completed.
    -- Stationary point found.
 Normal termination of Gaussian 16 at Thu Dec 10 14:47:44 2020.

 --------------------------------------------------------------------
 #N Geom=AllCheck Guess=TCheck SCRF=Check GenChk RB3LYP/6-31G(d) Freq
 --------------------------------------------------------------------

 Structure from the checkpoint file:  "JID_5120.chk"
 ------------------------------
 CID_11953474_JID_5120_neutraal
 ------------------------------
 Charge =  0 Multiplicity = 1

 SCF Done:  E(RB3LYP) =  -690.187969748     A.U. after    1 cycles

  Exact polarizability: 181.846   9.126 136.543   3.362   1.552  77.814
 Approx polarizability: 306.402  19.818 224.074  14.460   5.053 113.091

                      1                      2                      3
                      A                      A                      A
 Frequencies --     42.3361                89.6038                93.8694
 Red. masses --      4.4708                 2.5491                 1.7585
 Frc consts  --      0.0047                 0.0121                 0.0091
 IR Inten    --      0.8944                 0.9016                 1.3461

                      4                      5                      6
                      A                      A                      A
 Frequencies --    125.8229               158.4120               165.9202
 Red. masses --      1.7600                 3.6258                 1.8215
 Frc consts  --      0.0164                 0.0536                 0.0295
 IR Inten    --      1.3625                 4.8037                 3.5392

                      7                      8                      9
                      A                      A                      A
 Frequencies --    189.4941               202.5793               256.0278
 Red. masses --      1.8409                 3.2481                 5.1987
 Frc consts  --      0.0389                 0.0785                 0.2008
 IR Inten    --      2.8794                 2.0811                 0.7124

                     10                     11                     12
                      A                      A                      A
 Frequencies --    270.1429               296.5011               347.4380
 Red. masses --      4.1526                 4.4343                 6.4661
 Frc consts  --      0.1785                 0.2297                 0.4599
 IR Inten    --      0.8500                 7.9050                 6.3675

                     13                     14                     15
                      A                      A                      A
 Frequencies --    374.4350               385.1795               417.3701
 Red. masses --      3.8027                 4.0009                 7.3930
 Frc consts  --      0.3141                 0.3497                 0.7588
 IR Inten    --      1.7340                 0.7611                 2.5468

                     16                     17                     18
                      A                      A                      A
 Frequencies --    446.6971               494.5264               532.2966
 Red. masses --      4.4981                 3.5771                 5.2869
 Frc consts  --      0.5288                 0.5154                 0.8826
 IR Inten    --      2.3669                10.9918                 3.7307

                     19                     20                     21
                      A                      A                      A
 Frequencies --    557.6991               571.5370               630.1172
 Red. masses --      4.3412                 4.4596                 5.4811
 Frc consts  --      0.7955                 0.8583                 1.2822
 IR Inten    --      3.8299                 3.3433                 7.6590

                     22                     23                     24
                      A                      A                      A
 Frequencies --    686.3285               703.6247               748.2883
 Red. masses --      6.0971                 2.4879                 6.4663
 Frc consts  --      1.6921                 0.7257                 2.1333
 IR Inten    --      2.2812                 1.6711                 0.2109

                     25                     26                     27
                      A                      A                      A
 Frequencies --    773.2204               790.5349               852.6113
 Red. masses --      1.4181                 3.7019                 2.1254
 Frc consts  --      0.4995                 1.3631                 0.9103
 IR Inten    --     31.3838                 0.4606                37.8501

                     28                     29                     30
                      A                      A                      A
 Frequencies --    859.1465               898.6567               959.3942
 Red. masses --      3.6030                 1.4279                 1.3855
 Frc consts  --      1.5669                 0.6794                 0.7514
 IR Inten    --     12.7379                 2.2332                 3.4516

                     31                     32                     33
                      A                      A                      A
 Frequencies --    981.1774               992.7994              1015.3893
 Red. masses --      6.4229                 1.2972                 1.3161
 Frc consts  --      3.6431                 0.7533                 0.7995
 IR Inten    --      6.9605                 0.9004                 0.7891

                     34                     35                     36
                      A                      A                      A
 Frequencies --   1022.6226              1033.0683              1074.4571
 Red. masses --      5.3932                 5.2249                 2.1898
 Frc consts  --      3.3230                 3.2854                 1.4895
 IR Inten    --     13.9677                36.3921                 5.2122

                     37                     38                     39
                      A                      A                      A
 Frequencies --   1109.6862              1124.9023              1156.3518
 Red. masses --      4.4591                 8.6690                 1.8250
 Frc consts  --      3.2352                 6.4632                 1.4378
 IR Inten    --    114.4392               254.0956                47.2957

                     40                     41                     42
                      A                      A                      A
 Frequencies --   1160.3326              1189.1211              1192.4729
 Red. masses --      1.4949                 1.2855                 1.2738
 Frc consts  --      1.1859                 1.0709                 1.0672
 IR Inten    --      5.7483                 3.1150                 2.5663

                     43                     44                     45
                      A                      A                      A
 Frequencies --   1195.9815              1215.6048              1235.6306
 Red. masses --      1.1068                 1.5816                 1.5991
 Frc consts  --      0.9327                 1.3770                 1.4385
 IR Inten    --      0.7877                12.5777                22.5710

                     46                     47                     48
                      A                      A                      A
 Frequencies --   1246.5032              1271.1564              1283.8848
 Red. masses --      2.1618                 2.2949                 3.3066
 Frc consts  --      1.9790                 2.1848                 3.2113
 IR Inten    --      3.5791                76.1158                19.3961

                     49                     50                     51
                      A                      A                      A
 Frequencies --   1320.2132              1369.9345              1439.8653
 Red. masses --      1.7572                 7.3129                 1.7749
 Frc consts  --      1.8045                 8.0861                 2.1680
 IR Inten    --     29.9863                 3.0790                 8.4360

                     52                     53                     54
                      A                      A                      A
 Frequencies --   1487.4768              1497.2359              1502.3592
 Red. masses --      1.1356                 1.3956                 1.7453
 Frc consts  --      1.4804                 1.8433                 2.3209
 IR Inten    --      0.4958                 1.5733                 3.1983

                     55                     56                     57
                      A                      A                      A
 Frequencies --   1517.2341              1521.5926              1536.8537
 Red. masses --      1.0590                 1.0513                 1.0727
 Frc consts  --      1.4363                 1.4341                 1.4928
 IR Inten    --      3.6662                 4.5582                 8.1711

                     58                     59                     60
                      A                      A                      A
 Frequencies --   1540.8673              1541.2321              1626.8528
 Red. masses --      1.6874                 1.3648                 6.2562
 Frc consts  --      2.3604                 1.9101                 9.7557
 IR Inten    --      3.7404                 3.3805                17.8935

                     61                     62                     63
                      A                      A                      A
 Frequencies --   1661.0502              1683.6696              1760.1100
 Red. masses --      5.9588                 6.4714                11.4593
 Frc consts  --      9.6866                10.8084                20.9164
 IR Inten    --      3.3092                30.6439               220.2048

                     64                     65                     66
                      A                      A                      A
 Frequencies --   3030.9500              3063.1503              3102.6937
 Red. masses --      1.0387                 1.0321                 1.0986
 Frc consts  --      5.6220                 5.7055                 6.2314
 IR Inten    --     44.1178                44.3028                29.5174

                     67                     68                     69
                      A                      A                      A
 Frequencies --   3138.1076              3152.2304              3165.3291
 Red. masses --      1.1022                 1.1023                 1.1075
 Frc consts  --      6.3953                 6.4532                 6.5380
 IR Inten    --     26.9395                24.3522                16.3266

                     70                     71                     72
                      A                      A                      A
 Frequencies --   3174.4999              3184.7710              3196.3701
 Red. masses --      1.0884                 1.0870                 1.0893
 Frc consts  --      6.4625                 6.4961                 6.5571
 IR Inten    --      8.0564                 6.4365                12.8092

                     73                     74                     75
                      A                      A                      A
 Frequencies --   3211.3296              3214.2980              3226.3856
 Red. masses --      1.0950                 1.0948                 1.0935
 Frc consts  --      6.6530                 6.6642                 6.7068
 IR Inten    --     26.6869                 8.0311                 7.1482

 - Thermochemistry -
 -------------------
 Temperature   298.150 Kelvin.  Pressure   1.00000 Atm.
 Atom     1 has atomic number  6 and mass  12.00000

 Molecular mass:   204.07864 amu.
 Principal axes and moments of inertia in atomic units:
                           1         2         3
     Eigenvalues --  1782.600973348.948043940.81114
           X            0.99985  -0.01573  -0.00765
           Y            0.01561   0.99976  -0.01551
           Z            0.00789   0.01539   0.99985
 This molecule is an asymmetric top.
 Rotational symmetry number  1.
 Warning -- assumption of classical behavior for rotation
           may cause significant error
 Rotational temperatures (Kelvin)      0.04859     0.02586     0.02198
 Rotational constants (GHZ):           1.01242     0.53890     0.45796
 Zero-point vibrational energy     569946.5 (Joules/Mol)
                                  136.22049 (Kcal/Mol)
 Warning -- explicit consideration of  20 degrees of freedom as
           vibrations may cause significant error
 Vibrational temperatures:     60.91   128.92   135.06   181.03   227.92
          (Kelvin)            238.72   272.64   291.47   368.37   388.68
                              426.60   499.89   538.73   554.19   600.50
                              642.70   711.51   765.86   802.40   822.31
                              906.60   987.47  1012.36  1076.62  1112.49
                             1137.40  1226.72  1236.12  1292.97  1380.35
                             1411.70  1428.42  1460.92  1471.33  1486.35
                             1545.90  1596.59  1618.48  1663.73  1669.46
                             1710.88  1715.70  1720.75  1748.98  1777.80
                             1793.44  1828.91  1847.22  1899.49  1971.03
                             2071.65  2140.15  2154.19  2161.56  2182.96
                             2189.23  2211.19  2216.96  2217.49  2340.68
                             2389.88  2422.42  2532.41  4360.86  4407.19
                             4464.08  4515.04  4535.36  4554.20  4567.40
                             4582.18  4598.86  4620.39  4624.66  4642.05

 Zero-point correction=                           0.217081 (Hartree/Particle)
 Thermal correction to Energy=                    0.230410
 Thermal correction to Enthalpy=                  0.231355
 Thermal correction to Gibbs Free Energy=         0.177356
 Sum of electronic and zero-point Energies=           -689.970889
 Sum of electronic and thermal Energies=              -689.957559
 Sum of electronic and thermal Enthalpies=            -689.956615
 Sum of electronic and thermal Free Energies=         -690.010614

                     E (Thermal)             CV                S
                      KCal/Mol        Cal/Mol-Kelvin    Cal/Mol-Kelvin
 Total                  144.585             50.987            113.649
 Electronic               0.000              0.000              0.000
 Translational            0.889              2.981             41.844
 Rotational               0.889              2.981             31.531
 Vibrational            142.807             45.025             40.274
 Vibration     1          0.595              1.980              5.147
 Vibration     2          0.602              1.957              3.669
 Vibration     3          0.603              1.954              3.578
 Vibration     4          0.611              1.927              3.009
 Vibration     5          0.621              1.893              2.569
 Vibration     6          0.624              1.884              2.481
 Vibration     7          0.633              1.854              2.233
 Vibration     8          0.639              1.836              2.110
 Vibration     9          0.666              1.753              1.689
 Vibration    10          0.674              1.728              1.595
 Vibration    11          0.690              1.680              1.437
 Vibration    12          0.725              1.580              1.178
 Vibration    13          0.746              1.525              1.062
 Vibration    14          0.754              1.502              1.019
 Vibration    15          0.780              1.433              0.901
 Vibration    16          0.806              1.368              0.806
 Vibration    17          0.850              1.262              0.672
 Vibration    18          0.887              1.179              0.582
 Vibration    19          0.913              1.123              0.528
 Vibration    20          0.928              1.093              0.501

 Optimization completed.
    -- Stationary point found.
 Normal termination of Gaussian 16 at Thu Dec 10 14:56:23 2020.

 ----------------------------------------------------------------------
 # B3LYP/6-311++G(d,p) empiricaldispersion=gd3bj scf=xqc pop=npa geom=c
 heck
 ----------------------------------------------------------------------

 --------------------------------------
 CID_11953474_JID_5120_Energie_neutraal
 --------------------------------------
 Structure from the checkpoint file:  "JID_5120.chk"
 Charge =  0 Multiplicity = 1

 SCF Done:  E(RB3LYP) =  -690.377272668     A.U. after   16 cycles
 Normal termination of Gaussian 16 at Thu Dec 10 14:59:34 2020.

 ----------------------------------------------------------------------
 # B3LYP/6-311++G(d,p) empiricaldispersion=gd3bj scf=xqc pop=npa geom=c
 heck
 ----------------------------------------------------------------------

 ------------------------------------
 CID_11953474_JID_5120_Energie_kation
 ------------------------------------
 Structure from the checkpoint file:  "JID_5120.chk"
 Charge =  1 Multiplicity = 2

 SCF Done:  E(UB3LYP) =  -690.066384636     A.U. after   29 cycles
 Normal termination of Gaussian 16 at Thu Dec 10 15:08:24 2020.
 Gaussian 16:  ES64L-G16RevA.03 25-Dec-2016

 ----------------------------------------------------------------------
 # B3LYP/6-311++G(d,p) empiricaldispersion=gd3bj scf=xqc pop=npa geom=c
 heck
 ----------------------------------------------------------------------

 -----------------------------------
 CID_11953474_JID_5120_Energie_anion
 -----------------------------------
 Structure from the checkpoint file:  "JID_5120.chk"
 Charge = -1 Multiplicity = 2

                         Standard orientation:
 ---------------------------------------------------------------------
 Center     Atomic      Atomic             Coordinates (Angstroms)
 Number     Number       Type             X           Y           Z
 ---------------------------------------------------------------------
      1          6           0        2.493094   -0.867495   -1.738890
      2          8           0        1.110989   -0.636635   -1.438746
      3          6           0        0.795931   -0.326497   -0.099176
      4          6           0        1.497970    1.022756    0.238113
      5          8           0        2.688516    1.033478    0.521999
      6          6           0        0.712031    2.252867    0.119380
      7          6           0       -0.631310    2.218224   -0.000580
      8          6           0       -1.394426    0.978505   -0.059846
      9          6           0       -2.796678    1.000707   -0.092937
     10          6           0       -3.522755   -0.186878   -0.130880
     11          6           0       -2.850826   -1.410631   -0.137261
     12          6           0       -1.454905   -1.442428   -0.108541
     13          6           0       -0.725153   -0.258813   -0.065984
     14          8           0        1.283833   -1.378547    0.701991
     15          6           0        1.151504   -1.190177    2.104535
     16          1           0        2.494020   -1.292668   -2.744897
     17          1           0        2.934785   -1.571823   -1.031055
     18          1           0        3.072411    0.061718   -1.730856
     19          1           0        1.260886    3.185781    0.202962
     20          1           0       -1.196656    3.147527   -0.035742
     21          1           0       -3.312295    1.957649   -0.086380
     22          1           0       -4.608110   -0.158699   -0.155411
     23          1           0       -3.412264   -2.339902   -0.167481
     24          1           0       -0.918340   -2.385032   -0.114956
     25          1           0        1.774493   -0.361647    2.458650
     26          1           0        0.105224   -1.011495    2.388338
     27          1           0        1.492284   -2.118608    2.567289
 ---------------------------------------------------------------------

 SCF Done:  E(UB3LYP) =  -690.412227962     A.U. after   23 cycles

 The electronic state is 2-A.
 Alpha  occ. eigenvalues --  -18.99324 -18.99036 -18.92407 -10.13111 -10.08502
 Alpha  occ. eigenvalues --  -10.07442 -10.06615 -10.04133 -10.03762 -10.03675
 Alpha  occ. eigenvalues --  -10.03506 -10.03429 -10.02870 -10.01295 -10.00319
 Alpha  occ. eigenvalues --   -0.93876  -0.87405  -0.86106  -0.72608  -0.65884
 Alpha  occ. eigenvalues --   -0.63018  -0.59246  -0.58484  -0.55522  -0.51583
 Alpha  occ. eigenvalues --   -0.47837  -0.45560  -0.44596  -0.39138  -0.38017
 Alpha  occ. eigenvalues --   -0.37566  -0.34778  -0.33220  -0.32366  -0.31582
 Alpha  occ. eigenvalues --   -0.30528  -0.29276  -0.28988  -0.28423  -0.26791
 Alpha  occ. eigenvalues --   -0.26043  -0.24269  -0.23945  -0.22675  -0.21796
 Alpha  occ. eigenvalues --   -0.20696  -0.19509  -0.18966  -0.16421  -0.14852
 Alpha  occ. eigenvalues --   -0.14005  -0.12183  -0.08974  -0.07558   0.02623
 Alpha virt. eigenvalues --    0.08575   0.09586   0.10023   0.10184   0.11155
 Alpha virt. eigenvalues --    0.11518   0.12072   0.12822   0.13466   0.13674
 Alpha virt. eigenvalues --    0.14078   0.14675   0.14741   0.16022   0.16747

  Beta  occ. eigenvalues --  -18.99295 -18.98933 -18.91848 -10.13137 -10.08500
  Beta  occ. eigenvalues --  -10.07432 -10.06401 -10.04132 -10.03750 -10.03705
  Beta  occ. eigenvalues --  -10.03469 -10.03248 -10.02672 -10.00935 -10.00197
  Beta  occ. eigenvalues --   -0.93727  -0.87257  -0.85141  -0.72345  -0.65385
  Beta  occ. eigenvalues --   -0.62761  -0.59065  -0.58148  -0.55447  -0.51088
  Beta  occ. eigenvalues --   -0.47509  -0.45280  -0.44185  -0.39044  -0.37809
  Beta  occ. eigenvalues --   -0.37344  -0.34644  -0.32915  -0.32244  -0.31413
  Beta  occ. eigenvalues --   -0.30422  -0.29230  -0.28888  -0.28213  -0.26639
  Beta  occ. eigenvalues --   -0.25754  -0.23614  -0.23425  -0.22205  -0.20960
  Beta  occ. eigenvalues --   -0.19728  -0.19338  -0.18813  -0.14877  -0.14378
  Beta  occ. eigenvalues --   -0.13854  -0.11636  -0.07392  -0.07109
  Beta virt. eigenvalues --    0.08549   0.08774   0.09596   0.10030   0.10213
  Beta virt. eigenvalues --    0.11154   0.11736   0.12055   0.12837   0.13650
  Beta virt. eigenvalues --    0.14070   0.14368   0.14661   0.15476   0.16031

 Mulliken charges and spin densities:
               1          2
     1  C   -0.182817   0.004714
     2  O    0.000182   0.000615
     3  C   -0.560481   0.048757
     4  C   -0.373448   0.165683
     5  O   -0.327223   0.190175
     6  C    0.079973   0.110392
     7  C   -0.244170   0.222004
     8  C    0.586907   0.023708
     9  C   -0.182341   0.051451
    10  C   -0.451303  -0.001301
    11  C   -0.445188   0.147665
    12  C   -0.100287  -0.070226
    13  C    0.116824   0.152699
    14  O   -0.077659  -0.009575
    15  C   -0.366274   0.003324
    16  H    0.104515   0.004686
    17  H    0.153907   0.002408
    18  H    0.150137  -0.000716
    19  H    0.135247  -0.007007
    20  H    0.079120  -0.025144
    21  H    0.110460  -0.000734
    22  H    0.108490  -0.000980
    23  H    0.115364  -0.011528
    24  H    0.160290   0.004558
    25  H    0.168895  -0.006929
    26  H    0.126078  -0.003266
    27  H    0.114799   0.004568
 Sum of Mulliken charges =  -1.00000   1.00000

 Dipole moment (field-independent basis, Debye):
    X=             -2.2121    Y=             -2.1485    Z=              0.4865  Tot=              3.1218
 Quadrupole moment (field-independent basis, Debye-Ang):
   XX=           -118.7539   YY=           -101.7735   ZZ=            -98.2413
   XY=             -6.2507   XZ=             -3.5275   YZ=             -2.2371

 Summary of Natural Population Analysis:

                                       Natural Population
                Natural  -----------------------------------------------
    Atom  No    Charge         Core      Valence    Rydberg      Total
 -----------------------------------------------------------------------
      C    1   -0.10308      0.99960     2.09526    0.00822     3.10308
      O    2   -0.28886      0.99987     3.27911    0.00989     4.28886
      C    3    0.26490      0.99944     1.71425    0.02141     2.73510
      C    4    0.26223      0.99958     1.71481    0.02338     2.73777
      O    5   -0.24959      0.99988     3.24193    0.00778     4.24959
      C    6   -0.11995      0.99951     2.10990    0.01053     3.11995
      C    7   -0.00958      0.99954     2.00175    0.00829     3.00958
      C    8   -0.02591      0.99947     2.01821    0.00823     3.02591
      C    9   -0.08602      0.99954     2.07745    0.00904     3.08602
      C   10   -0.11533      0.99957     2.10647    0.00928     3.11533
      C   11   -0.07747      0.99958     2.06842    0.00947     3.07747
      C   12   -0.11096      0.99952     2.10214    0.00930     3.11096
      C   13    0.01565      0.99943     1.97261    0.01231     2.98435
      O   14   -0.30758      0.99986     3.29612    0.01160     4.30758
      C   15   -0.10276      0.99960     2.09508    0.00807     3.10276
      H   16    0.07849      0.00000     0.42063    0.00089     0.42151
      H   17    0.08796      0.00000     0.41071    0.00133     0.41204
      H   18    0.08718      0.00000     0.41147    0.00135     0.41282
      H   19    0.09133      0.00000     0.40670    0.00197     0.40867
      H   20    0.08135      0.00000     0.41676    0.00189     0.41865
      H   21    0.09384      0.00000     0.40536    0.00080     0.40616
      H   22    0.08995      0.00000     0.40899    0.00106     0.41005
      H   23    0.08820      0.00000     0.41075    0.00105     0.41180
      H   24    0.10192      0.00000     0.39619    0.00189     0.39808
      H   25    0.09074      0.00000     0.40795    0.00131     0.40926
      H   26    0.08230      0.00000     0.41652    0.00118     0.41770
      H   27    0.08107      0.00000     0.41808    0.00085     0.41893
 =======================================================================
   * Total *    0.00001     14.99400    38.82362    0.18238    53.99999

 Normal termination of Gaussian 16 at Thu Dec 10 15:15:25 2020.
