 Gaussian 16, Revision A.03,

 -----------------------------------------------------------
 # opt freq B3LYP/6-31G(d) empiricaldispersion=gd3bj scf=xqc
 -----------------------------------------------------------

 -------------------------------
 CID_123861230_JID_3077_neutraal
 -------------------------------
 Symbolic Z-matrix:
 Charge =  0 Multiplicity = 1

 SCF Done:  E(RB3LYP) =  -522.298043818     A.U. after   14 cycles
 SCF Done:  E(RB3LYP) =  -522.301871056     A.U. after   12 cycles
 SCF Done:  E(RB3LYP) =  -522.302404977     A.U. after   12 cycles
 SCF Done:  E(RB3LYP) =  -522.303082376     A.U. after   12 cycles
 SCF Done:  E(RB3LYP) =  -522.303489062     A.U. after   12 cycles
 SCF Done:  E(RB3LYP) =  -522.303619915     A.U. after   11 cycles
 SCF Done:  E(RB3LYP) =  -522.303646777     A.U. after   10 cycles
 SCF Done:  E(RB3LYP) =  -522.303650069     A.U. after    8 cycles
 SCF Done:  E(RB3LYP) =  -522.303651130     A.U. after    8 cycles
 SCF Done:  E(RB3LYP) =  -522.303651400     A.U. after    8 cycles
 SCF Done:  E(RB3LYP) =  -522.303651520     A.U. after    7 cycles
 SCF Done:  E(RB3LYP) =  -522.303651549     A.U. after    7 cycles
 Optimization completed.
    -- Stationary point found.
 Normal termination of Gaussian 16 at Wed Dec  9 22:25:17 2020.

 --------------------------------------------------------------------
 #N Geom=AllCheck Guess=TCheck SCRF=Check GenChk RB3LYP/6-31G(d) Freq
 --------------------------------------------------------------------

 Structure from the checkpoint file:  "JID_3077.chk"
 -------------------------------
 CID_123861230_JID_3077_neutraal
 -------------------------------
 Charge =  0 Multiplicity = 1

 SCF Done:  E(RB3LYP) =  -522.303651549     A.U. after    1 cycles

  Exact polarizability: 161.553   4.589 137.530  14.520  -2.659 101.256
 Approx polarizability: 217.011   9.367 216.179  28.462  -2.203 161.213

                      1                      2                      3
                      A                      A                      A
 Frequencies --     43.9980                58.6948                75.7063
 Red. masses --      3.4437                 2.7283                 2.9348
 Frc consts  --      0.0039                 0.0055                 0.0099
 IR Inten    --      0.1112                 1.1319                 0.1176

                      4                      5                      6
                      A                      A                      A
 Frequencies --    109.5252               140.5218               158.3753
 Red. masses --      2.9911                 2.9626                 1.2797
 Frc consts  --      0.0211                 0.0345                 0.0189
 IR Inten    --      3.4593                 4.2413                 0.4953

                      7                      8                      9
                      A                      A                      A
 Frequencies --    185.7366               222.3555               231.3361
 Red. masses --      1.7039                 1.3870                 1.7222
 Frc consts  --      0.0346                 0.0404                 0.0543
 IR Inten    --      0.4155                 0.3876                 0.7996

                     10                     11                     12
                      A                      A                      A
 Frequencies --    251.7277               275.9541               325.5899
 Red. masses --      1.3747                 2.3394                 2.5436
 Frc consts  --      0.0513                 0.1050                 0.1589
 IR Inten    --      1.4687                 0.6933                 2.8236

                     13                     14                     15
                      A                      A                      A
 Frequencies --    331.6190               359.1953               431.4155
 Red. masses --      2.6785                 2.3678                 3.8253
 Frc consts  --      0.1736                 0.1800                 0.4195
 IR Inten    --      0.5164                 1.7946                 2.2643

                     16                     17                     18
                      A                      A                      A
 Frequencies --    466.1248               474.9559               511.9358
 Red. masses --      3.0657                 3.5647                 3.8233
 Frc consts  --      0.3925                 0.4738                 0.5904
 IR Inten    --      1.4444                 2.8297                 0.6106

                     19                     20                     21
                      A                      A                      A
 Frequencies --    550.3697               593.1791               611.2476
 Red. masses --      3.9604                 5.0125                 3.7581
 Frc consts  --      0.7068                 1.0391                 0.8273
 IR Inten    --      3.3736                 0.1928                 4.0030

                     22                     23                     24
                      A                      A                      A
 Frequencies --    730.4963               744.8764               783.0785
 Red. masses --      3.3549                 2.0635                 1.7801
 Frc consts  --      1.0548                 0.6745                 0.6431
 IR Inten    --      4.5059                16.9929                23.0514

                     25                     26                     27
                      A                      A                      A
 Frequencies --    795.2504               825.6330               840.1024
 Red. masses --      1.2608                 2.9372                 2.1812
 Frc consts  --      0.4698                 1.1797                 0.9070
 IR Inten    --      3.6821                 3.5002                 3.2244

                     28                     29                     30
                      A                      A                      A
 Frequencies --    874.6259               921.4686               936.5276
 Red. masses --      1.3600                 1.8504                 1.3532
 Frc consts  --      0.6130                 0.9257                 0.6993
 IR Inten    --      0.6847                 5.3868                 0.9084

                     31                     32                     33
                      A                      A                      A
 Frequencies --    974.7477               983.4577              1018.7619
 Red. masses --      1.2468                 1.1147                 1.5473
 Frc consts  --      0.6979                 0.6352                 0.9461
 IR Inten    --      0.0349                33.8384                 1.9837

                     34                     35                     36
                      A                      A                      A
 Frequencies --   1019.7070              1060.4859              1081.2738
 Red. masses --      2.0440                 3.4277                 1.5205
 Frc consts  --      1.2522                 2.2713                 1.0474
 IR Inten    --      5.8008                 7.3356                 5.7104

                     37                     38                     39
                      A                      A                      A
 Frequencies --   1084.6087              1100.0083              1129.4583
 Red. masses --      2.1286                 1.7785                 1.7057
 Frc consts  --      1.4754                 1.2679                 1.2820
 IR Inten    --      9.4885                 7.3740                62.6597

                     40                     41                     42
                      A                      A                      A
 Frequencies --   1149.7279              1162.1444              1183.2698
 Red. masses --      1.6033                 1.4332                 1.8971
 Frc consts  --      1.2487                 1.1404                 1.5650
 IR Inten    --     17.0094                 5.5733                 1.3935

                     43                     44                     45
                      A                      A                      A
 Frequencies --   1196.8024              1231.6387              1245.2059
 Red. masses --      1.0927                 2.9432                 2.5657
 Frc consts  --      0.9222                 2.6305                 2.3439
 IR Inten    --      0.1174                12.5733                45.0624

                     46                     47                     48
                      A                      A                      A
 Frequencies --   1292.0609              1318.2472              1334.8946
 Red. masses --      1.3825                 1.4604                 1.3569
 Frc consts  --      1.3599                 1.4952                 1.4246
 IR Inten    --     12.8944                17.0179                22.2342

                     49                     50                     51
                      A                      A                      A
 Frequencies --   1349.2105              1359.1887              1385.4640
 Red. masses --      3.5432                 1.9209                 2.0955
 Frc consts  --      3.8002                 2.0908                 2.3698
 IR Inten    --     20.9676                39.5163                39.7362

                     52                     53                     54
                      A                      A                      A
 Frequencies --   1409.0688              1433.3634              1443.4019
 Red. masses --      1.5051                 1.2278                 1.2537
 Frc consts  --      1.7606                 1.4862                 1.5389
 IR Inten    --     17.7587                 1.4008                 1.9824

                     55                     56                     57
                      A                      A                      A
 Frequencies --   1481.8644              1494.5848              1503.6243
 Red. masses --      1.2087                 1.7521                 1.0827
 Frc consts  --      1.5638                 2.3060                 1.4423
 IR Inten    --      2.8955                 8.5334                 5.8538

                     58                     59                     60
                      A                      A                      A
 Frequencies --   1510.9327              1514.9194              1525.4841
 Red. masses --      1.0735                 1.0610                 1.0974
 Frc consts  --      1.4439                 1.4347                 1.5046
 IR Inten    --      3.1383                22.2044                 5.5850

                     61                     62                     63
                      A                      A                      A
 Frequencies --   1529.2542              1536.0807              1544.8214
 Red. masses --      1.1572                 1.0734                 2.3753
 Frc consts  --      1.5945                 1.4923                 3.3399
 IR Inten    --      8.6243                 3.2055                76.0911

                     64                     65                     66
                      A                      A                      A
 Frequencies --   1549.2063              1635.9513              1663.1149
 Red. masses --      1.0734                 5.7484                 5.6744
 Frc consts  --      1.5178                 9.0644                 9.2473
 IR Inten    --     10.0853                 4.4865                17.7078

                     67                     68                     69
                      A                      A                      A
 Frequencies --   1739.9149              2999.2579              3015.5958
 Red. masses --      5.5113                 1.0537                 1.0639
 Frc consts  --      9.8301                 5.5848                 5.7002
 IR Inten    --     91.8023                87.5056                54.4609

                     70                     71                     72
                      A                      A                      A
 Frequencies --   3041.5925              3050.8870              3057.9067
 Red. masses --      1.0347                 1.0367                 1.0980
 Frc consts  --      5.6400                 5.6851                 6.0493
 IR Inten    --     34.3098                23.6558                17.3318

                     73                     74                     75
                      A                      A                      A
 Frequencies --   3086.7817              3107.4640              3108.1240
 Red. masses --      1.0824                 1.0995                 1.1009
 Frc consts  --      6.0767                 6.2553                 6.2659
 IR Inten    --     33.6465                40.3149                32.7362

                     76                     77                     78
                      A                      A                      A
 Frequencies --   3115.5550              3132.0575              3142.3848
 Red. masses --      1.1031                 1.1034                 1.1017
 Frc consts  --      6.3087                 6.3771                 6.4095
 IR Inten    --     44.1437                15.6631                13.8905

                     79                     80                     81
                      A                      A                      A
 Frequencies --   3151.9197              3169.6718              3176.5640
 Red. masses --      1.0900                 1.0875                 1.0865
 Frc consts  --      6.3801                 6.4372                 6.4594
 IR Inten    --     34.6907                22.8217                 8.3512

                     82                     83                     84
                      A                      A                      A
 Frequencies --   3187.6347              3202.8915              3212.5764
 Red. masses --      1.0882                 1.0925                 1.0962
 Frc consts  --      6.5145                 6.6033                 6.6657
 IR Inten    --     11.5949                33.0402                19.3636

 - Thermochemistry -
 -------------------
 Temperature   298.150 Kelvin.  Pressure   1.00000 Atm.
 Atom     1 has atomic number  6 and mass  12.00000

 Molecular mass:   175.13610 amu.
 Principal axes and moments of inertia in atomic units:
                           1         2         3
     Eigenvalues --  1585.246343389.296554076.74828
           X            0.99980  -0.02017   0.00032
           Y            0.02018   0.99977  -0.00725
           Z           -0.00018   0.00725   0.99997
 This molecule is an asymmetric top.
 Rotational symmetry number  1.
 Warning -- assumption of classical behavior for rotation
           may cause significant error
 Rotational temperatures (Kelvin)      0.05464     0.02556     0.02125
 Rotational constants (GHZ):           1.13846     0.53248     0.44269
 Zero-point vibrational energy     693812.8 (Joules/Mol)
                                  165.82524 (Kcal/Mol)
 Warning -- explicit consideration of  21 degrees of freedom as
           vibrations may cause significant error
 Vibrational temperatures:     63.30    84.45   108.92   157.58   202.18
          (Kelvin)            227.87   267.23   319.92   332.84   362.18
                              397.04   468.45   477.13   516.80   620.71
                              670.65   683.36   736.56   791.86   853.45
                              879.45  1051.02  1071.71  1126.68  1144.19
                             1187.90  1208.72  1258.39  1325.79  1347.45
                             1402.44  1414.98  1465.77  1467.13  1525.80
                             1555.71  1560.51  1582.67  1625.04  1654.20
                             1672.07  1702.46  1721.93  1772.05  1791.57
                             1858.99  1896.66  1920.62  1941.21  1955.57
                             1993.37  2027.34  2062.29  2076.73  2132.07
                             2150.37  2163.38  2173.90  2179.63  2194.83
                             2200.26  2210.08  2222.65  2228.96  2353.77
                             2392.85  2503.35  4315.26  4338.77  4376.17
                             4389.55  4399.65  4441.19  4470.95  4471.90
                             4482.59  4506.33  4521.19  4534.91  4560.45
                             4570.37  4586.30  4608.25  4622.18

 Zero-point correction=                           0.264259 (Hartree/Particle)
 Thermal correction to Energy=                    0.277887
 Thermal correction to Enthalpy=                  0.278832
 Thermal correction to Gibbs Free Energy=         0.223969
 Sum of electronic and zero-point Energies=           -522.039392
 Sum of electronic and thermal Energies=              -522.025764
 Sum of electronic and thermal Enthalpies=            -522.024820
 Sum of electronic and thermal Free Energies=         -522.079683

                     E (Thermal)             CV                S
                      KCal/Mol        Cal/Mol-Kelvin    Cal/Mol-Kelvin
 Total                  174.377             51.424            115.468
 Electronic               0.000              0.000              0.000
 Translational            0.889              2.981             41.388
 Rotational               0.889              2.981             31.460
 Vibrational            172.600             45.463             42.620
 Vibration     1          0.595              1.980              5.070
 Vibration     2          0.596              1.974              4.501
 Vibration     3          0.599              1.965              3.999
 Vibration     4          0.606              1.942              3.277
 Vibration     5          0.615              1.913              2.797
 Vibration     6          0.621              1.893              2.569
 Vibration     7          0.632              1.859              2.270
 Vibration     8          0.648              1.807              1.940
 Vibration     9          0.653              1.793              1.869
 Vibration    10          0.664              1.760              1.718
 Vibration    11          0.678              1.718              1.559
 Vibration    12          0.710              1.624              1.282
 Vibration    13          0.714              1.612              1.252
 Vibration    14          0.734              1.556              1.126
 Vibration    15          0.792              1.402              0.854
 Vibration    16          0.823              1.325              0.748
 Vibration    17          0.832              1.306              0.724
 Vibration    18          0.867              1.224              0.629
 Vibration    19          0.906              1.139              0.543
 Vibration    20          0.951              1.046              0.462
 Vibration    21          0.970              1.008              0.431

 Optimization completed.
    -- Stationary point found.
 Normal termination of Gaussian 16 at Wed Dec  9 22:33:13 2020.

 ----------------------------------------------------------------------
 # B3LYP/6-311++G(d,p) empiricaldispersion=gd3bj scf=xqc pop=npa geom=c
 heck
 ----------------------------------------------------------------------

 ---------------------------------------
 CID_123861230_JID_3077_Energie_neutraal
 ---------------------------------------
 Structure from the checkpoint file:  "JID_3077.chk"
 Charge =  0 Multiplicity = 1

 SCF Done:  E(RB3LYP) =  -522.442804952     A.U. after   14 cycles
 Normal termination of Gaussian 16 at Wed Dec  9 22:36:50 2020.

 ----------------------------------------------------------------------
 # B3LYP/6-311++G(d,p) empiricaldispersion=gd3bj scf=xqc pop=npa geom=c
 heck
 ----------------------------------------------------------------------

 -------------------------------------
 CID_123861230_JID_3077_Energie_kation
 -------------------------------------
 Structure from the checkpoint file:  "JID_3077.chk"
 Charge =  1 Multiplicity = 2

 SCF Done:  E(UB3LYP) =  -522.184442853     A.U. after   20 cycles
 Normal termination of Gaussian 16 at Wed Dec  9 22:44:27 2020.
 Gaussian 16:  ES64L-G16RevA.03 25-Dec-2016

 ----------------------------------------------------------------------
 # B3LYP/6-311++G(d,p) empiricaldispersion=gd3bj scf=xqc pop=npa geom=c
 heck
 ----------------------------------------------------------------------

 ------------------------------------
 CID_123861230_JID_3077_Energie_anion
 ------------------------------------
 Structure from the checkpoint file:  "JID_3077.chk"
 Charge = -1 Multiplicity = 2

                         Standard orientation:
 ---------------------------------------------------------------------
 Center     Atomic      Atomic             Coordinates (Angstroms)
 Number     Number       Type             X           Y           Z
 ---------------------------------------------------------------------
      1          6           0        3.807619   -1.428251   -0.333601
      2          6           0        3.314562   -0.088177   -0.904622
      3          6           0        1.851578    0.150004   -0.658172
      4          6           0        1.387569    1.116586    0.146635
      5          7           0        0.057523    1.354731    0.518070
      6          6           0       -0.312214    2.756865    0.666007
      7          6           0       -0.957935    0.441424    0.121759
      8          6           0       -1.945587    0.830827   -0.791967
      9          6           0       -2.967361   -0.043523   -1.157083
     10          6           0       -3.003460   -1.327323   -0.617012
     11          6           0       -2.023122   -1.714922    0.296384
     12          6           0       -0.997465   -0.850888    0.691833
     13          6           0        0.013758   -1.288475    1.716390
     14          1           0        3.684379   -1.453072    0.754967
     15          1           0        4.866544   -1.596058   -0.563670
     16          1           0        3.236477   -2.265812   -0.751780
     17          1           0        3.901408    0.731352   -0.468778
     18          1           0        3.516380   -0.072037   -1.985988
     19          1           0        1.150563   -0.532409   -1.135658
     20          1           0        2.083198    1.815093    0.611428
     21          1           0       -0.376226    3.298043   -0.291164
     22          1           0       -1.278151    2.825534    1.172349
     23          1           0        0.441514    3.258011    1.282799
     24          1           0       -1.904919    1.823780   -1.228163
     25          1           0       -3.724055    0.277279   -1.867620
     26          1           0       -3.793163   -2.019702   -0.894214
     27          1           0       -2.061529   -2.708887    0.735763
     28          1           0        0.964584   -1.570011    1.248391
     29          1           0        0.239636   -0.472475    2.410480
     30          1           0       -0.356948   -2.146638    2.285058
 ---------------------------------------------------------------------

 SCF Done:  E(UB3LYP) =  -522.426600710     A.U. after   33 cycles
 SCF Done:  E(UB3LYP) =  -522.426600710     a.u. after    1 cycles

 The electronic state is 2-A.
 Alpha  occ. eigenvalues --  -14.23388 -10.11023 -10.09673 -10.09650 -10.08508
 Alpha  occ. eigenvalues --  -10.07562 -10.07478 -10.07386 -10.07354 -10.07287
 Alpha  occ. eigenvalues --  -10.06488 -10.06347 -10.05482  -0.85411  -0.75483
 Alpha  occ. eigenvalues --   -0.69654  -0.67652  -0.64992  -0.63208  -0.59313
 Alpha  occ. eigenvalues --   -0.57308  -0.53146  -0.49939  -0.49213  -0.45610
 Alpha  occ. eigenvalues --   -0.41243  -0.39520  -0.37888  -0.37406  -0.34676
 Alpha  occ. eigenvalues --   -0.34058  -0.33055  -0.32566  -0.31849  -0.31204
 Alpha  occ. eigenvalues --   -0.29762  -0.29361  -0.28399  -0.27772  -0.26121
 Alpha  occ. eigenvalues --   -0.25739  -0.24995  -0.24750  -0.24072  -0.20691
 Alpha  occ. eigenvalues --   -0.15720  -0.14930  -0.09741   0.04421
 Alpha virt. eigenvalues --    0.06297   0.06524   0.07303   0.08062   0.08426
 Alpha virt. eigenvalues --    0.08505   0.08843   0.09360   0.09877   0.10064
 Alpha virt. eigenvalues --    0.10917   0.11167   0.11544   0.12364   0.13109

  Beta  occ. eigenvalues --  -14.23389 -10.11018 -10.09657 -10.09601 -10.08509
  Beta  occ. eigenvalues --  -10.07552 -10.07463 -10.07372 -10.07335 -10.07275
  Beta  occ. eigenvalues --  -10.06474 -10.06320 -10.05474  -0.85396  -0.75460
  Beta  occ. eigenvalues --   -0.69625  -0.67627  -0.64959  -0.63164  -0.59274
  Beta  occ. eigenvalues --   -0.57257  -0.53100  -0.49895  -0.49174  -0.45569
  Beta  occ. eigenvalues --   -0.41204  -0.39481  -0.37858  -0.37369  -0.34638
  Beta  occ. eigenvalues --   -0.34027  -0.33018  -0.32529  -0.31830  -0.31172
  Beta  occ. eigenvalues --   -0.29717  -0.29335  -0.28361  -0.27730  -0.26089
  Beta  occ. eigenvalues --   -0.25706  -0.24969  -0.24722  -0.24043  -0.20656
  Beta  occ. eigenvalues --   -0.15672  -0.14906  -0.09710
  Beta virt. eigenvalues --    0.06418   0.07043   0.07488   0.07798   0.08264
  Beta virt. eigenvalues --    0.08531   0.08937   0.09231   0.09761   0.10233
  Beta virt. eigenvalues --    0.10422   0.11428   0.11636   0.11837   0.12643

 Mulliken charges and spin densities:
               1          2
     1  C    0.396589  -0.980894
     2  C    0.060981  -0.422009
     3  C    0.129112   0.327872
     4  C   -0.643217  -0.018176
     5  N    0.304965   0.027962
     6  C    1.314577  -1.580806
     7  C   -1.751902   1.346885
     8  C   -0.501543   0.554196
     9  C    1.643676  -1.988443
    10  C    0.728007  -1.101818
    11  C   -0.238979   0.024394
    12  C   -0.551099   1.110312
    13  C    0.797262  -1.546204
    14  H   -0.051691   0.188211
    15  H   -0.277550   0.403839
    16  H   -0.055434   0.192914
    17  H   -0.126404   0.270227
    18  H   -0.065955   0.193227
    19  H    0.094796   0.083791
    20  H   -0.066007   0.205073
    21  H   -0.284036   0.442989
    22  H   -0.122178   0.279836
    23  H   -0.664518   0.805157
    24  H   -0.297545   0.448934
    25  H   -0.441113   0.609794
    26  H   -0.356265   0.512294
    27  H   -0.271356   0.429074
    28  H    0.420714  -0.253017
    29  H   -0.014754   0.187738
    30  H   -0.109134   0.246649
 Sum of Mulliken charges =  -1.00000   1.00000

 Dipole moment (field-independent basis, Debye):
    X=              0.1620    Y=             -2.5027    Z=              0.6306  Tot=              2.5860
 Quadrupole moment (field-independent basis, Debye-Ang):
   XX=           -153.5413   YY=           -135.4920   ZZ=           -115.2185
   XY=              0.9098   XZ=             -3.0464   YZ=             -2.6824

 Summary of Natural Population Analysis:

                                       Natural Population
                Natural  -----------------------------------------------
    Atom  No    Charge         Core      Valence    Rydberg      Total
 -----------------------------------------------------------------------
      C    1   -0.28085      0.99966     2.27671    0.00448     3.28085
      C    2   -0.20021      0.99963     2.19150    0.00907     3.20021
      C    3   -0.13462      0.99953     2.12629    0.00880     3.13462
      C    4    0.01663      0.99947     1.97172    0.01219     2.98337
      N    5   -0.26084      0.99965     2.74707    0.01412     3.76084
      C    6   -0.17204      0.99964     2.16385    0.00856     3.17204
      C    7    0.08393      0.99943     1.90315    0.01349     2.91607
      C    8   -0.10949      0.99951     2.09990    0.01007     3.10949
      C    9   -0.10131      0.99956     2.09135    0.01040     3.10131
      C   10   -0.11636      0.99960     2.10264    0.01412     3.11636
      C   11   -0.07451      0.99952     2.06964    0.00535     3.07451
      C   12   -0.02804      0.99950     2.01599    0.01254     3.02804
      C   13   -0.29498      0.99963     2.29025    0.00510     3.29498
      H   14    0.09590      0.00000     0.40259    0.00151     0.40410
      H   15    0.09565      0.00000     0.40280    0.00155     0.40435
      H   16    0.09443      0.00000     0.40406    0.00151     0.40557
      H   17    0.09526      0.00000     0.40331    0.00142     0.40474
      H   18    0.09507      0.00000     0.40374    0.00119     0.40493
      H   19    0.09775      0.00000     0.40077    0.00148     0.40225
      H   20    0.09121      0.00000     0.40736    0.00143     0.40879
      H   21    0.08840      0.00000     0.40954    0.00206     0.41160
      H   22    0.10005      0.00000     0.39854    0.00141     0.39995
      H   23    0.09937      0.00000     0.39890    0.00174     0.40063
      H   24    0.10563      0.00000     0.39278    0.00159     0.39437
      H   25    0.10130      0.00000     0.39739    0.00131     0.39870
      H   26    0.10026      0.00000     0.39860    0.00113     0.39974
      H   27    0.09527      0.00000     0.40334    0.00139     0.40473
      H   28    0.10995      0.00000     0.38870    0.00135     0.39005
      H   29    0.10806      0.00000     0.39051    0.00143     0.39194
      H   30    0.09915      0.00000     0.39985    0.00100     0.40085
 =======================================================================
   * Total *    0.00002     12.99433    34.85285    0.15279    47.99998

 Normal termination of Gaussian 16 at Wed Dec  9 22:57:05 2020.
