 Gaussian 16, Revision A.03,

 -----------------------------------------------------------
 # opt freq B3LYP/6-31G(d) empiricaldispersion=gd3bj scf=xqc
 -----------------------------------------------------------

 -------------------------------
 CID_115840178_JID_3781_neutraal
 -------------------------------
 Symbolic Z-matrix:
 Charge =  0 Multiplicity = 1

 SCF Done:  E(RB3LYP) =  -902.251555953     A.U. after   15 cycles
 SCF Done:  E(RB3LYP) =  -902.258007592     A.U. after   12 cycles
 SCF Done:  E(RB3LYP) =  -902.258588697     A.U. after   12 cycles
 SCF Done:  E(RB3LYP) =  -902.258719699     A.U. after   12 cycles
 SCF Done:  E(RB3LYP) =  -902.258833930     A.U. after   11 cycles
 SCF Done:  E(RB3LYP) =  -902.258905012     A.U. after   11 cycles
 SCF Done:  E(RB3LYP) =  -902.258963824     A.U. after   11 cycles
 SCF Done:  E(RB3LYP) =  -902.259006114     A.U. after   11 cycles
 SCF Done:  E(RB3LYP) =  -902.259012007     A.U. after    9 cycles
 SCF Done:  E(RB3LYP) =  -902.259014904     A.U. after    9 cycles
 SCF Done:  E(RB3LYP) =  -902.259015729     A.U. after    8 cycles
 SCF Done:  E(RB3LYP) =  -902.259015941     A.U. after    8 cycles
 Optimization completed.
    -- Stationary point found.
 Normal termination of Gaussian 16 at Mon Dec 14 13:14:00 2020.

 --------------------------------------------------------------------
 #N Geom=AllCheck Guess=TCheck SCRF=Check GenChk RB3LYP/6-31G(d) Freq
 --------------------------------------------------------------------

 Structure from the checkpoint file:  "JID_3781.chk"
 -------------------------------
 CID_115840178_JID_3781_neutraal
 -------------------------------
 Charge =  0 Multiplicity = 1

 SCF Done:  E(RB3LYP) =  -902.259015941     A.U. after    1 cycles

  Exact polarizability: 173.774  -2.027 122.715  -0.653 -10.862  99.593
 Approx polarizability: 224.911  -4.619 207.332  -2.306 -30.360 158.820

                      1                      2                      3
                      A                      A                      A
 Frequencies --     27.9215                62.4057                87.0698
 Red. masses --      4.1315                 3.3021                 2.9483
 Frc consts  --      0.0019                 0.0076                 0.0132
 IR Inten    --      0.3108                 0.0689                 0.0716

                      4                      5                      6
                      A                      A                      A
 Frequencies --    127.5917               149.2667               188.7003
 Red. masses --      3.2098                 2.5044                 3.0319
 Frc consts  --      0.0308                 0.0329                 0.0636
 IR Inten    --      0.2352                 0.4127                 0.9590

                      7                      8                      9
                      A                      A                      A
 Frequencies --    207.5297               218.5531               235.1437
 Red. masses --      1.2469                 2.3607                 1.2095
 Frc consts  --      0.0316                 0.0664                 0.0394
 IR Inten    --      0.2334                 2.1849                 0.3075

                     10                     11                     12
                      A                      A                      A
 Frequencies --    239.4523               299.5855               304.4808
 Red. masses --      2.4083                 1.8212                 1.6340
 Frc consts  --      0.0814                 0.0963                 0.0893
 IR Inten    --      3.0075                61.3666                36.2758

                     13                     14                     15
                      A                      A                      A
 Frequencies --    355.2589               356.9886               402.7028
 Red. masses --      3.9994                 3.1255                 2.6902
 Frc consts  --      0.2974                 0.2347                 0.2570
 IR Inten    --     42.7283                 1.8075                 0.2755

                     16                     17                     18
                      A                      A                      A
 Frequencies --    424.8975               494.3010               522.3171
 Red. masses --      3.6721                 3.7139                 4.6191
 Frc consts  --      0.3906                 0.5346                 0.7425
 IR Inten    --      7.4311                 5.9235                 0.3112

                     19                     20                     21
                      A                      A                      A
 Frequencies --    557.6618               594.2963               636.7057
 Red. masses --      6.4982                 3.7239                 3.6370
 Frc consts  --      1.1906                 0.7749                 0.8687
 IR Inten    --      0.6621                 1.5631                12.1871

                     22                     23                     24
                      A                      A                      A
 Frequencies --    665.0592               743.2975               784.0635
 Red. masses --      2.2896                 4.1320                 3.2991
 Frc consts  --      0.5967                 1.3451                 1.1950
 IR Inten    --      2.8397                 3.2673                14.7673

                     25                     26                     27
                      A                      A                      A
 Frequencies --    847.9018               852.9415               858.5915
 Red. masses --      2.0428                 2.3958                 1.5563
 Frc consts  --      0.8653                 1.0269                 0.6759
 IR Inten    --      2.8098                12.0208                 7.4845

                     28                     29                     30
                      A                      A                      A
 Frequencies --    909.6481               911.5312               935.0214
 Red. masses --      1.9912                 1.7192                 2.2133
 Frc consts  --      0.9708                 0.8416                 1.1401
 IR Inten    --      0.3191                 0.1871                14.8050

                     31                     32                     33
                      A                      A                      A
 Frequencies --    950.2109               978.7896               998.1399
 Red. masses --      1.2297                 1.4785                 3.7629
 Frc consts  --      0.6542                 0.8345                 2.2088
 IR Inten    --      6.5909                 2.0856                 3.7569

                     34                     35                     36
                      A                      A                      A
 Frequencies --   1016.1215              1041.2720              1069.5894
 Red. masses --      2.3605                 4.2072                 1.6827
 Frc consts  --      1.4360                 2.6876                 1.1342
 IR Inten    --      6.1562                95.9837                 1.2756

                     37                     38                     39
                      A                      A                      A
 Frequencies --   1097.5137              1140.4937              1163.4982
 Red. masses --      2.4710                 1.9724                 1.3311
 Frc consts  --      1.7536                 1.5116                 1.0617
 IR Inten    --     17.2301                 3.0303                 4.4691

                     40                     41                     42
                      A                      A                      A
 Frequencies --   1171.1360              1190.0857              1201.0276
 Red. masses --      1.6932                 2.7976                 1.6357
 Frc consts  --      1.3683                 2.3345                 1.3901
 IR Inten    --     16.3169                 6.9694                 7.4440

                     43                     44                     45
                      A                      A                      A
 Frequencies --   1213.8747              1236.7122              1241.5007
 Red. masses --      1.6355                 1.3582                 1.2570
 Frc consts  --      1.4198                 1.2239                 1.1415
 IR Inten    --      0.4240                 6.2705                 1.3834

                     46                     47                     48
                      A                      A                      A
 Frequencies --   1274.7048              1316.9616              1333.0659
 Red. masses --      1.4344                 1.4030                 1.4106
 Frc consts  --      1.3732                 1.4337                 1.4769
 IR Inten    --     26.0612                14.5357                12.7406

                     49                     50                     51
                      A                      A                      A
 Frequencies --   1343.0371              1357.3413              1364.2678
 Red. masses --      1.5934                 1.4416                 1.3903
 Frc consts  --      1.6934                 1.5649                 1.5246
 IR Inten    --      1.5248                 2.5810                 3.4560

                     52                     53                     54
                      A                      A                      A
 Frequencies --   1412.1419              1426.4467              1435.7948
 Red. masses --      1.3556                 1.2417                 1.4413
 Frc consts  --      1.5927                 1.4887                 1.7506
 IR Inten    --      1.8756                14.3185                61.4161

                     55                     56                     57
                      A                      A                      A
 Frequencies --   1441.4555              1449.4400              1509.5413
 Red. masses --      2.8405                 1.3317                 1.3891
 Frc consts  --      3.4774                 1.6484                 1.8649
 IR Inten    --      6.2136                10.0188                 2.1240

                     58                     59                     60
                      A                      A                      A
 Frequencies --   1518.8538              1521.5270              1523.2599
 Red. masses --      1.0635                 1.1029                 1.0617
 Frc consts  --      1.4456                 1.5043                 1.4514
 IR Inten    --      1.3131                 0.4978                 1.2486

                     61                     62                     63
                      A                      A                      A
 Frequencies --   1524.7596              1532.2840              1538.9064
 Red. masses --      2.2200                 1.0480                 1.2457
 Frc consts  --      3.0410                 1.4497                 1.7381
 IR Inten    --     10.7140                 4.5462                 2.9938

                     64                     65                     66
                      A                      A                      A
 Frequencies --   1545.3699              1612.1386              3009.6299
 Red. masses --      1.0541                 5.5503                 1.0818
 Frc consts  --      1.4832                 8.4991                 5.7734
 IR Inten    --      7.9926                 0.6551                16.0550

                     67                     68                     69
                      A                      A                      A
 Frequencies --   3029.4223              3031.1370              3043.8706
 Red. masses --      1.0684                 1.0685                 1.0395
 Frc consts  --      5.7773                 5.7842                 5.6743
 IR Inten    --     45.8544                47.1323                16.9451

                     70                     71                     72
                      A                      A                      A
 Frequencies --   3047.9259              3057.7956              3067.9689
 Red. masses --      1.0455                 1.0790                 1.0736
 Frc consts  --      5.7222                 5.9441                 5.9538
 IR Inten    --     22.9979                50.5221                 9.6436

                     73                     74                     75
                      A                      A                      A
 Frequencies --   3081.0803              3087.3553              3103.6426
 Red. masses --      1.0925                 1.0848                 1.1005
 Frc consts  --      6.1106                 6.0923                 6.2459
 IR Inten    --     29.6324                57.2921                 2.3829

                     76                     77                     78
                      A                      A                      A
 Frequencies --   3110.3391              3122.0197              3138.5325
 Red. masses --      1.0998                 1.1056                 1.1000
 Frc consts  --      6.2687                 6.3495                 6.3840
 IR Inten    --     66.8606                43.6442                32.3652

                     79                     80                     81
                      A                      A                      A
 Frequencies --   3151.1068              3217.3622              3729.0827
 Red. masses --      1.0989                 1.0920                 1.0660
 Frc consts  --      6.4291                 6.6601                 8.7340
 IR Inten    --     16.9905                 9.4099                11.1479

 - Thermochemistry -
 -------------------
 Temperature   298.150 Kelvin.  Pressure   1.00000 Atm.
 Atom     1 has atomic number  6 and mass  12.00000

 Molecular mass:   196.09219 amu.
 Principal axes and moments of inertia in atomic units:
                           1         2         3
     Eigenvalues --  1140.880354782.097765265.40464
           X            0.99997   0.00463   0.00628
           Y           -0.00472   0.99989   0.01382
           Z           -0.00622  -0.01385   0.99988
 This molecule is an asymmetric top.
 Rotational symmetry number  1.
 Warning -- assumption of classical behavior for rotation
           may cause significant error
 Rotational temperatures (Kelvin)      0.07592     0.01811     0.01645
 Rotational constants (GHZ):           1.58188     0.37740     0.34275
 Zero-point vibrational energy     656273.9 (Joules/Mol)
                                  156.85322 (Kcal/Mol)
 Warning -- explicit consideration of  20 degrees of freedom as
           vibrations may cause significant error
 Vibrational temperatures:     40.17    89.79   125.27   183.58   214.76
          (Kelvin)            271.50   298.59   314.45   338.32   344.52
                              431.04   438.08   511.14   513.63   579.40
                              611.33   711.19   751.50   802.35   855.06
                              916.08   956.87  1069.44  1128.09  1219.94
                             1227.19  1235.32  1308.78  1311.49  1345.29
                             1367.14  1408.26  1436.10  1461.97  1498.16
                             1538.90  1579.08  1640.92  1674.01  1685.00
                             1712.27  1728.01  1746.49  1779.35  1786.24
                             1834.02  1894.81  1917.98  1932.33  1952.91
                             1962.88  2031.76  2052.34  2065.79  2073.93
                             2085.42  2171.89  2185.29  2189.14  2191.63
                             2193.79  2204.61  2214.14  2223.44  2319.51
                             4330.19  4358.66  4361.13  4379.45  4385.29
                             4399.49  4414.12  4432.99  4442.02  4465.45
                             4475.08  4491.89  4515.65  4533.74  4629.07
                             5365.32

 Zero-point correction=                           0.249962 (Hartree/Particle)
 Thermal correction to Energy=                    0.263465
 Thermal correction to Enthalpy=                  0.264409
 Thermal correction to Gibbs Free Energy=         0.209445
 Sum of electronic and zero-point Energies=           -902.009054
 Sum of electronic and thermal Energies=              -901.995551
 Sum of electronic and thermal Enthalpies=            -901.994607
 Sum of electronic and thermal Free Energies=         -902.049571

                     E (Thermal)             CV                S
                      KCal/Mol        Cal/Mol-Kelvin    Cal/Mol-Kelvin
 Total                  165.327             51.199            115.682
 Electronic               0.000              0.000              0.000
 Translational            0.889              2.981             41.725
 Rotational               0.889              2.981             31.730
 Vibrational            163.549             45.237             42.226
 Vibration     1          0.593              1.984              5.972
 Vibration     2          0.597              1.972              4.380
 Vibration     3          0.601              1.958              3.725
 Vibration     4          0.611              1.926              2.982
 Vibration     5          0.618              1.903              2.682
 Vibration     6          0.633              1.855              2.241
 Vibration     7          0.641              1.829              2.065
 Vibration     8          0.646              1.813              1.971
 Vibration     9          0.655              1.787              1.839
 Vibration    10          0.657              1.780              1.807
 Vibration    11          0.692              1.674              1.419
 Vibration    12          0.695              1.665              1.392
 Vibration    13          0.731              1.564              1.143
 Vibration    14          0.732              1.561              1.135
 Vibration    15          0.768              1.464              0.953
 Vibration    16          0.787              1.416              0.875
 Vibration    17          0.850              1.263              0.673
 Vibration    18          0.877              1.201              0.605
 Vibration    19          0.913              1.123              0.529
 Vibration    20          0.952              1.044              0.460

 Optimization completed.
    -- Stationary point found.
 Normal termination of Gaussian 16 at Mon Dec 14 13:21:08 2020.

 ----------------------------------------------------------------------
 # B3LYP/6-311++G(d,p) empiricaldispersion=gd3bj scf=xqc pop=npa geom=c
 heck
 ----------------------------------------------------------------------

 ---------------------------------------
 CID_115840178_JID_3781_Energie_neutraal
 ---------------------------------------
 Structure from the checkpoint file:  "JID_3781.chk"
 Charge =  0 Multiplicity = 1

 SCF Done:  E(RB3LYP) =  -902.429113342     A.U. after   15 cycles
 Normal termination of Gaussian 16 at Mon Dec 14 13:24:52 2020.

 ----------------------------------------------------------------------
 # B3LYP/6-311++G(d,p) empiricaldispersion=gd3bj scf=xqc pop=npa geom=c
 heck
 ----------------------------------------------------------------------

 -------------------------------------
 CID_115840178_JID_3781_Energie_kation
 -------------------------------------
 Structure from the checkpoint file:  "JID_3781.chk"
 Charge =  1 Multiplicity = 2

 SCF Done:  E(UB3LYP) =  -902.140242445     A.U. after   22 cycles
 Normal termination of Gaussian 16 at Mon Dec 14 13:32:15 2020.
 Gaussian 16:  ES64L-G16RevA.03 25-Dec-2016

 ----------------------------------------------------------------------
 # B3LYP/6-311++G(d,p) empiricaldispersion=gd3bj scf=xqc pop=npa geom=c
 heck
 ----------------------------------------------------------------------

 ------------------------------------
 CID_115840178_JID_3781_Energie_anion
 ------------------------------------
 Structure from the checkpoint file:  "JID_3781.chk"
 Charge = -1 Multiplicity = 2

                         Standard orientation:
 ---------------------------------------------------------------------
 Center     Atomic      Atomic             Coordinates (Angstroms)
 Number     Number       Type             X           Y           Z
 ---------------------------------------------------------------------
      1          6           0        2.589448    1.463247    1.299997
      2          6           0        2.808875    0.697124   -0.010786
      3          6           0        4.286020    0.326645   -0.184573
      4          6           0        1.930488   -0.570532   -0.072559
      5          6           0        0.453184   -0.281249   -0.028347
      6          6           0       -0.235835    0.804860   -0.515107
      7          6           0       -1.648178    0.669105   -0.369700
      8          6           0       -2.018275   -0.511667    0.212653
      9         16           0       -0.650886   -1.501811    0.595429
     10          6           0       -3.505262   -0.687334    0.326938
     11          6           0       -4.000914    0.765270    0.048868
     12          6           0       -2.862850    1.485233   -0.736045
     13          8           0        2.237751   -1.380960   -1.218545
     14          1           0        2.849840    0.832943    2.159970
     15          1           0        1.550581    1.781435    1.421201
     16          1           0        3.228654    2.352324    1.337464
     17          1           0        2.519833    1.345959   -0.851741
     18          1           0        4.625690   -0.302027    0.648721
     19          1           0        4.446290   -0.230803   -1.109968
     20          1           0        4.910353    1.227040   -0.199388
     21          1           0        2.202858   -1.204356    0.780444
     22          1           0        0.255268    1.673658   -0.939942
     23          1           0       -3.836110   -1.056617    1.303950
     24          1           0       -3.879842   -1.394591   -0.426552
     25          1           0       -4.955987    0.783099   -0.484173
     26          1           0       -4.148921    1.275204    1.006600
     27          1           0       -3.043468    1.454902   -1.820008
     28          1           0       -2.781430    2.542696   -0.459280
     29          1           0        1.788362   -0.968417   -1.973843
 ---------------------------------------------------------------------

 SCF Done:  E(UB3LYP) =  -902.413715667     A.U. after   33 cycles
 SCF Done:  E(UB3LYP) =  -902.413715668     a.u. after    1 cycles

 The electronic state is 2-A.
 Alpha  occ. eigenvalues --  -88.77210 -19.02695 -10.13573 -10.10096 -10.09150
 Alpha  occ. eigenvalues --  -10.08124 -10.08093 -10.07547 -10.07266 -10.07241
 Alpha  occ. eigenvalues --  -10.07092 -10.06114 -10.06030  -7.85803  -5.82087
 Alpha  occ. eigenvalues --   -5.81738  -5.81400  -0.92951  -0.78909  -0.72317
 Alpha  occ. eigenvalues --   -0.70275  -0.64584  -0.62203  -0.58980  -0.58615
 Alpha  occ. eigenvalues --   -0.56403  -0.48916  -0.48296  -0.45965  -0.41403
 Alpha  occ. eigenvalues --   -0.39545  -0.38807  -0.37227  -0.36403  -0.35173
 Alpha  occ. eigenvalues --   -0.33297  -0.30741  -0.30538  -0.28832  -0.28494
 Alpha  occ. eigenvalues --   -0.27867  -0.27639  -0.26754  -0.25427  -0.25168
 Alpha  occ. eigenvalues --   -0.24843  -0.24006  -0.23888  -0.23152  -0.22674
 Alpha  occ. eigenvalues --   -0.18277  -0.14922  -0.12010   0.04552
 Alpha virt. eigenvalues --    0.06302   0.07110   0.07704   0.07943   0.08403
 Alpha virt. eigenvalues --    0.08808   0.09252   0.09962   0.10421   0.10897
 Alpha virt. eigenvalues --    0.11232   0.11718   0.12075   0.12260   0.12817

  Beta  occ. eigenvalues --  -88.77205 -19.02681 -10.13572 -10.10089 -10.09133
  Beta  occ. eigenvalues --  -10.08098 -10.08081 -10.07524 -10.07235 -10.07213
  Beta  occ. eigenvalues --  -10.07095 -10.06093 -10.06009  -7.85798  -5.82075
  Beta  occ. eigenvalues --   -5.81734  -5.81395  -0.92922  -0.78883  -0.72285
  Beta  occ. eigenvalues --   -0.70244  -0.64545  -0.62170  -0.58925  -0.58566
  Beta  occ. eigenvalues --   -0.56360  -0.48857  -0.48226  -0.45926  -0.41352
  Beta  occ. eigenvalues --   -0.39505  -0.38764  -0.37188  -0.36350  -0.35145
  Beta  occ. eigenvalues --   -0.33271  -0.30702  -0.30503  -0.28806  -0.28456
  Beta  occ. eigenvalues --   -0.27827  -0.27608  -0.26717  -0.25384  -0.25126
  Beta  occ. eigenvalues --   -0.24799  -0.23965  -0.23849  -0.23118  -0.22644
  Beta  occ. eigenvalues --   -0.18259  -0.14891  -0.11966
  Beta virt. eigenvalues --    0.06715   0.07017   0.07509   0.08157   0.08542
  Beta virt. eigenvalues --    0.08915   0.09057   0.09711   0.10236   0.10837
  Beta virt. eigenvalues --    0.11297   0.11511   0.12059   0.12244   0.12476

 Mulliken charges and spin densities:
               1          2
     1  C    0.383395  -1.081364
     2  C   -1.106740   1.552139
     3  C    0.368773  -0.844590
     4  C    0.581602  -0.890518
     5  C   -0.492654   0.572851
     6  C   -0.373188   0.205717
     7  C   -0.820754   1.321478
     8  C   -1.385069   1.905640
     9  S   -0.136980  -0.418028
    10  C    1.860516  -2.392950
    11  C   -0.748400   0.571972
    12  C    3.015265  -4.015565
    13  O   -0.150805  -0.006826
    14  H   -0.056041   0.185681
    15  H    0.060611   0.103178
    16  H   -0.162151   0.299483
    17  H   -0.207093   0.365095
    18  H    0.065181   0.046670
    19  H   -0.002794   0.156666
    20  H   -0.307333   0.459113
    21  H    0.132274   0.035589
    22  H   -0.471815   0.639715
    23  H   -0.319860   0.484379
    24  H   -0.093766   0.249513
    25  H   -0.183343   0.328885
    26  H   -0.059668   0.210844
    27  H   -0.154027   0.302497
    28  H   -0.341159   0.511801
    29  H    0.106020   0.140937
 Sum of Mulliken charges =  -1.00000   1.00000

 Dipole moment (field-independent basis, Debye):
    X=              1.2983    Y=             -3.6866    Z=              1.1457  Tot=              4.0730
 Quadrupole moment (field-independent basis, Debye-Ang):
   XX=           -170.5392   YY=           -130.8894   ZZ=           -118.1090
   XY=             -2.9365   XZ=              2.2989   YZ=              0.1754

 Summary of Natural Population Analysis:

                                       Natural Population
                Natural  -----------------------------------------------
    Atom  No    Charge         Core      Valence    Rydberg      Total
 -----------------------------------------------------------------------
      C    1   -0.28650      0.99965     2.28035    0.00651     3.28650
      C    2   -0.12102      0.99960     2.11015    0.01127     3.12102
      C    3   -0.28456      0.99965     2.27802    0.00689     3.28456
      C    4    0.04781      0.99945     1.93727    0.01546     2.95219
      C    5   -0.10618      0.99949     2.09292    0.01377     3.10618
      C    6   -0.12045      0.99941     2.10939    0.01165     3.12045
      C    7   -0.04465      0.99940     2.03245    0.01280     3.04465
      C    8   -0.09781      0.99934     2.08650    0.01198     3.09781
      S    9    0.21616      4.99936     2.76514    0.01934     7.78384
      C   10   -0.19750      0.99958     2.18980    0.00811     3.19750
      C   11   -0.17816      0.99965     2.17138    0.00713     3.17816
      C   12   -0.19082      0.99960     2.18276    0.00846     3.19082
      O   13   -0.37008      0.99990     3.36386    0.00631     4.37008
      H   14    0.09399      0.00000     0.40505    0.00096     0.40601
      H   15    0.10713      0.00000     0.39169    0.00118     0.39287
      H   16    0.10100      0.00000     0.39801    0.00099     0.39900
      H   17    0.09550      0.00000     0.40166    0.00284     0.40450
      H   18    0.09325      0.00000     0.40592    0.00083     0.40675
      H   19    0.10727      0.00000     0.39167    0.00106     0.39273
      H   20    0.09942      0.00000     0.39963    0.00095     0.40058
      H   21    0.08897      0.00000     0.40925    0.00178     0.41103
      H   22    0.11216      0.00000     0.38594    0.00190     0.38784
      H   23    0.10418      0.00000     0.39372    0.00209     0.39582
      H   24    0.10047      0.00000     0.39774    0.00180     0.39953
      H   25    0.09835      0.00000     0.39992    0.00173     0.40165
      H   26    0.09682      0.00000     0.40133    0.00186     0.40318
      H   27    0.10087      0.00000     0.39745    0.00168     0.39913
      H   28    0.10524      0.00000     0.39285    0.00191     0.39476
      H   29    0.22913      0.00000     0.26789    0.00298     0.27087
 =======================================================================
   * Total *    0.00000     16.99407    35.83971    0.16622    53.00000

 Normal termination of Gaussian 16 at Mon Dec 14 13:43:45 2020.
