 Gaussian 16, Revision A.03,

 -----------------------------------------------------------
 # opt freq B3LYP/6-31G(d) empiricaldispersion=gd3bj scf=xqc
 -----------------------------------------------------------

 ------------------------------
 CID_15438263_JID_1858_neutraal
 ------------------------------
 Symbolic Z-matrix:
 Charge =  0 Multiplicity = 1

 SCF Done:  E(RB3LYP) =  -503.054143014     A.U. after   13 cycles
 SCF Done:  E(RB3LYP) =  -503.058518107     A.U. after   12 cycles
 SCF Done:  E(RB3LYP) =  -503.058244309     A.U. after   12 cycles
 SCF Done:  E(RB3LYP) =  -503.058985021     A.U. after   12 cycles
 SCF Done:  E(RB3LYP) =  -503.059218479     A.U. after   11 cycles
 SCF Done:  E(RB3LYP) =  -503.059545472     A.U. after   12 cycles
 SCF Done:  E(RB3LYP) =  -503.059878205     A.U. after   12 cycles
 SCF Done:  E(RB3LYP) =  -503.059855450     A.U. after   12 cycles
 SCF Done:  E(RB3LYP) =  -503.060236846     A.U. after   12 cycles
 SCF Done:  E(RB3LYP) =  -503.060926281     A.U. after   13 cycles
 SCF Done:  E(RB3LYP) =  -503.061243407     A.U. after   13 cycles
 SCF Done:  E(RB3LYP) =  -503.061241289     A.U. after   11 cycles
 SCF Done:  E(RB3LYP) =  -503.061246015     A.U. after   10 cycles
 SCF Done:  E(RB3LYP) =  -503.061246135     A.U. after    7 cycles
 SCF Done:  E(RB3LYP) =  -503.061246254     A.U. after    7 cycles
 SCF Done:  E(RB3LYP) =  -503.061246349     A.U. after    7 cycles
 Optimization completed.
    -- Stationary point found.

 1\1\GINC-NODE201\FOpt\RB3LYP\6-31G(d)\C9H16O2\VSC10255\08-Dec-2020\0\\
 # opt freq B3LYP/6-31G(d) empiricaldispersion=gd3bj scf=xqc\\CID_15438
 263_JID_1858_neutraal\\0,1\C,0.9051024851,-0.175981954,-0.2590004462\O
 ,0.6620440123,0.4019805228,-1.5247491658\C,1.3866159741,1.6018288034,-
 1.753400272\C,2.8796562931,1.3457204138,-2.0201249898\C,3.6468979422,2
 .5155304218,-2.6569659254\C,3.6131996996,3.8569716472,-1.891468719\C,2
 .5766695544,4.8983198703,-2.3581355027\C,1.1012840197,4.6605884244,-1.
 9919306553\C,0.3107166467,3.700609548,-2.8980231765\C,0.7694148857,2.2

 Normal termination of Gaussian 16 at Tue Dec  8 21:37:06 2020.

 --------------------------------------------------------------------
 #N Geom=AllCheck Guess=TCheck SCRF=Check GenChk RB3LYP/6-31G(d) Freq
 --------------------------------------------------------------------

 Structure from the checkpoint file:  "JID_1858.chk"
 ------------------------------
 CID_15438263_JID_1858_neutraal
 ------------------------------
 Charge =  0 Multiplicity = 1

 SCF Done:  E(RB3LYP) =  -503.061246349     A.U. after    1 cycles

  Exact polarizability: 106.118   2.281  93.365   1.212   0.413  88.942
 Approx polarizability: 132.827   1.106 127.635   4.025  -6.287 140.939

                      1                      2                      3
                      A                      A                      A
 Frequencies --     51.8519                65.9808                93.1341
 Red. masses --      3.1818                 2.6389                 2.6546
 Frc consts  --      0.0050                 0.0068                 0.0136
 IR Inten    --      2.2187                 2.2419                 0.5057

                      4                      5                      6
                      A                      A                      A
 Frequencies --    154.0420               183.2149               197.3359
 Red. masses --      2.7479                 1.9161                 2.2392
 Frc consts  --      0.0384                 0.0379                 0.0514
 IR Inten    --      0.5483                 0.8253                 0.2562

                      7                      8                      9
                      A                      A                      A
 Frequencies --    229.7379               276.4988               302.6288
 Red. masses --      2.3767                 2.2989                 2.5465
 Frc consts  --      0.0739                 0.1036                 0.1374
 IR Inten    --      2.0631                 0.1327                 0.7252

                     10                     11                     12
                      A                      A                      A
 Frequencies --    323.1765               341.3712               375.6928
 Red. masses --      2.2563                 3.0714                 3.4555
 Frc consts  --      0.1388                 0.2109                 0.2874
 IR Inten    --      3.5957                 6.9021                 3.0092

                     13                     14                     15
                      A                      A                      A
 Frequencies --    448.9695               489.8661               495.3410
 Red. masses --      1.6802                 2.3576                 3.0373
 Frc consts  --      0.1995                 0.3333                 0.4391
 IR Inten    --      0.9170                 2.0759                 2.9654

                     16                     17                     18
                      A                      A                      A
 Frequencies --    565.0376               637.8371               733.2784
 Red. masses --      4.0281                 2.6592                 2.0373
 Frc consts  --      0.7577                 0.6374                 0.6454
 IR Inten    --      6.9747                 3.5314                 1.1338

                     19                     20                     21
                      A                      A                      A
 Frequencies --    778.1726               825.4022               844.9618
 Red. masses --      1.9789                 1.9243                 2.3929
 Frc consts  --      0.7060                 0.7724                 1.0066
 IR Inten    --      2.4163                 7.1443                 9.1384

                     22                     23                     24
                      A                      A                      A
 Frequencies --    877.6825               931.6957               945.5226
 Red. masses --      1.7652                 1.8334                 2.6237
 Frc consts  --      0.8011                 0.9377                 1.3820
 IR Inten    --      2.7923                 0.9818                11.5622

                     25                     26                     27
                      A                      A                      A
 Frequencies --    989.4241               999.3144              1029.7161
 Red. masses --      2.4055                 2.0491                 2.6540
 Frc consts  --      1.3874                 1.2056                 1.6580
 IR Inten    --      6.0143                 6.0126                20.0775

                     28                     29                     30
                      A                      A                      A
 Frequencies --   1059.0207              1103.4072              1116.7665
 Red. masses --      2.7861                 2.1273                 1.8643
 Frc consts  --      1.8410                 1.5260                 1.3699
 IR Inten    --      6.2662                 3.0227                19.6599

                     31                     32                     33
                      A                      A                      A
 Frequencies --   1125.9153              1143.1812              1159.8809
 Red. masses --      2.0499                 1.9958                 4.9637
 Frc consts  --      1.5310                 1.5367                 3.9344
 IR Inten    --     12.2913                 2.2740               147.0560

                     34                     35                     36
                      A                      A                      A
 Frequencies --   1190.6384              1201.0504              1232.5758
 Red. masses --      1.2978                 1.7203                 1.5234
 Frc consts  --      1.0839                 1.4621                 1.3636
 IR Inten    --      4.1817                34.0128                17.2347

                     37                     38                     39
                      A                      A                      A
 Frequencies --   1242.5030              1251.8564              1282.1851
 Red. masses --      1.2418                 1.3248                 1.2840
 Frc consts  --      1.1296                 1.2232                 1.2437
 IR Inten    --      0.8763                 1.5833                 2.5316

                     40                     41                     42
                      A                      A                      A
 Frequencies --   1297.0253              1324.2426              1371.1583
 Red. masses --      1.2244                 1.1282                 1.1666
 Frc consts  --      1.2136                 1.1656                 1.2923
 IR Inten    --      8.4605                 0.4670                 5.4766

                     43                     44                     45
                      A                      A                      A
 Frequencies --   1375.9686              1380.3751              1397.9714
 Red. masses --      1.4477                 1.4112                 1.2822
 Frc consts  --      1.6149                 1.5843                 1.4764
 IR Inten    --     14.2279                 1.9714                 3.9650

                     46                     47                     48
                      A                      A                      A
 Frequencies --   1407.2544              1410.5445              1419.2428
 Red. masses --      1.4435                 1.3765                 1.4217
 Frc consts  --      1.6842                 1.6136                 1.6872
 IR Inten    --      1.4225                 4.2851                 0.7366

                     49                     50                     51
                      A                      A                      A
 Frequencies --   1442.4063              1479.2457              1501.7109
 Red. masses --      1.4795                 1.0833                 1.1342
 Frc consts  --      1.8136                 1.3967                 1.5070
 IR Inten    --      7.5706                 7.4558                 3.2009

                     52                     53                     54
                      A                      A                      A
 Frequencies --   1511.8022              1514.9680              1518.2728
 Red. masses --      1.0891                 1.0873                 1.0875
 Frc consts  --      1.4666                 1.4704                 1.4771
 IR Inten    --      1.7574                 4.2520                 3.9461

                     55                     56                     57
                      A                      A                      A
 Frequencies --   1520.4317              1528.3814              1532.8010
 Red. masses --      1.0752                 1.0823                 1.0850
 Frc consts  --      1.4645                 1.4895                 1.5020
 IR Inten    --      3.9615                 6.4071                 8.9601

                     58                     59                     60
                      A                      A                      A
 Frequencies --   1540.9524              1819.9547              2991.6356
 Red. masses --      1.0584                11.1234                 1.0433
 Frc consts  --      1.4808                21.7075                 5.5016
 IR Inten    --     11.5452               119.0893                53.5041

                     61                     62                     63
                      A                      A                      A
 Frequencies --   3014.6806              3016.6289              3024.2743
 Red. masses --      1.0797                 1.0692                 1.0678
 Frc consts  --      5.7816                 5.7327                 5.7539
 IR Inten    --     28.1318                16.0746                20.5824

                     64                     65                     66
                      A                      A                      A
 Frequencies --   3025.9604              3042.1171              3043.0993
 Red. masses --      1.0623                 1.0668                 1.0753
 Frc consts  --      5.7308                 5.8167                 5.8667
 IR Inten    --     19.8656                29.5649                18.0287

                     67                     68                     69
                      A                      A                      A
 Frequencies --   3045.2314              3054.5813              3067.6470
 Red. masses --      1.0700                 1.0798                 1.0957
 Frc consts  --      5.8460                 5.9363                 6.0749
 IR Inten    --      3.6940                52.0925                43.9748

                     70                     71                     72
                      A                      A                      A
 Frequencies --   3069.1314              3073.8616              3083.2326
 Red. masses --      1.0981                 1.0999                 1.0977
 Frc consts  --      6.0945                 6.1228                 6.1482
 IR Inten    --     51.8399                53.3351                49.5436

                     73                     74                     75
                      A                      A                      A
 Frequencies --   3100.7718              3104.8215              3137.8286
 Red. masses --      1.0939                 1.1029                 1.0973
 Frc consts  --      6.1966                 6.2640                 6.3652
 IR Inten    --     24.4449                37.1216                33.3514

 - Thermochemistry -
 -------------------
 Temperature   298.150 Kelvin.  Pressure   1.00000 Atm.
 Atom     1 has atomic number  6 and mass  12.00000

 Molecular mass:   156.11503 amu.
 Principal axes and moments of inertia in atomic units:
                           1         2         3
     Eigenvalues --  1217.167692149.194602530.59476
           X            0.99956   0.02746  -0.01084
           Y           -0.02680   0.99804   0.05660
           Z            0.01237  -0.05628   0.99834
 This molecule is an asymmetric top.
 Rotational symmetry number  1.
 Warning -- assumption of classical behavior for rotation
           may cause significant error
 Rotational temperatures (Kelvin)      0.07116     0.04030     0.03423
 Rotational constants (GHZ):           1.48274     0.83973     0.71317
 Zero-point vibrational energy     636928.2 (Joules/Mol)
                                  152.22950 (Kcal/Mol)
 Warning -- explicit consideration of  16 degrees of freedom as
           vibrations may cause significant error
 Vibrational temperatures:     74.60    94.93   134.00   221.63   263.61
          (Kelvin)            283.92   330.54   397.82   435.42   464.98
                              491.16   540.54   645.97   704.81   712.69
                              812.96   917.71  1055.02  1119.62  1187.57
                             1215.71  1262.79  1340.50  1360.40  1423.56
                             1437.79  1481.53  1523.69  1587.56  1606.78
                             1619.94  1644.78  1668.81  1713.06  1728.04
                             1773.40  1787.68  1801.14  1844.78  1866.13
                             1905.29  1972.79  1979.71  1986.05  2011.37
                             2024.73  2029.46  2041.97  2075.30  2128.30
                             2160.63  2175.15  2179.70  2184.46  2187.56
                             2199.00  2205.36  2217.09  2618.51  4304.30
                             4337.45  4340.26  4351.26  4353.68  4376.93
                             4378.34  4381.41  4394.86  4413.66  4415.80
                             4422.60  4436.08  4461.32  4467.15  4514.64

 Zero-point correction=                           0.242593 (Hartree/Particle)
 Thermal correction to Energy=                    0.254055
 Thermal correction to Enthalpy=                  0.254999
 Thermal correction to Gibbs Free Energy=         0.205186
 Sum of electronic and zero-point Energies=           -502.818653
 Sum of electronic and thermal Energies=              -502.807192
 Sum of electronic and thermal Enthalpies=            -502.806247
 Sum of electronic and thermal Free Energies=         -502.856060

                     E (Thermal)             CV                S
                      KCal/Mol        Cal/Mol-Kelvin    Cal/Mol-Kelvin
 Total                  159.422             43.036            104.840
 Electronic               0.000              0.000              0.000
 Translational            0.889              2.981             41.046
 Rotational               0.889              2.981             30.272
 Vibrational            157.644             37.075             33.523
 Vibration     1          0.596              1.977              4.745
 Vibration     2          0.597              1.971              4.270
 Vibration     3          0.602              1.954              3.593
 Vibration     4          0.620              1.898              2.622
 Vibration     5          0.631              1.863              2.295
 Vibration     6          0.637              1.844              2.158
 Vibration     7          0.652              1.796              1.881
 Vibration     8          0.678              1.717              1.555
 Vibration     9          0.694              1.669              1.402
 Vibration    10          0.708              1.629              1.294
 Vibration    11          0.721              1.593              1.206
 Vibration    12          0.747              1.522              1.056
 Vibration    13          0.808              1.363              0.799
 Vibration    14          0.846              1.273              0.684
 Vibration    15          0.851              1.260              0.670
 Vibration    16          0.921              1.107              0.514

 Optimization completed.
    -- Stationary point found.

 1\1\GINC-NODE201\Freq\RB3LYP\6-31G(d)\C9H16O2\VSC10255\08-Dec-2020\0\\
 #N Geom=AllCheck Guess=TCheck SCRF=Check GenChk RB3LYP/6-31G(d) Freq\\
 CID_15438263_JID_1858_neutraal\\0,1\C,0.9051024851,-0.175981954,-0.259
 0004462\O,0.6620440123,0.4019805228,-1.5247491658\C,1.3866159741,1.601
 8288034,-1.753400272\C,2.8796562931,1.3457204138,-2.0201249898\C,3.646
 8979422,2.5155304218,-2.6569659254\C,3.6131996996,3.8569716472,-1.8914
 68719\C,2.5766695544,4.8983198703,-2.3581355027\C,1.1012840197,4.66058
 84244,-1.9919306553\C,0.3107166467,3.700609548,-2.8980231765\C,0.76941

 Normal termination of Gaussian 16 at Tue Dec  8 21:44:45 2020.

 ----------------------------------------------------------------------
 # B3LYP/6-311++G(d,p) empiricaldispersion=gd3bj scf=xqc pop=npa geom=c
 heck
 ----------------------------------------------------------------------

 --------------------------------------
 CID_15438263_JID_1858_Energie_neutraal
 --------------------------------------
 Structure from the checkpoint file:  "JID_1858.chk"
 Charge =  0 Multiplicity = 1

 SCF Done:  E(RB3LYP) =  -503.206958220     A.U. after   13 cycles
 Normal termination of Gaussian 16 at Tue Dec  8 21:48:14 2020.

 ----------------------------------------------------------------------
 # B3LYP/6-311++G(d,p) empiricaldispersion=gd3bj scf=xqc pop=npa geom=c
 heck
 ----------------------------------------------------------------------

 ------------------------------------
 CID_15438263_JID_1858_Energie_kation
 ------------------------------------
 Structure from the checkpoint file:  "JID_1858.chk"
 Charge =  1 Multiplicity = 2

 SCF Done:  E(UB3LYP) =  -502.887853607     A.U. after   19 cycles
 Normal termination of Gaussian 16 at Tue Dec  8 21:53:32 2020.
 Gaussian 16:  ES64L-G16RevA.03 25-Dec-2016

 -----------------------------------
 CID_15438263_JID_1858_Energie_anion
 -----------------------------------
 Structure from the checkpoint file:  "JID_1858.chk"
 Charge = -1 Multiplicity = 2

                         Standard orientation:
 ---------------------------------------------------------------------
 Center     Atomic      Atomic             Coordinates (Angstroms)
 Number     Number       Type             X           Y           Z
 ---------------------------------------------------------------------
      1          6           0       -3.117496   -0.487455    1.028221
      2          8           0       -2.335908    0.311752    0.164723
      3          6           0       -0.955573   -0.022257    0.170678
      4          6           0       -0.664350   -1.333567   -0.578693
      5          6           0        0.806774   -1.563381   -0.960350
      6          6           0        1.828355   -1.542581    0.198324
      7          6           0        2.585595   -0.220674    0.434393
      8          6           0        1.821578    0.939008    1.096813
      9          6           0        0.933440    1.795485    0.177455
     10          6           0       -0.225487    1.123803   -0.540456
     11          8           0       -0.577467    1.476861   -1.647952
     12          1           0       -4.124390   -0.062527    1.022232
     13          1           0       -2.728758   -0.470250    2.059797
     14          1           0       -3.175538   -1.534155    0.697095
     15          1           0       -0.610600   -0.099170    1.212061
     16          1           0       -1.018041   -2.179023    0.024165
     17          1           0       -1.268724   -1.300476   -1.492122
     18          1           0        1.104317   -0.829827   -1.720519
     19          1           0        0.856266   -2.539212   -1.457606
     20          1           0        2.589577   -2.304723   -0.008156
     21          1           0        1.342825   -1.857528    1.133673
     22          1           0        3.010133    0.122799   -0.519950
     23          1           0        3.443965   -0.452041    1.078100
     24          1           0        2.557858    1.622608    1.537270
     25          1           0        1.238721    0.554449    1.943850
     26          1           0        1.534791    2.297262   -0.588407
     27          1           0        0.477602    2.592629    0.786034
 ---------------------------------------------------------------------

 SCF Done:  E(UB3LYP) =  -503.197422007     A.U. after   30 cycles

 The electronic state is 2-A.
 Alpha  occ. eigenvalues --  -19.01680 -18.98466 -10.12677 -10.11050 -10.10645
 Alpha  occ. eigenvalues --  -10.06306 -10.06270 -10.06055 -10.05980 -10.05860
 Alpha  occ. eigenvalues --  -10.05839  -0.93722  -0.91374  -0.71172  -0.67261
 Alpha  occ. eigenvalues --   -0.65169  -0.59831  -0.56210  -0.53845  -0.48200
 Alpha  occ. eigenvalues --   -0.46663  -0.41616  -0.39640  -0.37465  -0.35532
 Alpha  occ. eigenvalues --   -0.34362  -0.34165  -0.33096  -0.32613  -0.31383
 Alpha  occ. eigenvalues --   -0.30192  -0.28118  -0.26666  -0.26530  -0.25307
 Alpha  occ. eigenvalues --   -0.23940  -0.23333  -0.22244  -0.21304  -0.20992
 Alpha  occ. eigenvalues --   -0.20533  -0.15531  -0.12408   0.04446
 Alpha virt. eigenvalues --    0.07047   0.07519   0.07896   0.08914   0.09539
 Alpha virt. eigenvalues --    0.09949   0.10979   0.11240   0.11714   0.12305
 Alpha virt. eigenvalues --    0.13064   0.13362   0.14081   0.14360   0.15173

  Beta  occ. eigenvalues --  -19.01646 -18.98305 -10.12521 -10.11055 -10.10613
  Beta  occ. eigenvalues --  -10.06316 -10.06238 -10.06041 -10.05968 -10.05838
  Beta  occ. eigenvalues --  -10.05819  -0.93582  -0.91125  -0.71099  -0.67217
  Beta  occ. eigenvalues --   -0.65053  -0.59777  -0.56122  -0.53716  -0.48130
  Beta  occ. eigenvalues --   -0.46536  -0.41465  -0.39590  -0.37307  -0.35413
  Beta  occ. eigenvalues --   -0.34308  -0.34087  -0.33002  -0.32572  -0.31223
  Beta  occ. eigenvalues --   -0.30118  -0.28014  -0.26537  -0.26351  -0.25232
  Beta  occ. eigenvalues --   -0.23887  -0.22892  -0.22182  -0.21220  -0.20821
  Beta  occ. eigenvalues --   -0.20470  -0.15477  -0.12288
  Beta virt. eigenvalues --    0.07033   0.07859   0.08333   0.09169   0.09338
  Beta virt. eigenvalues --    0.10118   0.10560   0.11244   0.11601   0.12181
  Beta virt. eigenvalues --    0.12689   0.13446   0.13605   0.14196   0.14690

 Mulliken charges and spin densities:
               1          2
     1  C    0.751395  -0.972720
     2  O   -0.109580   0.017047
     3  C   -0.377300   0.551001
     4  C    0.063021  -0.439828
     5  C   -0.178439  -0.055696
     6  C    0.419249  -0.732670
     7  C    0.278941  -0.612437
     8  C   -0.035212  -0.055449
     9  C    0.116201  -0.536666
    10  C   -0.218208  -0.066765
    11  O   -0.285177   0.064423
    12  H   -0.038940   0.177236
    13  H   -0.551272   0.673635
    14  H   -0.189509   0.324308
    15  H    1.159588  -1.059914
    16  H   -0.239533   0.380754
    17  H    0.197914  -0.004431
    18  H    0.188672  -0.049229
    19  H   -0.262570   0.446681
    20  H   -0.249516   0.404537
    21  H   -0.318467   0.470120
    22  H    0.074949   0.048227
    23  H   -0.187140   0.346499
    24  H   -0.565958   0.747218
    25  H   -0.523043   0.662648
    26  H    0.118048   0.047099
    27  H   -0.038113   0.224371
 Sum of Mulliken charges =  -1.00000   1.00000

 Dipole moment (field-independent basis, Debye):
    X=             -0.1622    Y=              0.9805    Z=             -2.4081  Tot=              2.6051
 Quadrupole moment (field-independent basis, Debye-Ang):
   XX=           -117.5259   YY=           -111.8509   ZZ=           -105.6778
   XY=              0.0382   XZ=             -6.6574   YZ=              3.4369

 Summary of Natural Population Analysis:

                                       Natural Population
                Natural  -----------------------------------------------
    Atom  No    Charge         Core      Valence    Rydberg      Total
 -----------------------------------------------------------------------
      C    1   -0.09802      0.99961     2.08926    0.00915     3.09802
      O    2   -0.29089      0.99988     3.28136    0.00965     4.29089
      C    3    0.02428      0.99949     1.96166    0.01457     2.97572
      C    4   -0.19860      0.99960     2.18964    0.00936     3.19860
      C    5   -0.19404      0.99962     2.18566    0.00876     3.19404
      C    6   -0.19268      0.99962     2.18409    0.00897     3.19268
      C    7   -0.18803      0.99962     2.17952    0.00889     3.18803
      C    8   -0.19177      0.99962     2.18317    0.00898     3.19177
      C    9   -0.23760      0.99958     2.22811    0.00992     3.23760
      C   10    0.31016      0.99964     1.66746    0.02274     2.68984
      O   11   -0.27450      0.99987     3.26807    0.00656     4.27450
      H   12    0.08807      0.00000     0.41100    0.00093     0.41193
      H   13    0.07817      0.00000     0.42042    0.00141     0.42183
      H   14    0.07991      0.00000     0.41867    0.00142     0.42009
      H   15    0.08324      0.00000     0.41437    0.00239     0.41676
      H   16    0.09804      0.00000     0.40029    0.00167     0.40196
      H   17    0.10626      0.00000     0.39256    0.00118     0.39374
      H   18    0.09749      0.00000     0.40128    0.00123     0.40251
      H   19    0.09989      0.00000     0.39909    0.00102     0.40011
      H   20    0.09888      0.00000     0.39976    0.00136     0.40112
      H   21    0.09525      0.00000     0.40300    0.00175     0.40475
      H   22    0.09036      0.00000     0.40842    0.00122     0.40964
      H   23    0.09954      0.00000     0.39909    0.00137     0.40046
      H   24    0.10210      0.00000     0.39601    0.00189     0.39790
      H   25    0.09588      0.00000     0.40253    0.00159     0.40412
      H   26    0.10433      0.00000     0.39448    0.00119     0.39567
      H   27    0.11429      0.00000     0.38431    0.00140     0.38571
 =======================================================================
   * Total *    0.00000     10.99615    31.86328    0.14057    43.00000

 Normal termination of Gaussian 16 at Tue Dec  8 22:00:43 2020.
