 Gaussian 16, Revision A.03,

 -----------------------------------------------------------
 # opt freq B3LYP/6-31G(d) empiricaldispersion=gd3bj scf=xqc
 -----------------------------------------------------------

 -------------------------------
 CID_147588119_JID_4519_neutraal
 -------------------------------
 Symbolic Z-matrix:
 Charge =  0 Multiplicity = 1

 SCF Done:  E(RB3LYP) =  -542.571945677     A.U. after   19 cycles
 SCF Done:  E(RB3LYP) =  -542.617912667     A.U. after   18 cycles
 SCF Done:  E(RB3LYP) =  -542.652634455     A.U. after   15 cycles
 SCF Done:  E(RB3LYP) =  -542.675919360     A.U. after   15 cycles
 SCF Done:  E(RB3LYP) =  -542.692192149     A.U. after   15 cycles
 SCF Done:  E(RB3LYP) =  -542.709740297     A.U. after   15 cycles
 SCF Done:  E(RB3LYP) =  -542.724293144     A.U. after   14 cycles
 SCF Done:  E(RB3LYP) =  -542.740347086     A.U. after   13 cycles
 SCF Done:  E(RB3LYP) =  -542.763925083     A.U. after   15 cycles
 SCF Done:  E(RB3LYP) =  -542.771494732     A.U. after   17 cycles
 SCF Done:  E(RB3LYP) =  -542.897450289     A.U. after    9 cycles
 SCF Done:  E(RB3LYP) =  -542.897467933     A.U. after    9 cycles
 SCF Done:  E(RB3LYP) =  -542.897476615     A.U. after    9 cycles
 SCF Done:  E(RB3LYP) =  -542.897479014     A.U. after    8 cycles
 SCF Done:  E(RB3LYP) =  -542.897479615     A.U. after    8 cycles
 Optimization completed.
    -- Stationary point found.
 Normal termination of Gaussian 16 at Thu Dec 10 10:28:57 2020.

 --------------------------------------------------------------------
 #N Geom=AllCheck Guess=TCheck SCRF=Check GenChk RB3LYP/6-31G(d) Freq
 --------------------------------------------------------------------

 Structure from the checkpoint file:  "JID_4519.chk"
 -------------------------------
 CID_147588119_JID_4519_neutraal
 -------------------------------
 Charge =  0 Multiplicity = 1

 SCF Done:  E(RB3LYP) =  -542.897479615     A.U. after    1 cycles

  Exact polarizability: 158.299  11.397 127.086  -1.923  -4.638 110.573
 Approx polarizability: 233.547  27.298 198.217  -9.200 -13.671 189.977

                      1                      2                      3
                      A                      A                      A
 Frequencies --    126.3042               146.8317               231.4803
 Red. masses --      2.7877                 3.0367                 3.1470
 Frc consts  --      0.0262                 0.0386                 0.0994
 IR Inten    --      0.2602                 0.2702                 0.9179

                      4                      5                      6
                      A                      A                      A
 Frequencies --    244.3481               297.1034               317.4798
 Red. masses --      2.8255                 3.1992                 3.7320
 Frc consts  --      0.0994                 0.1664                 0.2216
 IR Inten    --      1.2018                 0.5828                 1.7543

                      7                      8                      9
                      A                      A                      A
 Frequencies --    332.9793               380.2248               398.7720
 Red. masses --      3.1396                 2.1390                 3.4127
 Frc consts  --      0.2051                 0.1822                 0.3197
 IR Inten    --      0.3727                 0.7083                 1.2039

                     10                     11                     12
                      A                      A                      A
 Frequencies --    414.7968               449.4873               519.8280
 Red. masses --      2.4162                 3.4131                 3.3049
 Frc consts  --      0.2449                 0.4063                 0.5262
 IR Inten    --      0.3221                10.2070                 1.6137

                     13                     14                     15
                      A                      A                      A
 Frequencies --    548.4748               572.9945               585.2443
 Red. masses --      2.6872                 3.1941                 4.1304
 Frc consts  --      0.4763                 0.6179                 0.8335
 IR Inten    --      2.5143                10.4423                12.8491

                     16                     17                     18
                      A                      A                      A
 Frequencies --    641.5061               676.4174               687.9492
 Red. masses --      2.7978                 4.2242                 3.1575
 Frc consts  --      0.6784                 1.1387                 0.8805
 IR Inten    --      0.3609                 0.5019                 6.2930

                     19                     20                     21
                      A                      A                      A
 Frequencies --    733.4081               767.5367               781.5000
 Red. masses --      2.4144                 3.7208                 2.8164
 Frc consts  --      0.7651                 1.2915                 1.0135
 IR Inten    --      1.9527                 4.3443                 1.8457

                     22                     23                     24
                      A                      A                      A
 Frequencies --    799.0242               812.7621               828.9189
 Red. masses --      2.5167                 3.0470                 2.1651
 Frc consts  --      0.9467                 1.1859                 0.8765
 IR Inten    --      8.2855                 3.6338                22.2061

                     25                     26                     27
                      A                      A                      A
 Frequencies --    858.3558               870.0953               881.3624
 Red. masses --      3.2593                 1.8969                 1.8567
 Frc consts  --      1.4148                 0.8461                 0.8497
 IR Inten    --      0.1436                 6.2587                 0.7867

                     28                     29                     30
                      A                      A                      A
 Frequencies --    886.1845               910.7051               929.1726
 Red. masses --      2.2253                 2.6153                 1.6457
 Frc consts  --      1.0296                 1.2780                 0.8372
 IR Inten    --     17.1997                 2.1004                 1.4785

                     31                     32                     33
                      A                      A                      A
 Frequencies --    947.3874               968.0559               995.8827
 Red. masses --      3.2145                 1.7611                 1.5595
 Frc consts  --      1.6999                 0.9724                 0.9113
 IR Inten    --      6.7863                 8.0064                20.3381

                     34                     35                     36
                      A                      A                      A
 Frequencies --   1013.4847              1043.7920              1048.8784
 Red. masses --      2.0929                 1.7833                 1.8632
 Frc consts  --      1.2666                 1.1448                 1.2077
 IR Inten    --     20.4691                25.1940                 1.8839

                     37                     38                     39
                      A                      A                      A
 Frequencies --   1081.5140              1088.8322              1101.9610
 Red. masses --      1.3538                 2.9686                 1.3970
 Frc consts  --      0.9329                 2.0736                 0.9995
 IR Inten    --      2.1790                 1.8088                 3.1061

                     40                     41                     42
                      A                      A                      A
 Frequencies --   1108.8461              1139.4279              1159.6897
 Red. masses --      1.7862                 1.5912                 1.4781
 Frc consts  --      1.2939                 1.2172                 1.1713
 IR Inten    --      1.9617                 5.2832                 2.0189

                     43                     44                     45
                      A                      A                      A
 Frequencies --   1170.0574              1181.3876              1193.3740
 Red. masses --      1.8106                 1.5853                 1.7834
 Frc consts  --      1.4604                 1.3036                 1.4964
 IR Inten    --      2.4708                 0.1593                 2.0907

                     46                     47                     48
                      A                      A                      A
 Frequencies --   1197.9502              1206.2970              1216.0064
 Red. masses --      1.2876                 1.5642                 1.5377
 Frc consts  --      1.0887                 1.3411                 1.3396
 IR Inten    --      5.6688                 0.7450                 5.0622

                     49                     50                     51
                      A                      A                      A
 Frequencies --   1254.8371              1258.2713              1269.9083
 Red. masses --      1.4995                 1.3664                 1.4583
 Frc consts  --      1.3911                 1.2746                 1.3856
 IR Inten    --      1.0965                 3.0834                 1.3353

                     52                     53                     54
                      A                      A                      A
 Frequencies --   1275.5595              1287.2373              1298.0141
 Red. masses --      1.6736                 1.3957                 1.6489
 Frc consts  --      1.6044                 1.3626                 1.6368
 IR Inten    --      2.7839                 2.6750                 2.3014

                     55                     56                     57
                      A                      A                      A
 Frequencies --   1313.7903              1331.0666              1346.3682
 Red. masses --      1.4038                 1.5516                 1.4309
 Frc consts  --      1.4276                 1.6197                 1.5282
 IR Inten    --      0.1412                 0.5018                 1.6766

                     58                     59                     60
                      A                      A                      A
 Frequencies --   1378.9755              1383.2357              1402.0718
 Red. masses --      1.4376                 2.4479                 1.8078
 Frc consts  --      1.6107                 2.7595                 2.0938
 IR Inten    --     10.3340                 1.3670                 1.2240

                     61                     62                     63
                      A                      A                      A
 Frequencies --   1456.2032              1458.5014              1498.0824
 Red. masses --      1.1458                 1.6218                 1.1319
 Frc consts  --      1.4315                 2.0326                 1.4967
 IR Inten    --     18.1734                 4.4197                 0.5085

                     64                     65                     66
                      A                      A                      A
 Frequencies --   1511.0102              1512.1255              1515.6465
 Red. masses --      1.1018                 1.1110                 1.2734
 Frc consts  --      1.4822                 1.4967                 1.7235
 IR Inten    --      2.5300                 8.1671                 1.7682

                     67                     68                     69
                      A                      A                      A
 Frequencies --   1530.6465              1752.7179              3036.0858
 Red. masses --      1.0976                 9.1017                 1.0776
 Frc consts  --      1.5151                16.4739                 5.8524
 IR Inten    --      1.5489                34.0123                74.0979

                     70                     71                     72
                      A                      A                      A
 Frequencies --   3036.4672              3048.0257              3057.7930
 Red. masses --      1.0675                 1.0832                 1.0613
 Frc consts  --      5.7991                 5.9291                 5.8466
 IR Inten    --     20.9526                20.7244                36.4803

                     73                     74                     75
                      A                      A                      A
 Frequencies --   3066.0271              3067.0787              3067.8590
 Red. masses --      1.0645                 1.0817                 1.0820
 Frc consts  --      5.8959                 5.9955                 6.0002
 IR Inten    --     93.7647                32.1208                43.5185

                     76                     77                     78
                      A                      A                      A
 Frequencies --   3082.1278              3086.1870              3089.0365
 Red. masses --      1.0586                 1.0856                 1.0628
 Frc consts  --      5.9252                 6.0919                 5.9750
 IR Inten    --     46.0995                29.5256                33.0950

                     79                     80                     81
                      A                      A                      A
 Frequencies --   3093.4611              3104.0972              3126.5913
 Red. masses --      1.1042                 1.1061                 1.1046
 Frc consts  --      6.2260                 6.2796                 6.3620
 IR Inten    --     37.3898                14.1956                58.9408

                     82                     83                     84
                      A                      A                      A
 Frequencies --   3139.3350              3171.6690              3188.2462
 Red. masses --      1.1096                 1.0893                 1.1064
 Frc consts  --      6.4429                 6.4562                 6.6262
 IR Inten    --     43.3625                23.0715                14.9634

 - Thermochemistry -
 -------------------
 Temperature   298.150 Kelvin.  Pressure   1.00000 Atm.
 Atom     1 has atomic number  6 and mass  12.00000

 Molecular mass:   184.12520 amu.
 Principal axes and moments of inertia in atomic units:
                           1         2         3
     Eigenvalues --  1383.220782453.783213094.62008
           X            0.99980   0.01942   0.00564
           Y           -0.01936   0.99976  -0.00991
           Z           -0.00583   0.00980   0.99993
 This molecule is an asymmetric top.
 Rotational symmetry number  1.
 Warning -- assumption of classical behavior for rotation
           may cause significant error
 Rotational temperatures (Kelvin)      0.06262     0.03530     0.02799
 Rotational constants (GHZ):           1.30474     0.73549     0.58319
 Zero-point vibrational energy     687783.5 (Joules/Mol)
                                  164.38421 (Kcal/Mol)
 Warning -- explicit consideration of  15 degrees of freedom as
           vibrations may cause significant error
 Vibrational temperatures:    181.72   211.26   333.05   351.56   427.47
          (Kelvin)            456.78   479.08   547.06   573.74   596.80
                              646.71   747.92   789.13   824.41   842.04
                              922.98   973.21   989.81  1055.21  1104.31
                             1124.40  1149.62  1169.38  1192.63  1234.98
                             1251.87  1268.08  1275.02  1310.30  1336.87
                             1363.08  1392.82  1432.85  1458.18  1501.78
                             1509.10  1556.06  1566.59  1585.48  1595.38
                             1639.38  1668.53  1683.45  1699.75  1717.00
                             1723.58  1735.59  1749.56  1805.43  1810.37
                             1827.11  1835.25  1852.05  1867.55  1890.25
                             1915.11  1937.12  1984.04  1990.17  2017.27
                             2095.15  2098.46  2155.41  2174.01  2175.61
                             2180.68  2202.26  2521.77  4368.25  4368.80
                             4385.43  4399.48  4411.33  4412.84  4413.96
                             4434.49  4440.33  4444.43  4450.80  4466.10
                             4498.47  4516.80  4563.32  4587.18

 Zero-point correction=                           0.261963 (Hartree/Particle)
 Thermal correction to Energy=                    0.272128
 Thermal correction to Enthalpy=                  0.273072
 Thermal correction to Gibbs Free Energy=         0.227330
 Sum of electronic and zero-point Energies=           -542.635517
 Sum of electronic and thermal Energies=              -542.625351
 Sum of electronic and thermal Enthalpies=            -542.624407
 Sum of electronic and thermal Free Energies=         -542.670150

                     E (Thermal)             CV                S
                      KCal/Mol        Cal/Mol-Kelvin    Cal/Mol-Kelvin
 Total                  170.763             45.773             96.274
 Electronic               0.000              0.000              0.000
 Translational            0.889              2.981             41.538
 Rotational               0.889              2.981             30.730
 Vibrational            168.986             39.812             24.006
 Vibration     1          0.611              1.927              3.002
 Vibration     2          0.617              1.906              2.713
 Vibration     3          0.653              1.793              1.867
 Vibration     4          0.660              1.772              1.771
 Vibration     5          0.691              1.679              1.433
 Vibration     6          0.704              1.640              1.323
 Vibration     7          0.715              1.610              1.246
 Vibration     8          0.750              1.512              1.038
 Vibration     9          0.765              1.473              0.967
 Vibration    10          0.778              1.438              0.910
 Vibration    11          0.808              1.362              0.797
 Vibration    12          0.875              1.206              0.610
 Vibration    13          0.904              1.143              0.547
 Vibration    14          0.929              1.090              0.499
 Vibration    15          0.942              1.063              0.476

 Optimization completed.
    -- Stationary point found.
 Normal termination of Gaussian 16 at Thu Dec 10 10:40:35 2020.

 ----------------------------------------------------------------------
 # B3LYP/6-311++G(d,p) empiricaldispersion=gd3bj scf=xqc pop=npa geom=c
 heck
 ----------------------------------------------------------------------

 ---------------------------------------
 CID_147588119_JID_4519_Energie_neutraal
 ---------------------------------------
 Structure from the checkpoint file:  "JID_4519.chk"
 Charge =  0 Multiplicity = 1

 SCF Done:  E(RB3LYP) =  -543.029086810     A.U. after   15 cycles
 Normal termination of Gaussian 16 at Thu Dec 10 10:45:30 2020.

 ----------------------------------------------------------------------
 # B3LYP/6-311++G(d,p) empiricaldispersion=gd3bj scf=xqc pop=npa geom=c
 heck
 ----------------------------------------------------------------------

 -------------------------------------
 CID_147588119_JID_4519_Energie_kation
 -------------------------------------
 Structure from the checkpoint file:  "JID_4519.chk"
 Charge =  1 Multiplicity = 2

 SCF Done:  E(UB3LYP) =  -542.756667167     A.U. after   24 cycles
 Normal termination of Gaussian 16 at Thu Dec 10 10:57:12 2020.
 Gaussian 16:  ES64L-G16RevA.03 25-Dec-2016

 ----------------------------------------------------------------------
 # B3LYP/6-311++G(d,p) empiricaldispersion=gd3bj scf=xqc pop=npa geom=c
 heck
 ----------------------------------------------------------------------

 ------------------------------------
 CID_147588119_JID_4519_Energie_anion
 ------------------------------------
 Structure from the checkpoint file:  "JID_4519.chk"
 Charge = -1 Multiplicity = 2

                         Standard orientation:
 ---------------------------------------------------------------------
 Center     Atomic      Atomic             Coordinates (Angstroms)
 Number     Number       Type             X           Y           Z
 ---------------------------------------------------------------------
      1          6           0        3.187619    0.003416    0.019190
      2          6           0        2.302894    1.333473    0.046589
      3          6           0        0.889638    0.979660   -0.611090
      4          6           0        1.133883   -0.475573   -0.941360
      5          6           0        2.044838   -0.989960    0.255588
      6          6           0       -0.229202   -2.208645    0.365408
      7          6           0        0.829409   -1.714377   -0.284579
      8          6           0       -0.440529    1.163991    0.123525
      9          6           0       -1.656989    1.718216   -0.664522
     10          6           0       -2.492500    0.517204   -0.178854
     11          6           0       -1.368735    0.078535    0.759402
     12          6           0       -0.694039    1.087048    1.619531
     13          6           0       -1.506283   -1.405554    0.379393
     14          6           0       -2.264281   -0.862672   -0.891580
     15          1           0        3.936406    0.011790    0.819841
     16          1           0        3.702966   -0.114218   -0.938279
     17          1           0        2.167661    1.651071    1.086521
     18          1           0        2.797829    2.157712   -0.479417
     19          1           0        0.801417    1.558939   -1.537132
     20          1           0        1.732951   -0.611838   -1.844945
     21          1           0        1.667533   -0.684399    1.234883
     22          1           0       -0.086786   -2.953038    1.145808
     23          1           0       -2.013832    2.705043   -0.341134
     24          1           0       -1.495486    1.746494   -1.747897
     25          1           0       -3.513323    0.679169    0.186231
     26          1           0        0.157803    0.729718    2.194650
     27          1           0       -1.272469    1.855775    2.137710
     28          1           0       -2.239377   -1.887832    1.039541
     29          1           0       -3.160140   -1.418018   -1.182192
     30          1           0       -1.597499   -0.774932   -1.754037
 ---------------------------------------------------------------------

 SCF Done:  E(UB3LYP) =  -543.013967570     A.U. after   33 cycles
 SCF Done:  E(UB3LYP) =  -543.013967570     a.u. after    1 cycles

 The electronic state is 2-A.
 Alpha  occ. eigenvalues --  -10.07344 -10.06899 -10.06819 -10.06733 -10.06578
 Alpha  occ. eigenvalues --  -10.06464 -10.06296 -10.06224 -10.05896 -10.05774
 Alpha  occ. eigenvalues --  -10.05581 -10.05562 -10.05215 -10.02398  -0.80222
 Alpha  occ. eigenvalues --   -0.76525  -0.69237  -0.65263  -0.62228  -0.60590
 Alpha  occ. eigenvalues --   -0.57611  -0.50744  -0.49947  -0.47424  -0.46446
 Alpha  occ. eigenvalues --   -0.45120  -0.40143  -0.38825  -0.37234  -0.35564
 Alpha  occ. eigenvalues --   -0.34446  -0.32730  -0.32567  -0.31324  -0.29351
 Alpha  occ. eigenvalues --   -0.28900  -0.27800  -0.26358  -0.25239  -0.24440
 Alpha  occ. eigenvalues --   -0.23405  -0.22773  -0.21084  -0.20549  -0.20025
 Alpha  occ. eigenvalues --   -0.17133  -0.16064  -0.14076  -0.11315  -0.08191
 Alpha  occ. eigenvalues --    0.05242
 Alpha virt. eigenvalues --    0.07037   0.08155   0.08642   0.08845   0.09904
 Alpha virt. eigenvalues --    0.09927   0.10078   0.10825   0.11464   0.12477
 Alpha virt. eigenvalues --    0.12705   0.12903   0.13163   0.14358   0.14933

  Beta  occ. eigenvalues --  -10.07344 -10.06880 -10.06801 -10.06714 -10.06576
  Beta  occ. eigenvalues --  -10.06465 -10.06265 -10.06219 -10.05719 -10.05637
  Beta  occ. eigenvalues --  -10.05535 -10.05532 -10.05218 -10.02231  -0.80174
  Beta  occ. eigenvalues --   -0.76355  -0.69118  -0.65116  -0.62138  -0.60527
  Beta  occ. eigenvalues --   -0.57420  -0.50644  -0.49876  -0.47367  -0.46297
  Beta  occ. eigenvalues --   -0.45000  -0.39971  -0.38747  -0.37165  -0.35509
  Beta  occ. eigenvalues --   -0.34352  -0.32666  -0.32421  -0.31233  -0.29254
  Beta  occ. eigenvalues --   -0.28822  -0.27661  -0.26306  -0.25155  -0.24338
  Beta  occ. eigenvalues --   -0.23230  -0.22685  -0.21039  -0.20465  -0.19923
  Beta  occ. eigenvalues --   -0.17034  -0.15993  -0.13686  -0.10994  -0.07535
  Beta virt. eigenvalues --    0.07570   0.08076   0.08515   0.08821   0.10035
  Beta virt. eigenvalues --    0.10177   0.10416   0.10676   0.10807   0.11695
  Beta virt. eigenvalues --    0.12636   0.12958   0.13164   0.13311   0.14479

 Mulliken charges and spin densities:
               1          2
     1  C    0.066800  -0.529241
     2  C    1.015835  -1.684181
     3  C   -1.142154   1.293346
     4  C    0.578013  -0.815997
     5  C   -0.364450   0.186434
     6  C   -0.777317   0.622509
     7  C    0.075790   0.163443
     8  C    0.938151  -0.246170
     9  C   -0.646566  -0.141229
    10  C   -0.174512   0.339943
    11  C    0.612479  -0.409291
    12  C   -0.579698  -0.222754
    13  C   -0.189861   0.250592
    14  C    0.424037  -1.076226
    15  H   -0.675761   0.845987
    16  H    0.095341   0.019131
    17  H    0.066415   0.103486
    18  H   -0.622511   0.749864
    19  H    0.088750   0.117298
    20  H    0.188804   0.038046
    21  H    0.104436   0.020357
    22  H    0.114988  -0.002124
    23  H    0.099366   0.009910
    24  H    0.109141   0.013918
    25  H   -0.004631   0.179449
    26  H   -0.197028   0.350061
    27  H    0.149293  -0.013562
    28  H    0.080553   0.102370
    29  H   -0.572566   0.715680
    30  H    0.138862   0.018952
 Sum of Mulliken charges =  -1.00000   1.00000

 Dipole moment (field-independent basis, Debye):
    X=             -3.7108    Y=              1.6891    Z=             -0.7197  Tot=              4.1402
 Quadrupole moment (field-independent basis, Debye-Ang):
   XX=           -149.6213   YY=           -122.5206   ZZ=           -108.0880
   XY=            -15.3097   XZ=             -9.5846   YZ=             -3.6087

 Summary of Natural Population Analysis:

                                       Natural Population
                Natural  -----------------------------------------------
    Atom  No    Charge         Core      Valence    Rydberg      Total
 -----------------------------------------------------------------------
      C    1   -0.18194      0.99960     2.17280    0.00954     3.18194
      C    2   -0.18672      0.99963     2.17797    0.00912     3.18672
      C    3   -0.11944      0.99951     2.10669    0.01323     3.11944
      C    4   -0.10407      0.99951     2.09332    0.01123     3.10407
      C    5   -0.12459      0.99946     2.11383    0.01131     3.12459
      C    6   -0.09263      0.99939     2.08228    0.01096     3.09263
      C    7    0.05705      0.99921     1.93047    0.01327     2.94295
      C    8   -0.02326      0.99951     2.01029    0.01347     3.02326
      C    9   -0.18194      0.99960     2.17396    0.00838     3.18194
      C   10   -0.10529      0.99955     2.09407    0.01167     3.10529
      C   11   -0.00948      0.99945     1.99775    0.01228     3.00948
      C   12   -0.19466      0.99951     2.18460    0.01055     3.19466
      C   13   -0.11431      0.99954     2.10119    0.01358     3.11431
      C   14   -0.17668      0.99962     2.16721    0.00985     3.17668
      H   15    0.10060      0.00000     0.39772    0.00169     0.39940
      H   16    0.09509      0.00000     0.40369    0.00122     0.40491
      H   17    0.09925      0.00000     0.39836    0.00239     0.40075
      H   18    0.09923      0.00000     0.39799    0.00278     0.40077
      H   19    0.10120      0.00000     0.39779    0.00102     0.39880
      H   20    0.09574      0.00000     0.40253    0.00173     0.40426
      H   21    0.09354      0.00000     0.40355    0.00291     0.40646
      H   22    0.09453      0.00000     0.40455    0.00092     0.40547
      H   23    0.09063      0.00000     0.40781    0.00155     0.40937
      H   24    0.09689      0.00000     0.40225    0.00086     0.40311
      H   25    0.08825      0.00000     0.41046    0.00128     0.41175
      H   26    0.11223      0.00000     0.38643    0.00134     0.38777
      H   27    0.09449      0.00000     0.40446    0.00104     0.40551
      H   28    0.09951      0.00000     0.39951    0.00098     0.40049
      H   29    0.09718      0.00000     0.40027    0.00255     0.40282
      H   30    0.09960      0.00000     0.39948    0.00093     0.40040
 =======================================================================
   * Total *    0.00000     13.99309    35.82330    0.18362    50.00000

 Normal termination of Gaussian 16 at Thu Dec 10 11:12:52 2020.
