 Gaussian 16, Revision A.03,

 -----------------------------------------------------------
 # opt freq B3LYP/6-31G(d) empiricaldispersion=gd3bj scf=xqc
 -----------------------------------------------------------

 -------------------------------
 CID_140009457_JID_4979_neutraal
 -------------------------------
 Symbolic Z-matrix:
 Charge =  0 Multiplicity = 1

 SCF Done:  E(RB3LYP) =  -991.099041790     A.U. after   15 cycles
 SCF Done:  E(RB3LYP) =  -991.103087930     A.U. after   13 cycles
 SCF Done:  E(RB3LYP) =  -991.101493769     A.U. after   15 cycles
 SCF Done:  E(RB3LYP) =  -991.104602368     A.U. after   12 cycles
 SCF Done:  E(RB3LYP) =  -991.105705307     A.U. after   12 cycles
 SCF Done:  E(RB3LYP) =  -991.106224591     A.U. after   12 cycles
 SCF Done:  E(RB3LYP) =  -991.106714623     A.U. after   12 cycles
 SCF Done:  E(RB3LYP) =  -991.106792338     A.U. after   12 cycles
 SCF Done:  E(RB3LYP) =  -991.106852221     A.U. after   12 cycles
 SCF Done:  E(RB3LYP) =  -991.106855710     A.U. after    9 cycles
 SCF Done:  E(RB3LYP) =  -991.106857034     A.U. after    8 cycles
 SCF Done:  E(RB3LYP) =  -991.106857958     A.U. after    9 cycles
 SCF Done:  E(RB3LYP) =  -991.106858689     A.U. after    8 cycles
 SCF Done:  E(RB3LYP) =  -991.106858758     A.U. after    7 cycles
 Optimization completed.
    -- Stationary point found.
 Normal termination of Gaussian 16 at Thu Dec 10 11:02:18 2020.

 --------------------------------------------------------------------
 #N Geom=AllCheck Guess=TCheck SCRF=Check GenChk RB3LYP/6-31G(d) Freq
 --------------------------------------------------------------------

 Structure from the checkpoint file:  "JID_4979.chk"
 -------------------------------
 CID_140009457_JID_4979_neutraal
 -------------------------------
 Charge =  0 Multiplicity = 1

 SCF Done:  E(RB3LYP) =  -991.106858758     A.U. after    1 cycles

  Exact polarizability: 175.383   8.874 123.300 -14.816   7.044  92.819
 Approx polarizability: 267.415  14.582 202.164 -43.652  16.253 153.832

                      1                      2                      3
                      A                      A                      A
 Frequencies --     47.8145                60.7691                77.0300
 Red. masses --      4.9199                 6.5411                 3.7495
 Frc consts  --      0.0066                 0.0142                 0.0131
 IR Inten    --      0.3862                 0.5371                 2.4685

                      4                      5                      6
                      A                      A                      A
 Frequencies --    100.3347               125.2334               175.2399
 Red. masses --      4.5149                 5.1261                 1.0703
 Frc consts  --      0.0268                 0.0474                 0.0194
 IR Inten    --      0.5851                 0.6396                 1.5050

                      7                      8                      9
                      A                      A                      A
 Frequencies --    214.9310               232.5681               258.1066
 Red. masses --      4.1681                 3.4867                 1.4793
 Frc consts  --      0.1134                 0.1111                 0.0581
 IR Inten    --      0.3117                10.8835                 9.3768

                     10                     11                     12
                      A                      A                      A
 Frequencies --    264.7843               298.2085               320.2540
 Red. masses --      3.8339                 5.2465                 3.7900
 Frc consts  --      0.1584                 0.2749                 0.2290
 IR Inten    --      5.4799                13.2725                 3.7176

                     13                     14                     15
                      A                      A                      A
 Frequencies --    340.7264               367.2475               377.6610
 Red. masses --      3.3013                 3.9803                 1.1190
 Frc consts  --      0.2258                 0.3163                 0.0940
 IR Inten    --      8.4216                 2.5311               114.5598

                     16                     17                     18
                      A                      A                      A
 Frequencies --    395.8025               433.6663               471.3048
 Red. masses --      5.1083                 5.1414                 3.0313
 Frc consts  --      0.4715                 0.5697                 0.3967
 IR Inten    --      1.1861                 5.3567                 6.7747

                     19                     20                     21
                      A                      A                      A
 Frequencies --    505.4230               524.1154               585.1103
 Red. masses --      2.3022                 1.7166                 3.8396
 Frc consts  --      0.3465                 0.2778                 0.7745
 IR Inten    --     37.6449                49.9572                 7.6015

                     22                     23                     24
                      A                      A                      A
 Frequencies --    614.3171               653.0067               668.8741
 Red. masses --      4.1076                 6.9710                 1.8545
 Frc consts  --      0.9133                 1.7514                 0.4888
 IR Inten    --      5.5825                 4.8472                12.1489

                     25                     26                     27
                      A                      A                      A
 Frequencies --    682.9870               718.3695               733.2384
 Red. masses --      3.1784                 5.1471                 3.0636
 Frc consts  --      0.8735                 1.5650                 0.9705
 IR Inten    --     10.7089                 3.3796                 3.7186

                     28                     29                     30
                      A                      A                      A
 Frequencies --    810.8048               827.3222               835.4137
 Red. masses --      2.5625                 1.5221                 2.0448
 Frc consts  --      0.9925                 0.6138                 0.8408
 IR Inten    --     20.0007                 5.1975                23.6025

                     31                     32                     33
                      A                      A                      A
 Frequencies --    857.5027               932.4275               957.5863
 Red. masses --      2.4764                 1.2207                 1.4606
 Frc consts  --      1.0729                 0.6253                 0.7891
 IR Inten    --     25.2255                12.9721                31.6388

                     34                     35                     36
                      A                      A                      A
 Frequencies --    960.4763               968.2315              1010.1732
 Red. masses --      1.7942                 1.2979                 2.7399
 Frc consts  --      0.9752                 0.7169                 1.6473
 IR Inten    --     11.7124                 1.5966                 7.2833

                     37                     38                     39
                      A                      A                      A
 Frequencies --   1040.1857              1086.9016              1089.1816
 Red. masses --      1.4124                 1.6429                 3.4518
 Frc consts  --      0.9004                 1.1435                 2.4127
 IR Inten    --      6.9624                 3.2076                 1.9192

                     40                     41                     42
                      A                      A                      A
 Frequencies --   1156.3524              1208.2706              1215.9682
 Red. masses --      1.5033                 1.5918                 1.7764
 Frc consts  --      1.1843                 1.3692                 1.5475
 IR Inten    --      1.3384                66.2688               134.9149

                     43                     44                     45
                      A                      A                      A
 Frequencies --   1251.7586              1286.3648              1342.0539
 Red. masses --      2.2241                 1.6873                 2.7647
 Frc consts  --      2.0533                 1.6450                 2.9338
 IR Inten    --    204.6506                13.8227                 3.8296

                     46                     47                     48
                      A                      A                      A
 Frequencies --   1363.6084              1394.5326              1436.6977
 Red. masses --      6.3023                 3.4281                 1.3181
 Frc consts  --      6.9044                 3.9279                 1.6030
 IR Inten    --     55.8442               176.6092                 1.9422

                     49                     50                     51
                      A                      A                      A
 Frequencies --   1443.8485              1473.1429              1501.1268
 Red. masses --      1.7619                 1.2371                 1.0505
 Frc consts  --      2.1641                 1.5817                 1.3948
 IR Inten    --     73.6990                21.3926                 6.2550

                     52                     53                     54
                      A                      A                      A
 Frequencies --   1503.3163              1525.1516              1538.8412
 Red. masses --      2.9445                 1.0584                 3.0424
 Frc consts  --      3.9207                 1.4505                 4.2447
 IR Inten    --     44.4921                 9.9173                69.6302

                     55                     56                     57
                      A                      A                      A
 Frequencies --   1640.9582              1658.6540              1715.7525
 Red. masses --      6.0035                 6.0338                 4.9435
 Frc consts  --      9.5247                 9.7803                 8.5741
 IR Inten    --     33.5623               180.6690                41.4067

                     58                     59                     60
                      A                      A                      A
 Frequencies --   1769.8450              2657.1758              3056.3789
 Red. masses --      8.1522                 1.0381                 1.0380
 Frc consts  --     15.0452                 4.3186                 5.7127
 IR Inten    --    316.3410                14.7359                14.5594

                     61                     62                     63
                      A                      A                      A
 Frequencies --   3117.2892              3145.6276              3173.4328
 Red. masses --      1.0968                 1.1042                 1.0623
 Frc consts  --      6.2797                 6.4375                 6.3033
 IR Inten    --     14.2533                11.3475                 7.6414

                     64                     65                     66
                      A                      A                      A
 Frequencies --   3178.8141              3213.6433              3229.1016
 Red. masses --      1.0907                 1.0884                 1.0950
 Frc consts  --      6.4937                 6.6230                 6.7268
 IR Inten    --     10.8859                 1.6706                 4.7624

                     67                     68                     69
                      A                      A                      A
 Frequencies --   3261.5992              3574.6529              3750.0423
 Red. masses --      1.1136                 1.0749                 1.0660
 Frc consts  --      6.9800                 8.0925                 8.8322
 IR Inten    --      6.4843                32.6166                51.4409

 - Thermochemistry -
 -------------------
 Temperature   298.150 Kelvin.  Pressure   1.00000 Atm.
 Atom     1 has atomic number  6 and mass  12.00000

 Molecular mass:   209.05105 amu.
 Principal axes and moments of inertia in atomic units:
                           1         2         3
     Eigenvalues --  1732.944764357.155375051.02167
           X            0.99987   0.00609   0.01517
           Y           -0.00638   0.99979   0.01954
           Z           -0.01504  -0.01964   0.99969
 This molecule is an asymmetric top.
 Rotational symmetry number  1.
 Warning -- assumption of classical behavior for rotation
           may cause significant error
 Rotational temperatures (Kelvin)      0.04998     0.01988     0.01715
 Rotational constants (GHZ):           1.04143     0.41420     0.35730
 Zero-point vibrational energy     504868.0 (Joules/Mol)
                                  120.66634 (Kcal/Mol)
 Warning -- explicit consideration of  22 degrees of freedom as
           vibrations may cause significant error
 Vibrational temperatures:     68.79    87.43   110.83   144.36   180.18
          (Kelvin)            252.13   309.24   334.61   371.36   380.97
                              429.06   460.77   490.23   528.39   543.37
                              569.47   623.95   678.10   727.19   754.09
                              841.84   883.87   939.53   962.36   982.67
                             1033.57  1054.97  1166.57  1190.33  1201.97
                             1233.76  1341.56  1377.75  1381.91  1393.07
                             1453.41  1496.60  1563.81  1567.09  1663.73
                             1738.43  1749.51  1801.00  1850.79  1930.92
                             1961.93  2006.42  2067.09  2077.38  2119.52
                             2159.79  2162.94  2194.35  2214.05  2360.97
                             2386.43  2468.59  2546.41  3823.08  4397.45
                             4485.08  4525.86  4565.86  4573.60  4623.72
                             4645.96  4692.71  5143.13  5395.47

 Zero-point correction=                           0.192294 (Hartree/Particle)
 Thermal correction to Energy=                    0.206325
 Thermal correction to Enthalpy=                  0.207269
 Thermal correction to Gibbs Free Energy=         0.151458
 Sum of electronic and zero-point Energies=           -990.914565
 Sum of electronic and thermal Energies=              -990.900534
 Sum of electronic and thermal Enthalpies=            -990.899589
 Sum of electronic and thermal Free Energies=         -990.955401

                     E (Thermal)             CV                S
                      KCal/Mol        Cal/Mol-Kelvin    Cal/Mol-Kelvin
 Total                  129.471             53.023            117.464
 Electronic               0.000              0.000              0.000
 Translational            0.889              2.981             41.916
 Rotational               0.889              2.981             32.012
 Vibrational            127.694             47.061             43.537
 Vibration     1          0.595              1.978              4.906
 Vibration     2          0.597              1.973              4.432
 Vibration     3          0.599              1.964              3.965
 Vibration     4          0.604              1.949              3.448
 Vibration     5          0.610              1.928              3.018
 Vibration     6          0.627              1.873              2.379
 Vibration     7          0.645              1.818              2.001
 Vibration     8          0.653              1.791              1.859
 Vibration     9          0.667              1.749              1.675
 Vibration    10          0.671              1.738              1.630
 Vibration    11          0.691              1.677              1.427
 Vibration    12          0.706              1.635              1.309
 Vibration    13          0.720              1.594              1.209
 Vibration    14          0.740              1.540              1.091
 Vibration    15          0.748              1.518              1.049
 Vibration    16          0.763              1.479              0.978
 Vibration    17          0.794              1.397              0.847
 Vibration    18          0.828              1.314              0.734
 Vibration    19          0.861              1.238              0.645
 Vibration    20          0.879              1.197              0.600
 Vibration    21          0.942              1.064              0.476
 Vibration    22          0.974              1.002              0.426

 Optimization completed.
    -- Stationary point found.
 Normal termination of Gaussian 16 at Thu Dec 10 11:09:03 2020.

 ----------------------------------------------------------------------
 # B3LYP/6-311++G(d,p) empiricaldispersion=gd3bj scf=xqc pop=npa geom=c
 heck
 ----------------------------------------------------------------------

 ---------------------------------------
 CID_140009457_JID_4979_Energie_neutraal
 ---------------------------------------
 Structure from the checkpoint file:  "JID_4979.chk"
 Charge =  0 Multiplicity = 1

 SCF Done:  E(RB3LYP) =  -991.312867528     A.U. after   16 cycles
 Normal termination of Gaussian 16 at Thu Dec 10 11:11:53 2020.

 ----------------------------------------------------------------------
 # B3LYP/6-311++G(d,p) empiricaldispersion=gd3bj scf=xqc pop=npa geom=c
 heck
 ----------------------------------------------------------------------

 -------------------------------------
 CID_140009457_JID_4979_Energie_kation
 -------------------------------------
 Structure from the checkpoint file:  "JID_4979.chk"
 Charge =  1 Multiplicity = 2

 SCF Done:  E(UB3LYP) =  -991.006918723     A.U. after   29 cycles
 Normal termination of Gaussian 16 at Thu Dec 10 11:18:14 2020.
 Gaussian 16:  ES64L-G16RevA.03 25-Dec-2016

 ----------------------------------------------------------------------
 # B3LYP/6-311++G(d,p) empiricaldispersion=gd3bj scf=xqc pop=npa geom=c
 heck
 ----------------------------------------------------------------------

 ------------------------------------
 CID_140009457_JID_4979_Energie_anion
 ------------------------------------
 Structure from the checkpoint file:  "JID_4979.chk"
 Charge = -1 Multiplicity = 2

                         Standard orientation:
 ---------------------------------------------------------------------
 Center     Atomic      Atomic             Coordinates (Angstroms)
 Number     Number       Type             X           Y           Z
 ---------------------------------------------------------------------
      1          6           0        3.611524    0.032195    0.982077
      2          6           0        2.215561   -0.511117    0.831775
      3          6           0        1.383434   -0.700545    1.862933
      4          6           0        1.887076   -0.976815   -0.557412
      5          8           0        2.767805   -1.409694   -1.290227
      6          7           0        0.570672   -1.001733   -0.980168
      7          6           0       -0.582445   -0.345691   -0.486410
      8          6           0       -0.639880    1.038722   -0.231993
      9          6           0       -1.850802    1.584465    0.218058
     10          6           0       -2.987995    0.808162    0.396582
     11          6           0       -2.926214   -0.562281    0.126923
     12          6           0       -1.726211   -1.132254   -0.299704
     13          8           0       -4.060536   -1.294173    0.313688
     14         16           0        0.716411    2.150940   -0.588170
     15          1           0        3.813585    0.320432    2.017331
     16          1           0        3.767394    0.902475    0.333431
     17          1           0        4.339404   -0.721422    0.666642
     18          1           0        0.398488   -1.137800    1.746263
     19          1           0        1.679799   -0.432061    2.873597
     20          1           0        0.477850   -1.467770   -1.875869
     21          1           0       -1.893546    2.650527    0.414106
     22          1           0       -3.922201    1.241415    0.736535
     23          1           0       -1.657683   -2.202502   -0.480837
     24          1           0       -3.883980   -2.220874    0.088408
     25          1           0        1.461174    1.886563    0.507627
 ---------------------------------------------------------------------

 SCF Done:  E(UB3LYP) =  -991.314357820     A.U. after   33 cycles
 SCF Done:  E(UB3LYP) =  -991.314357820     a.u. after    1 cycles

 The electronic state is 2-A.
 Alpha  occ. eigenvalues --  -88.73682 -19.04932 -18.95331 -14.21643 -10.13449
 Alpha  occ. eigenvalues --  -10.13203 -10.10707 -10.09155 -10.07373 -10.06085
 Alpha  occ. eigenvalues --  -10.06016 -10.05833 -10.05414 -10.03801  -7.82371
 Alpha  occ. eigenvalues --   -5.78750  -5.78396  -5.77759  -0.96069  -0.90941
 Alpha  occ. eigenvalues --   -0.81280  -0.74121  -0.68235  -0.66996  -0.63961
 Alpha  occ. eigenvalues --   -0.59169  -0.57494  -0.52603  -0.51340  -0.48926
 Alpha  occ. eigenvalues --   -0.45321  -0.41267  -0.39870  -0.37602  -0.36472
 Alpha  occ. eigenvalues --   -0.35173  -0.32871  -0.32393  -0.31535  -0.30972
 Alpha  occ. eigenvalues --   -0.29913  -0.29455  -0.28443  -0.26790  -0.26267
 Alpha  occ. eigenvalues --   -0.25521  -0.25002  -0.24110  -0.22125  -0.17329
 Alpha  occ. eigenvalues --   -0.14929  -0.14170  -0.13061  -0.12993  -0.11554
 Alpha  occ. eigenvalues --    0.04290
 Alpha virt. eigenvalues --    0.06489   0.07933   0.08404   0.08762   0.09431
 Alpha virt. eigenvalues --    0.10031   0.10431   0.10951   0.11774   0.12380
 Alpha virt. eigenvalues --    0.12581   0.13684   0.14474   0.14798   0.15071

  Beta  occ. eigenvalues --  -88.73679 -19.04887 -18.95125 -14.21690 -10.13262
  Beta  occ. eigenvalues --  -10.13220 -10.10564 -10.09169 -10.07356 -10.06010
  Beta  occ. eigenvalues --  -10.05921 -10.05782 -10.05414 -10.03574  -7.82368
  Beta  occ. eigenvalues --   -5.78745  -5.78394  -5.77752  -0.95981  -0.90581
  Beta  occ. eigenvalues --   -0.81126  -0.74027  -0.67987  -0.66912  -0.63767
  Beta  occ. eigenvalues --   -0.59087  -0.57284  -0.52338  -0.51051  -0.48671
  Beta  occ. eigenvalues --   -0.45185  -0.41093  -0.39762  -0.37503  -0.36369
  Beta  occ. eigenvalues --   -0.35013  -0.32730  -0.32168  -0.31358  -0.30811
  Beta  occ. eigenvalues --   -0.29783  -0.29321  -0.28380  -0.26384  -0.26087
  Beta  occ. eigenvalues --   -0.25341  -0.24836  -0.23943  -0.21927  -0.16836
  Beta  occ. eigenvalues --   -0.14375  -0.13645  -0.12757  -0.12656  -0.11228
  Beta virt. eigenvalues --    0.07719   0.08010   0.08413   0.08820   0.09115
  Beta virt. eigenvalues --    0.09699   0.10351   0.10530   0.11092   0.11851
  Beta virt. eigenvalues --    0.12490   0.12879   0.13839   0.14426   0.14895

 Mulliken charges and spin densities:
               1          2
     1  C   -0.578895  -0.005876
     2  C    0.620418  -0.064403
     3  C   -0.858800   0.333305
     4  C    0.176013  -0.037394
     5  O   -0.382803   0.083511
     6  N   -0.089064  -0.029899
     7  C   -1.515487   0.016434
     8  C    1.907990   0.060372
     9  C   -0.307683   0.089998
    10  C    0.651003  -0.628121
    11  C    0.800647  -1.402015
    12  C   -0.960271   1.033559
    13  O   -0.264434   0.037188
    14  S   -0.516535   0.011733
    15  H    0.123535  -0.006094
    16  H    0.133292   0.000358
    17  H    0.150685   0.014128
    18  H    0.111029   0.036239
    19  H    0.105117  -0.015759
    20  H    0.238267   0.086404
    21  H    0.169037   0.001603
    22  H    0.174344  -0.019167
    23  H   -0.639012   0.813498
    24  H   -0.311845   0.589674
    25  H    0.063453   0.000722
 Sum of Mulliken charges =  -1.00000   1.00000

 Dipole moment (field-independent basis, Debye):
    X=              0.9981    Y=              5.5271    Z=              1.9614  Tot=              5.9491
 Quadrupole moment (field-independent basis, Debye-Ang):
   XX=           -145.2641   YY=           -124.1370   ZZ=           -108.2980
   XY=             -6.5255   XZ=              5.8219   YZ=             -1.3368

 Summary of Natural Population Analysis:

                                       Natural Population
                Natural  -----------------------------------------------
    Atom  No    Charge         Core      Valence    Rydberg      Total
 -----------------------------------------------------------------------
      C    1   -0.29526      0.99963     2.29056    0.00507     3.29526
      C    2   -0.05710      0.99949     2.04627    0.01133     3.05710
      C    3   -0.13327      0.99952     2.12584    0.00792     3.13327
      C    4    0.35764      0.99959     1.61873    0.02403     2.64236
      O    5   -0.30670      0.99988     3.30157    0.00526     4.30670
      N    6   -0.32694      0.99964     2.81739    0.00991     3.82694
      C    7    0.10562      0.99940     1.88197    0.01301     2.89438
      C    8   -0.11323      0.99933     2.10219    0.01170     3.11323
      C    9   -0.08640      0.99951     2.07782    0.00907     3.08640
      C   10   -0.12073      0.99951     2.11121    0.01001     3.12073
      C   11    0.16487      0.99938     1.82238    0.01337     2.83513
      C   12   -0.13616      0.99947     2.12624    0.01046     3.13616
      O   13   -0.34125      0.99987     3.33424    0.00714     4.34125
      S   14   -0.00896      4.99958     2.99353    0.01585     8.00896
      H   15    0.09305      0.00000     0.40611    0.00084     0.40695
      H   16    0.09990      0.00000     0.39901    0.00109     0.40010
      H   17    0.11095      0.00000     0.38794    0.00110     0.38905
      H   18    0.09704      0.00000     0.40196    0.00101     0.40296
      H   19    0.08405      0.00000     0.41501    0.00094     0.41595
      H   20    0.19829      0.00000     0.29930    0.00241     0.30171
      H   21    0.10118      0.00000     0.39792    0.00090     0.39882
      H   22    0.10103      0.00000     0.39778    0.00119     0.39897
      H   23    0.10632      0.00000     0.39123    0.00245     0.39368
      H   24    0.23970      0.00000     0.25072    0.00957     0.26030
      H   25    0.06635      0.00000     0.43057    0.00308     0.43365
 =======================================================================
   * Total *   -0.00000     17.99382    36.82747    0.17871    55.00000

 Normal termination of Gaussian 16 at Thu Dec 10 11:25:20 2020.
