 Gaussian 16, Revision A.03,

 -----------------------------------------------------------
 # opt freq B3LYP/6-31G(d) empiricaldispersion=gd3bj scf=xqc
 -----------------------------------------------------------

 -------------------------------
 CID_61039086_JID_10977_neutraal
 -------------------------------
 Symbolic Z-matrix:
 Charge =  0 Multiplicity = 1

 SCF Done:  E(RB3LYP) =  -1291.39534160     A.U. after   16 cycles
 SCF Done:  E(RB3LYP) =  -1291.23231162     A.U. after   15 cycles
 SCF Done:  E(RB3LYP) =  -1291.40167718     A.U. after   14 cycles
 SCF Done:  E(RB3LYP) =  -1291.40483356     A.U. after   13 cycles
 SCF Done:  E(RB3LYP) =  -1291.40544563     A.U. after   13 cycles
 SCF Done:  E(RB3LYP) =  -1291.40651889     A.U. after   13 cycles
 SCF Done:  E(RB3LYP) =  -1291.40728250     A.U. after   12 cycles
 SCF Done:  E(RB3LYP) =  -1291.40750208     A.U. after   12 cycles
 SCF Done:  E(RB3LYP) =  -1291.40759790     A.U. after   12 cycles
 SCF Done:  E(RB3LYP) =  -1291.40776887     A.U. after   11 cycles
 SCF Done:  E(RB3LYP) =  -1291.40783780     A.U. after    9 cycles
 SCF Done:  E(RB3LYP) =  -1291.40783852     A.U. after    8 cycles
 SCF Done:  E(RB3LYP) =  -1291.40783883     A.U. after    8 cycles
 SCF Done:  E(RB3LYP) =  -1291.40783895     A.U. after    7 cycles
 SCF Done:  E(RB3LYP) =  -1291.40783899     A.U. after    7 cycles
 SCF Done:  E(RB3LYP) =  -1291.40783898     A.U. after    7 cycles
 Optimization completed.
    -- Stationary point found.
 Normal termination of Gaussian 16 at Mon Dec 14 14:02:24 2020.

 --------------------------------------------------------------------
 #N Geom=AllCheck Guess=TCheck SCRF=Check GenChk RB3LYP/6-31G(d) Freq
 --------------------------------------------------------------------

 Structure from the checkpoint file:  "JID_10977.chk"
 -------------------------------
 CID_61039086_JID_10977_neutraal
 -------------------------------
 Charge =  0 Multiplicity = 1

 SCF Done:  E(RB3LYP) =  -1291.40783898     A.U. after    1 cycles

  Exact polarizability: 209.806 -34.388 146.459  -9.731 -10.889 162.650
 Approx polarizability: 315.087 -69.299 244.881 -23.245 -41.332 314.088

                      1                      2                      3
                      A                      A                      A
 Frequencies --     29.4381                35.7127                61.1161
 Red. masses --      5.6124                 8.2031                 7.4258
 Frc consts  --      0.0029                 0.0062                 0.0163
 IR Inten    --      0.3306                 1.2337                 0.7985

                      4                      5                      6
                      A                      A                      A
 Frequencies --     70.3944                87.7921               117.8699
 Red. masses --      7.1525                 5.5932                 4.1578
 Frc consts  --      0.0209                 0.0254                 0.0340
 IR Inten    --      2.8676                 3.2396                 1.2541

                      7                      8                      9
                      A                      A                      A
 Frequencies --    130.6277               144.8188               166.4031
 Red. masses --      4.5165                 4.1692                 2.4131
 Frc consts  --      0.0454                 0.0515                 0.0394
 IR Inten    --      1.3492                 0.4300                 1.7859

                     10                     11                     12
                      A                      A                      A
 Frequencies --    181.6695               184.0338               189.7253
 Red. masses --      1.3621                 2.4474                 1.3499
 Frc consts  --      0.0265                 0.0488                 0.0286
 IR Inten    --      0.7821                 2.1691                 0.7872

                     13                     14                     15
                      A                      A                      A
 Frequencies --    219.0393               258.7096               281.7603
 Red. masses --      4.7229                 5.0301                 1.0881
 Frc consts  --      0.1335                 0.1984                 0.0509
 IR Inten    --     10.6919                 4.6520                16.2987

                     16                     17                     18
                      A                      A                      A
 Frequencies --    292.5308               305.4527               317.0044
 Red. masses --      5.2163                 4.8137                 4.5100
 Frc consts  --      0.2630                 0.2646                 0.2670
 IR Inten    --      2.6260                 2.4346                12.2940

                     19                     20                     21
                      A                      A                      A
 Frequencies --    355.5697               367.1644               389.8842
 Red. masses --      3.7701                 5.8276                 4.9741
 Frc consts  --      0.2808                 0.4629                 0.4455
 IR Inten    --      1.9754                 3.9256                 4.8260

                     22                     23                     24
                      A                      A                      A
 Frequencies --    417.4254               437.7480               466.1762
 Red. masses --      5.7101                 3.0612                 6.5584
 Frc consts  --      0.5862                 0.3456                 0.8397
 IR Inten    --      2.7957                 8.6549                 6.7533

                     25                     26                     27
                      A                      A                      A
 Frequencies --    477.5230               492.1589               510.3055
 Red. masses --      5.2428                 5.5250                 3.5939
 Frc consts  --      0.7044                 0.7885                 0.5514
 IR Inten    --      4.5143                 0.9472                 2.4100

                     28                     29                     30
                      A                      A                      A
 Frequencies --    536.6611               552.7639               619.5216
 Red. masses --      2.4987                 2.1578                 2.9010
 Frc consts  --      0.4240                 0.3885                 0.6560
 IR Inten    --     19.2524                78.3147               133.5554

                     31                     32                     33
                      A                      A                      A
 Frequencies --    650.8106               662.5748               677.8576
 Red. masses --      3.0231                 2.5056                 5.1597
 Frc consts  --      0.7544                 0.6481                 1.3969
 IR Inten    --     93.3602               129.2086                 2.5830

                     34                     35                     36
                      A                      A                      A
 Frequencies --    714.6092               725.1161               734.3038
 Red. masses --      3.3172                 4.6781                 2.3629
 Frc consts  --      0.9981                 1.4492                 0.7507
 IR Inten    --     33.1222                 8.6020                 0.8139

                     37                     38                     39
                      A                      A                      A
 Frequencies --    763.4739               770.3800               788.6106
 Red. masses --      5.0407                 4.3792                 4.1856
 Frc consts  --      1.7311                 1.5313                 1.5337
 IR Inten    --     11.5840                20.1483                37.9367

                     40                     41                     42
                      A                      A                      A
 Frequencies --    804.7432               818.5688               865.0521
 Red. masses --      5.3830                 5.4680                 3.6973
 Frc consts  --      2.0540                 2.1587                 1.6301
 IR Inten    --     16.6534                 6.1981                20.7589

                     43                     44                     45
                      A                      A                      A
 Frequencies --    893.1985               906.0340               932.1522
 Red. masses --      1.3874                 1.6307                 1.3807
 Frc consts  --      0.6522                 0.7887                 0.7068
 IR Inten    --      1.9693                20.8369                 6.0776

                     46                     47                     48
                      A                      A                      A
 Frequencies --    958.2331               968.4786              1025.4652
 Red. masses --      7.1057                 4.3518                 1.7035
 Frc consts  --      3.8442                 2.4049                 1.0554
 IR Inten    --     10.9459                 8.8090                 2.0312

                     49                     50                     51
                      A                      A                      A
 Frequencies --   1071.5952              1074.1248              1110.8281
 Red. masses --      2.2690                 1.7738                 2.3976
 Frc consts  --      1.5351                 1.2058                 1.7431
 IR Inten    --     11.7937                11.9815                52.0684

                     52                     53                     54
                      A                      A                      A
 Frequencies --   1115.2209              1131.1183              1145.6754
 Red. masses --      3.2782                 1.3499                 1.8297
 Frc consts  --      2.4022                 1.0176                 1.4150
 IR Inten    --     38.9151                 3.8327                25.3862

                     55                     56                     57
                      A                      A                      A
 Frequencies --   1187.2444              1222.2407              1238.7721
 Red. masses --      1.2663                 1.5739                 2.2507
 Frc consts  --      1.0516                 1.3853                 2.0350
 IR Inten    --      0.8135                 5.6951                76.7433

                     58                     59                     60
                      A                      A                      A
 Frequencies --   1253.3098              1292.0759              1304.7064
 Red. masses --      1.9814                 3.0581                 3.4422
 Frc consts  --      1.8338                 3.0080                 3.4523
 IR Inten    --      8.1505                 9.7836               113.9589

                     61                     62                     63
                      A                      A                      A
 Frequencies --   1333.1192              1342.5654              1375.7057
 Red. masses --      3.7005                 3.9675                 2.8615
 Frc consts  --      3.8748                 4.2135                 3.1908
 IR Inten    --     63.6074                71.7079               270.6619

                     64                     65                     66
                      A                      A                      A
 Frequencies --   1402.0396              1440.8901              1481.0974
 Red. masses --      1.8518                 1.2632                 2.8822
 Frc consts  --      2.1447                 1.5452                 3.7251
 IR Inten    --    126.0639                 3.8377                25.7986

                     67                     68                     69
                      A                      A                      A
 Frequencies --   1482.9800              1495.4419              1504.1859
 Red. masses --      2.7746                 1.6487                 1.6914
 Frc consts  --      3.5952                 2.1723                 2.2548
 IR Inten    --     18.0397                34.9328                24.5864

                     70                     71                     72
                      A                      A                      A
 Frequencies --   1510.8525              1515.1347              1516.2153
 Red. masses --      2.2128                 1.1311                 1.5014
 Frc consts  --      2.9761                 1.5299                 2.0336
 IR Inten    --    155.3171                18.4971                79.0458

                     73                     74                     75
                      A                      A                      A
 Frequencies --   1523.5563              1526.9859              1604.7459
 Red. masses --      1.2627                 1.0578                 7.0074
 Frc consts  --      1.7269                 1.4532                10.6321
 IR Inten    --     41.5363                 3.7373                45.1288

                     76                     77                     78
                      A                      A                      A
 Frequencies --   1614.3822              1663.9937              1694.2101
 Red. masses --      5.5935                 4.1078                 1.2548
 Frc consts  --      8.5891                 6.7014                 2.1221
 IR Inten    --      9.9659                15.3260               101.6457

                     79                     80                     81
                      A                      A                      A
 Frequencies --   1768.7055              1787.9968              3065.7233
 Red. masses --      8.8207                11.6359                 1.0379
 Frc consts  --     16.2579                21.9172                 5.7476
 IR Inten    --    418.3634               164.0286                15.7880

                     82                     83                     84
                      A                      A                      A
 Frequencies --   3079.4096              3127.4968              3145.8124
 Red. masses --      1.0288                 1.0982                 1.0898
 Frc consts  --      5.7478                 6.3289                 6.3541
 IR Inten    --     25.3335                14.0856                40.4194

                     85                     86                     87
                      A                      A                      A
 Frequencies --   3155.6349              3158.7345              3184.7613
 Red. masses --      1.1030                 1.1079                 1.1077
 Frc consts  --      6.4716                 6.5131                 6.6198
 IR Inten    --      8.5199                16.4660                11.2277

                     88                     89                     90
                      A                      A                      A
 Frequencies --   3209.9055              3225.6642              3270.8310
 Red. masses --      1.0906                 1.0917                 1.0970
 Frc consts  --      6.6208                 6.6925                 6.9145
 IR Inten    --      5.8470                 3.3249                 0.2155

                     91                     92                     93
                      A                      A                      A
 Frequencies --   3543.5010              3574.4854              3640.8150
 Red. masses --      1.0480                 1.0750                 1.0979
 Frc consts  --      7.7528                 8.0927                 8.5745
 IR Inten    --     16.1631                40.1879                 9.9662

 - Thermochemistry -
 -------------------
 Temperature   298.150 Kelvin.  Pressure   1.00000 Atm.
 Atom     1 has atomic number  6 and mass  12.00000

 Molecular mass:   291.06776 amu.
 Principal axes and moments of inertia in atomic units:
                           1         2         3
     Eigenvalues --  3852.695816467.301806967.53928
           X            0.99895  -0.04583   0.00276
           Y            0.04524   0.99278   0.11110
           Z           -0.00783  -0.11086   0.99381
 This molecule is an asymmetric top.
 Rotational symmetry number  1.
 Warning -- assumption of classical behavior for rotation
           may cause significant error
 Rotational temperatures (Kelvin)      0.02248     0.01339     0.01243
 Rotational constants (GHZ):           0.46844     0.27906     0.25902
 Zero-point vibrational energy     660764.2 (Joules/Mol)
                                  157.92644 (Kcal/Mol)
 Warning -- explicit consideration of  30 degrees of freedom as
           vibrations may cause significant error
 Vibrational temperatures:     42.35    51.38    87.93   101.28   126.31
          (Kelvin)            169.59   187.94   208.36   239.42   261.38
                              264.78   272.97   315.15   372.23   405.39
                              420.89   439.48   456.10   511.59   528.27
                              560.96   600.58   629.82   670.72   687.05
                              708.11   734.22   772.14   795.30   891.35
                              936.37   953.30   975.29  1028.16  1043.28
                             1056.50  1098.47  1108.41  1134.63  1157.85
                             1177.74  1244.62  1285.11  1303.58  1341.16
                             1378.68  1393.42  1475.42  1541.79  1545.43
                             1598.23  1604.55  1627.43  1648.37  1708.18
                             1758.53  1782.32  1803.23  1859.01  1877.18
                             1918.06  1931.65  1979.33  2017.22  2073.12
                             2130.97  2133.68  2151.61  2164.19  2173.78
                             2179.94  2181.50  2192.06  2196.99  2308.87
                             2322.74  2394.12  2437.59  2544.77  2572.53
                             4410.89  4430.58  4499.77  4526.12  4540.25
                             4544.71  4582.16  4618.34  4641.01  4706.00
                             5098.31  5142.89  5238.32

 Zero-point correction=                           0.251672 (Hartree/Particle)
 Thermal correction to Energy=                    0.270527
 Thermal correction to Enthalpy=                  0.271471
 Thermal correction to Gibbs Free Energy=         0.204283
 Sum of electronic and zero-point Energies=          -1291.156167
 Sum of electronic and thermal Energies=             -1291.137312
 Sum of electronic and thermal Enthalpies=           -1291.136368
 Sum of electronic and thermal Free Energies=        -1291.203556

                     E (Thermal)             CV                S
                      KCal/Mol        Cal/Mol-Kelvin    Cal/Mol-Kelvin
 Total                  169.758             70.907            141.408
 Electronic               0.000              0.000              0.000
 Translational            0.889              2.981             42.903
 Rotational               0.889              2.981             33.517
 Vibrational            167.981             64.945             64.988
 Vibration     1          0.593              1.984              5.867
 Vibration     2          0.594              1.982              5.484
 Vibration     3          0.597              1.973              4.421
 Vibration     4          0.598              1.968              4.142
 Vibration     5          0.601              1.958              3.709
 Vibration     6          0.608              1.934              3.135
 Vibration     7          0.612              1.923              2.937
 Vibration     8          0.616              1.908              2.739
 Vibration     9          0.624              1.884              2.476
 Vibration    10          0.630              1.865              2.311
 Vibration    11          0.631              1.862              2.287
 Vibration    12          0.633              1.854              2.231
 Vibration    13          0.647              1.812              1.967
 Vibration    14          0.668              1.748              1.670
 Vibration    15          0.681              1.707              1.523
 Vibration    16          0.688              1.688              1.459
 Vibration    17          0.696              1.663              1.387
 Vibration    18          0.704              1.641              1.326
 Vibration    19          0.731              1.564              1.141
 Vibration    20          0.740              1.540              1.092
 Vibration    21          0.758              1.492              1.001
 Vibration    22          0.780              1.432              0.901
 Vibration    23          0.798              1.388              0.834
 Vibration    24          0.824              1.325              0.748
 Vibration    25          0.834              1.300              0.717
 Vibration    26          0.848              1.267              0.678
 Vibration    27          0.865              1.227              0.633
 Vibration    28          0.892              1.169              0.573
 Vibration    29          0.908              1.134              0.538
 Vibration    30          0.979              0.991              0.417

                           ! Non-Optimized Parameters !
 Normal termination of Gaussian 16 at Mon Dec 14 14:22:15 2020.

 ----------------------------------------------------------------------
 # B3LYP/6-311++G(d,p) empiricaldispersion=gd3bj scf=xqc pop=npa geom=c
 heck
 ----------------------------------------------------------------------

 ---------------------------------------
 CID_61039086_JID_10977_Energie_neutraal
 ---------------------------------------
 Structure from the checkpoint file:  "JID_10977.chk"
 Charge =  0 Multiplicity = 1

 SCF Done:  E(RB3LYP) =  -1291.68966893     A.U. after   17 cycles
 Normal termination of Gaussian 16 at Mon Dec 14 14:29:18 2020.

 ----------------------------------------------------------------------
 # B3LYP/6-311++G(d,p) empiricaldispersion=gd3bj scf=xqc pop=npa geom=c
 heck
 ----------------------------------------------------------------------

 -------------------------------------
 CID_61039086_JID_10977_Energie_kation
 -------------------------------------
 Structure from the checkpoint file:  "JID_10977.chk"
 Charge =  1 Multiplicity = 2

 SCF Done:  E(UB3LYP) =  -1291.40196597     A.U. after   27 cycles
 Normal termination of Gaussian 16 at Mon Dec 14 14:45:18 2020.
 Gaussian 16:  ES64L-G16RevA.03 25-Dec-2016

 ----------------------------------------------------------------------
 # B3LYP/6-311++G(d,p) empiricaldispersion=gd3bj scf=xqc pop=npa geom=c
 heck
 ----------------------------------------------------------------------

 ------------------------------------
 CID_61039086_JID_10977_Energie_anion
 ------------------------------------
 Structure from the checkpoint file:  "JID_10977.chk"
 Charge = -1 Multiplicity = 2

                         Standard orientation:
 ---------------------------------------------------------------------
 Center     Atomic      Atomic             Coordinates (Angstroms)
 Number     Number       Type             X           Y           Z
 ---------------------------------------------------------------------
      1          6           0        0.439356   -2.563437   -0.930259
      2          6           0       -0.739105   -1.636537   -0.772906
      3          6           0       -1.104857   -1.011544    0.434076
      4          6           0       -2.297330   -0.286893    0.486267
      5          6           0       -3.056966   -0.101669   -0.666654
      6          6           0       -2.576140   -0.715668   -1.835887
      7          7           0       -1.484345   -1.470922   -1.879009
      8          7           0       -4.196148    0.707504   -0.676959
      9          6           0       -0.363068   -1.103687    1.734139
     10          8           0       -0.944996   -1.340376    2.784310
     11          7           0        1.010319   -0.922662    1.743559
     12          6           0        1.858310   -0.391350    0.759852
     13          6           0        1.606432    0.706502   -0.047162
     14         16           0        2.873328    0.923648   -1.227449
     15          6           0        3.766764   -0.400770   -0.573036
     16          6           0        3.112815   -1.009471    0.461552
     17          6           0        0.555035    1.733738   -0.038327
     18          8           0        0.373395    2.512119   -0.955263
     19          8           0       -0.135946    1.765847    1.119422
     20          6           0       -1.180774    2.752408    1.168948
     21          1           0        1.282662   -2.052520   -1.407832
     22          1           0        0.148725   -3.392048   -1.581745
     23          1           0        0.784062   -2.964933    0.025094
     24          1           0       -2.604464    0.145381    1.433189
     25          1           0       -3.119788   -0.595208   -2.773711
     26          1           0       -4.700713    0.733134    0.201208
     27          1           0       -4.825104    0.535479   -1.452338
     28          1           0        1.412259   -1.105180    2.656447
     29          1           0        4.715152   -0.683445   -1.009688
     30          1           0        3.473289   -1.890396    0.980529
     31          1           0       -0.763978    3.752940    1.032165
     32          1           0       -1.923981    2.560447    0.391170
     33          1           0       -1.622613    2.650109    2.160202
 ---------------------------------------------------------------------

 SCF Done:  E(UB3LYP) =  -1291.70594488     A.U. after   32 cycles

 The electronic state is 2-A.
 Alpha  occ. eigenvalues --  -88.73000 -19.02575 -18.95540 -18.94998 -14.22809
 Alpha  occ. eigenvalues --  -14.21614 -14.18812 -10.14103 -10.13883 -10.10474
 Alpha  occ. eigenvalues --  -10.10298 -10.09056 -10.08421 -10.07373 -10.06393
 Alpha  occ. eigenvalues --  -10.06298 -10.05923 -10.04958 -10.04694 -10.04272
 Alpha  occ. eigenvalues --   -7.81641  -5.77942  -5.77572  -5.77255  -0.96439
 Alpha  occ. eigenvalues --   -0.91141  -0.87011  -0.83700  -0.80945  -0.80462
 Alpha  occ. eigenvalues --   -0.73518  -0.68208  -0.65693  -0.62599  -0.60129
 Alpha  occ. eigenvalues --   -0.58263  -0.57860  -0.54150  -0.49505  -0.48854
 Alpha  occ. eigenvalues --   -0.46542  -0.44603  -0.42532  -0.42473  -0.41181
 Alpha  occ. eigenvalues --   -0.39634  -0.36802  -0.36486  -0.35536  -0.33992
 Alpha  occ. eigenvalues --   -0.33477  -0.32641  -0.31402  -0.31026  -0.29714
 Alpha  occ. eigenvalues --   -0.29170  -0.28587  -0.28229  -0.27402  -0.27189
 Alpha  occ. eigenvalues --   -0.26130  -0.25528  -0.25028  -0.23565  -0.22670
 Alpha  occ. eigenvalues --   -0.21755  -0.21431  -0.17757  -0.16493  -0.16311
 Alpha  occ. eigenvalues --   -0.14620  -0.13654  -0.12589  -0.11792  -0.10804
 Alpha  occ. eigenvalues --   -0.09621   0.03854
 Alpha virt. eigenvalues --    0.06418   0.07246   0.08523   0.08929   0.09764
 Alpha virt. eigenvalues --    0.09902   0.10207   0.10824   0.11406   0.12277
 Alpha virt. eigenvalues --    0.12925   0.13257   0.13578   0.13949   0.14363

  Beta  occ. eigenvalues --  -88.72932 -19.02518 -18.95325 -18.94737 -14.22809
  Beta  occ. eigenvalues --  -14.21698 -14.18815 -10.13901 -10.13714 -10.10486
  Beta  occ. eigenvalues --  -10.10295 -10.09041 -10.08335 -10.07137 -10.06341
  Beta  occ. eigenvalues --  -10.06245 -10.05654 -10.04791 -10.04742 -10.04274
  Beta  occ. eigenvalues --   -7.81580  -5.77910  -5.77541  -5.77032  -0.96205
  Beta  occ. eigenvalues --   -0.90780  -0.86615  -0.83659  -0.80905  -0.80305
  Beta  occ. eigenvalues --   -0.73246  -0.68062  -0.65615  -0.62223  -0.59848
  Beta  occ. eigenvalues --   -0.58074  -0.57678  -0.53920  -0.49446  -0.48431
  Beta  occ. eigenvalues --   -0.46249  -0.44388  -0.42465  -0.42328  -0.41008
  Beta  occ. eigenvalues --   -0.39544  -0.36732  -0.36344  -0.35227  -0.33838
  Beta  occ. eigenvalues --   -0.33291  -0.32419  -0.31208  -0.30913  -0.29572
  Beta  occ. eigenvalues --   -0.28818  -0.28421  -0.27934  -0.27018  -0.26653
  Beta  occ. eigenvalues --   -0.25992  -0.25362  -0.24709  -0.22952  -0.22276
  Beta  occ. eigenvalues --   -0.21628  -0.21083  -0.17056  -0.15885  -0.15828
  Beta  occ. eigenvalues --   -0.14433  -0.13354  -0.12390  -0.11068  -0.10344
  Beta  occ. eigenvalues --   -0.08320
  Beta virt. eigenvalues --    0.06372   0.07942   0.08489   0.08856   0.09421
  Beta virt. eigenvalues --    0.09771   0.10026   0.10327   0.10914   0.11377
  Beta virt. eigenvalues --    0.12279   0.12911   0.13300   0.13636   0.14275

 Mulliken charges and spin densities:
               1          2
     1  C   -0.515778  -0.015742
     2  C   -0.357143   0.054718
     3  C    0.520790   0.026175
     4  C    0.261394   0.028238
     5  C   -0.460834  -0.010908
     6  C   -0.106001   0.064427
     7  N    0.007243  -0.005497
     8  N   -0.317536   0.000142
     9  C   -0.691425   0.084523
    10  O   -0.324522   0.072824
    11  N   -0.278938  -0.042698
    12  C   -0.273987   0.133735
    13  C    0.958559   0.118987
    14  S   -0.227576   0.120565
    15  C   -0.462054   0.159423
    16  C    0.087351  -0.044321
    17  C   -0.745670   0.137181
    18  O   -0.285161   0.089217
    19  O    0.055176   0.005670
    20  C   -0.233936  -0.006500
    21  H    0.213254  -0.004511
    22  H    0.158704  -0.000521
    23  H    0.145565   0.003747
    24  H    0.197549   0.007357
    25  H    0.138169  -0.005245
    26  H    0.225144   0.000723
    27  H    0.225924   0.007122
    28  H    0.295157   0.010964
    29  H    0.196092  -0.013335
    30  H    0.113372   0.010175
    31  H    0.161425   0.003566
    32  H    0.195361   0.000802
    33  H    0.124331   0.008996
 Sum of Mulliken charges =  -1.00000   1.00000

 Dipole moment (field-independent basis, Debye):
    X=             -2.9994    Y=             -0.7847    Z=              0.9234  Tot=              3.2349
 Quadrupole moment (field-independent basis, Debye-Ang):
   XX=           -132.5819   YY=           -147.7788   ZZ=           -151.0554
   XY=            -12.7796   XZ=              6.4642   YZ=              8.9997

 Summary of Natural Population Analysis:

                                       Natural Population
                Natural  -----------------------------------------------
    Atom  No    Charge         Core      Valence    Rydberg      Total
 -----------------------------------------------------------------------
      C    1   -0.30035      0.99964     2.29565    0.00507     3.30035
      C    2    0.10571      0.99952     1.87765    0.01711     2.89429
      C    3   -0.05945      0.99941     2.04675    0.01328     3.05945
      C    4   -0.07799      0.99949     2.06975    0.00874     3.07799
      C    5    0.04978      0.99948     1.94137    0.00938     2.95022
      C    6    0.02601      0.99956     1.96138    0.01306     2.97399
      N    7   -0.23468      0.99968     2.72439    0.01062     3.73468
      N    8   -0.40082      0.99972     2.89162    0.00949     3.90082
      C    9    0.36643      0.99963     1.61242    0.02152     2.63357
      O   10   -0.30777      0.99988     3.30203    0.00586     4.30777
      N   11   -0.32010      0.99964     2.80961    0.01085     3.82010
      C   12    0.09142      0.99940     1.89392    0.01526     2.90858
      C   13   -0.12587      0.99940     2.11032    0.01616     3.12587
      S   14    0.24417      4.99944     2.73453    0.02186     7.75583
      C   15   -0.14675      0.99956     2.13620    0.01099     3.14675
      C   16   -0.16240      0.99950     2.15389    0.00900     3.16240
      C   17    0.41115      0.99958     1.56576    0.02351     2.58885
      O   18   -0.29560      0.99987     3.29051    0.00522     4.29560
      O   19   -0.27729      0.99986     3.26832    0.00910     4.27729
      C   20   -0.10791      0.99960     2.09997    0.00834     3.10791
      H   21    0.11509      0.00000     0.38374    0.00117     0.38491
      H   22    0.10204      0.00000     0.39705    0.00091     0.39796
      H   23    0.10243      0.00000     0.39676    0.00081     0.39757
      H   24    0.10508      0.00000     0.39335    0.00157     0.39492
      H   25    0.07947      0.00000     0.41893    0.00160     0.42053
      H   26    0.18098      0.00000     0.31749    0.00154     0.31902
      H   27    0.18021      0.00000     0.31836    0.00143     0.31979
      H   28    0.19425      0.00000     0.30419    0.00157     0.30575
      H   29    0.09776      0.00000     0.40133    0.00091     0.40224
      H   30    0.09874      0.00000     0.40021    0.00106     0.40126
      H   31    0.08778      0.00000     0.41113    0.00109     0.41222
      H   32    0.09425      0.00000     0.40449    0.00126     0.40575
      H   33    0.08424      0.00000     0.41495    0.00081     0.41576
 =======================================================================
   * Total *    0.00000     23.99185    51.74802    0.26013    76.00000

 Normal termination of Gaussian 16 at Mon Dec 14 15:04:57 2020.
