 Gaussian 16, Revision A.03,

 -----------------------------------------------------------
 # opt freq B3LYP/6-31G(d) empiricaldispersion=gd3bj scf=xqc
 -----------------------------------------------------------

 -------------------------------
 CID_126575375_JID_4412_neutraal
 -------------------------------
 Symbolic Z-matrix:
 Charge =  0 Multiplicity = 1

 SCF Done:  E(RB3LYP) =  -1064.04720832     A.U. after   18 cycles
 SCF Done:  E(RB3LYP) =  -1064.05368448     A.U. after   15 cycles
 SCF Done:  E(RB3LYP) =  -1064.04737006     A.U. after   17 cycles
 SCF Done:  E(RB3LYP) =  -1064.05745589     A.U. after   15 cycles
 SCF Done:  E(RB3LYP) =  -1064.05815351     A.U. after   17 cycles
 SCF Done:  E(RB3LYP) =  -1064.05867090     A.U. after   14 cycles
 SCF Done:  E(RB3LYP) =  -1064.05902322     A.U. after   13 cycles
 SCF Done:  E(RB3LYP) =  -1064.05908574     A.U. after   12 cycles
 SCF Done:  E(RB3LYP) =  -1064.05909571     A.U. after   11 cycles
 SCF Done:  E(RB3LYP) =  -1064.05909903     A.U. after   10 cycles
 SCF Done:  E(RB3LYP) =  -1064.05911397     A.U. after   11 cycles
 SCF Done:  E(RB3LYP) =  -1064.05911461     A.U. after   10 cycles
 SCF Done:  E(RB3LYP) =  -1064.05911498     A.U. after    9 cycles
 SCF Done:  E(RB3LYP) =  -1064.05911504     A.U. after    8 cycles
 SCF Done:  E(RB3LYP) =  -1064.05911507     A.U. after    8 cycles
 SCF Done:  E(RB3LYP) =  -1064.05911507     A.U. after    7 cycles
 Optimization completed on the basis of negligible forces.
    -- Stationary point found.
 Normal termination of Gaussian 16 at Thu Dec 10 09:46:37 2020.

 --------------------------------------------------------------------
 #N Geom=AllCheck Guess=TCheck SCRF=Check GenChk RB3LYP/6-31G(d) Freq
 --------------------------------------------------------------------

 Structure from the checkpoint file:  "JID_4412.chk"
 -------------------------------
 CID_126575375_JID_4412_neutraal
 -------------------------------
 Charge =  0 Multiplicity = 1

 SCF Done:  E(RB3LYP) =  -1064.05911507     A.U. after    1 cycles

  Exact polarizability: 171.347  -0.686 139.256  -0.001   0.003  61.968
 Approx polarizability: 261.400 -14.526 260.187  -0.003   0.016  97.191

                      1                      2                      3
                      A                      A                      A
 Frequencies --     12.4731                48.7054                64.5854
 Red. masses --      4.6516                 6.1735                 4.8350
 Frc consts  --      0.0004                 0.0086                 0.0119
 IR Inten    --      0.7837                 0.0205                 0.9727

                      4                      5                      6
                      A                      A                      A
 Frequencies --    130.5065               134.6449               143.6047
 Red. masses --      3.3746                 1.5065                 5.0425
 Frc consts  --      0.0339                 0.0161                 0.0613
 IR Inten    --      1.3992                 0.4319                 0.2504

                      7                      8                      9
                      A                      A                      A
 Frequencies --    149.0392               153.8073               183.0069
 Red. masses --      1.3001                 1.6120                 1.0828
 Frc consts  --      0.0170                 0.0225                 0.0214
 IR Inten    --      2.4716                 2.5154                 0.7915

                     10                     11                     12
                      A                      A                      A
 Frequencies --    219.9773               254.6206               296.7961
 Red. masses --      6.4548                 5.6513                 6.8105
 Frc consts  --      0.1840                 0.2159                 0.3535
 IR Inten    --      4.2466                 0.4394                 1.2036

                     13                     14                     15
                      A                      A                      A
 Frequencies --    309.2574               317.8539               353.0186
 Red. masses --      5.7144                 3.3801                 3.5778
 Frc consts  --      0.3220                 0.2012                 0.2627
 IR Inten    --      0.1739                 4.1542                 9.4345

                     16                     17                     18
                      A                      A                      A
 Frequencies --    357.0396               396.7637               452.0786
 Red. masses --      4.9344                 9.7800                10.0426
 Frc consts  --      0.3706                 0.9071                 1.2093
 IR Inten    --     11.3393                 0.2966                 2.8571

                     19                     20                     21
                      A                      A                      A
 Frequencies --    519.6021               532.8897               562.1521
 Red. masses --      5.4286                 8.9121                 5.1063
 Frc consts  --      0.8635                 1.4911                 0.9507
 IR Inten    --      0.7049                 2.4616                 0.8245

                     22                     23                     24
                      A                      A                      A
 Frequencies --    633.3818               677.9632               752.3332
 Red. masses --      5.4919                 5.7931                13.0821
 Frc consts  --      1.2981                 1.5688                 4.3626
 IR Inten    --      5.2739                11.5019                11.2246

                     25                     26                     27
                      A                      A                      A
 Frequencies --    772.5666               783.3985               834.1173
 Red. masses --      4.9832                 8.9565                 6.9826
 Frc consts  --      1.7524                 3.2386                 2.8623
 IR Inten    --     17.6638                 9.9586                25.0291

                     28                     29                     30
                      A                      A                      A
 Frequencies --    879.3781               988.5850              1034.3890
 Red. masses --      3.8928                 4.0500                 4.7307
 Frc consts  --      1.7736                 2.3320                 2.9823
 IR Inten    --      5.0066                 3.6705                 0.1924

                     31                     32                     33
                      A                      A                      A
 Frequencies --   1053.6517              1072.9743              1084.7152
 Red. masses --      1.4241                 1.5085                 2.2888
 Frc consts  --      0.9315                 1.0232                 1.5867
 IR Inten    --      1.4672                 2.1339                29.6957

                     34                     35                     36
                      A                      A                      A
 Frequencies --   1097.0849              1153.6366              1185.5939
 Red. masses --      2.5404                 5.4746                 1.2722
 Frc consts  --      1.8015                 4.2928                 1.0536
 IR Inten    --     23.3408                82.5801                 1.0190

                     37                     38                     39
                      A                      A                      A
 Frequencies --   1190.9181              1223.4484              1293.8462
 Red. masses --      3.8536                 1.6479                 6.5203
 Frc consts  --      3.2202                 1.4533                 6.4310
 IR Inten    --    140.9415                71.2007               251.0194

                     40                     41                     42
                      A                      A                      A
 Frequencies --   1379.0382              1419.5479              1437.2582
 Red. masses --     11.2032                 3.5112                 1.3876
 Frc consts  --     12.5529                 4.1688                 1.6889
 IR Inten    --    616.2995                93.7853                14.1300

                     43                     44                     45
                      A                      A                      A
 Frequencies --   1442.5992              1467.7637              1491.3766
 Red. masses --      1.2138                 1.9211                 1.3693
 Frc consts  --      1.4883                 2.4384                 1.7945
 IR Inten    --      2.1361                38.4768                 5.7049

                     46                     47                     48
                      A                      A                      A
 Frequencies --   1501.1174              1502.4800              1511.5873
 Red. masses --      1.0445                 2.0260                 1.0480
 Frc consts  --      1.3867                 2.6947                 1.4108
 IR Inten    --      8.4864                33.2769                 5.8465

                     49                     50                     51
                      A                      A                      A
 Frequencies --   1515.7034              1520.0490              1525.5883
 Red. masses --      1.1104                 1.0451                 1.0551
 Frc consts  --      1.5030                 1.4227                 1.4468
 IR Inten    --      8.2285                 8.4446                 8.3095

                     52                     53                     54
                      A                      A                      A
 Frequencies --   1585.7281              1614.8619              1795.3886
 Red. masses --      4.5003                12.9081                11.4773
 Frc consts  --      6.6673                19.8328                21.7975
 IR Inten    --     37.1061               180.3021               261.4700

                     55                     56                     57
                      A                      A                      A
 Frequencies --   3069.9689              3079.4915              3083.8694
 Red. masses --      1.0347                 1.0291                 1.0408
 Frc consts  --      5.7457                 5.7502                 5.8318
 IR Inten    --      9.0281                35.7645                 2.9540

                     58                     59                     60
                      A                      A                      A
 Frequencies --   3133.0336              3139.1411              3144.5529
 Red. masses --      1.0990                 1.1010                 1.1043
 Frc consts  --      6.3558                 6.3926                 6.4336
 IR Inten    --      3.8387                 3.6584                10.2832

                     61                     62                     63
                      A                      A                      A
 Frequencies --   3156.0955              3185.4061              3224.0363
 Red. masses --      1.1077                 1.1076                 1.0987
 Frc consts  --      6.5010                 6.6215                 6.7290
 IR Inten    --     17.6147                14.5867                 3.1854

 - Thermochemistry -
 -------------------
 Temperature   298.150 Kelvin.  Pressure   1.00000 Atm.
 Atom     1 has atomic number  6 and mass  12.00000

 Molecular mass:   215.02523 amu.
 Principal axes and moments of inertia in atomic units:
                           1         2         3
     Eigenvalues --  1499.321244451.873385917.74031
           X            0.99990   0.01394   0.00000
           Y           -0.01394   0.99990  -0.00001
           Z           -0.00000   0.00001   1.00000
 This molecule is an asymmetric top.
 Rotational symmetry number  1.
 Warning -- assumption of classical behavior for rotation
           may cause significant error
 Rotational temperatures (Kelvin)      0.05777     0.01946     0.01464
 Rotational constants (GHZ):           1.20371     0.40539     0.30497
 Zero-point vibrational energy     443994.5 (Joules/Mol)
                                  106.11724 (Kcal/Mol)
 Warning -- explicit consideration of  21 degrees of freedom as
           vibrations may cause significant error
 Vibrational temperatures:     17.95    70.08    92.92   187.77   193.72
          (Kelvin)            206.62   214.43   221.29   263.31   316.50
                              366.34   427.02   444.95   457.32   507.92
                              513.70   570.85   650.44   747.59   766.71
                              808.81   911.30   975.44  1082.44  1111.55
                             1127.14  1200.11  1265.23  1422.35  1488.26
                             1515.97  1543.77  1560.66  1578.46  1659.83
                             1705.81  1713.47  1760.27  1861.56  1984.13
                             2042.41  2067.89  2075.58  2111.78  2145.76
                             2159.77  2161.73  2174.84  2180.76  2187.01
                             2194.98  2281.51  2323.43  2583.16  4417.00
                             4430.70  4437.00  4507.74  4516.52  4524.31
                             4540.92  4583.09  4638.67

 Zero-point correction=                           0.169109 (Hartree/Particle)
 Thermal correction to Energy=                    0.183484
 Thermal correction to Enthalpy=                  0.184428
 Thermal correction to Gibbs Free Energy=         0.125930
 Sum of electronic and zero-point Energies=          -1063.890006
 Sum of electronic and thermal Energies=             -1063.875631
 Sum of electronic and thermal Enthalpies=           -1063.874687
 Sum of electronic and thermal Free Energies=        -1063.933185

                     E (Thermal)             CV                S
                      KCal/Mol        Cal/Mol-Kelvin    Cal/Mol-Kelvin
 Total                  115.138             50.438            123.119
 Electronic               0.000              0.000              0.000
 Translational            0.889              2.981             42.000
 Rotational               0.889              2.981             32.046
 Vibrational            113.360             44.477             49.073
 Vibration     1          0.593              1.987              7.572
 Vibration     2          0.595              1.978              4.869
 Vibration     3          0.597              1.971              4.312
 Vibration     4          0.612              1.923              2.939
 Vibration     5          0.613              1.919              2.879
 Vibration     6          0.616              1.910              2.755
 Vibration     7          0.618              1.904              2.684
 Vibration     8          0.619              1.898              2.625
 Vibration     9          0.631              1.863              2.298
 Vibration    10          0.647              1.811              1.959
 Vibration    11          0.665              1.755              1.698
 Vibration    12          0.690              1.680              1.435
 Vibration    13          0.699              1.656              1.366
 Vibration    14          0.704              1.639              1.321
 Vibration    15          0.729              1.569              1.153
 Vibration    16          0.732              1.561              1.135
 Vibration    17          0.763              1.477              0.975
 Vibration    18          0.811              1.356              0.790
 Vibration    19          0.875              1.207              0.611
 Vibration    20          0.888              1.177              0.581
 Vibration    21          0.918              1.113              0.520

 Optimization completed.
    -- Stationary point found.
 Normal termination of Gaussian 16 at Thu Dec 10 09:52:20 2020.

 ----------------------------------------------------------------------
 # B3LYP/6-311++G(d,p) empiricaldispersion=gd3bj scf=xqc pop=npa geom=c
 heck
 ----------------------------------------------------------------------

 ---------------------------------------
 CID_126575375_JID_4412_Energie_neutraal
 ---------------------------------------
 Structure from the checkpoint file:  "JID_4412.chk"
 Charge =  0 Multiplicity = 1

 SCF Done:  E(RB3LYP) =  -1064.27655554     A.U. after   18 cycles
 Normal termination of Gaussian 16 at Thu Dec 10 09:54:47 2020.

 ----------------------------------------------------------------------
 # B3LYP/6-311++G(d,p) empiricaldispersion=gd3bj scf=xqc pop=npa geom=c
 heck
 ----------------------------------------------------------------------

 -------------------------------------
 CID_126575375_JID_4412_Energie_kation
 -------------------------------------
 Structure from the checkpoint file:  "JID_4412.chk"
 Charge =  1 Multiplicity = 2

 SCF Done:  E(UB3LYP) =  -1063.93754635     A.U. after   32 cycles
 Normal termination of Gaussian 16 at Thu Dec 10 10:00:33 2020.
 Gaussian 16:  ES64L-G16RevA.03 25-Dec-2016

 ----------------------------------------------------------------------
 # B3LYP/6-311++G(d,p) empiricaldispersion=gd3bj scf=xqc pop=npa geom=c
 heck
 ----------------------------------------------------------------------

 ------------------------------------
 CID_126575375_JID_4412_Energie_anion
 ------------------------------------
 Structure from the checkpoint file:  "JID_4412.chk"
 Charge = -1 Multiplicity = 2

                         Standard orientation:
 ---------------------------------------------------------------------
 Center     Atomic      Atomic             Coordinates (Angstroms)
 Number     Number       Type             X           Y           Z
 ---------------------------------------------------------------------
      1          6           0       -0.516817   -2.354440    0.000270
      2          6           0       -0.503894   -0.854356    0.000079
      3          6           0       -1.611939   -0.031601    0.000014
      4         16           0       -1.233681    1.667832   -0.000036
      5          6           0        0.455937    1.317823   -0.000067
      6          6           0        0.697791   -0.051631   -0.000001
      7          6           0        2.043593   -0.670646   -0.000098
      8          8           0        2.264328   -1.866056   -0.000491
      9          8           0        3.036713    0.250337    0.000299
     10          6           0        4.367030   -0.292268    0.000188
     11          6           0        1.410781    2.474452   -0.000170
     12          7           0       -3.010409   -0.353242    0.000018
     13          8           0       -3.367862   -1.532413   -0.000245
     14          8           0       -3.788166    0.610386    0.000240
     15          1           0        0.023591   -2.732463   -0.872357
     16          1           0        0.024693   -2.732243    0.872296
     17          1           0       -1.534802   -2.732909    0.000902
     18          1           0        4.529707   -0.906248    0.889331
     19          1           0        4.529879   -0.905461   -0.889467
     20          1           0        5.031600    0.571754    0.000632
     21          1           0        2.060886    2.438999    0.878409
     22          1           0        2.060931    2.438812   -0.878710
     23          1           0        0.870284    3.425120   -0.000289
 ---------------------------------------------------------------------

 SCF Done:  E(UB3LYP) =  -1064.31978338     A.U. after   21 cycles

 The electronic state is 2-A.
 Alpha  occ. eigenvalues --  -88.73573 -19.06390 -18.99355 -18.94933 -18.94866
 Alpha  occ. eigenvalues --  -14.33234 -10.18682 -10.13808 -10.07944 -10.06916
 Alpha  occ. eigenvalues --  -10.06237 -10.05554 -10.05234 -10.02486  -7.82209
 Alpha  occ. eigenvalues --   -5.78499  -5.78135  -5.77821  -1.03035  -1.00247
 Alpha  occ. eigenvalues --   -0.90878  -0.85758  -0.75801  -0.66492  -0.65152
 Alpha  occ. eigenvalues --   -0.62295  -0.59156  -0.56247  -0.50662  -0.47085
 Alpha  occ. eigenvalues --   -0.44432  -0.39838  -0.38926  -0.37276  -0.37158
 Alpha  occ. eigenvalues --   -0.35538  -0.34486  -0.32187  -0.31925  -0.31483
 Alpha  occ. eigenvalues --   -0.30339  -0.29976  -0.28218  -0.27668  -0.27141
 Alpha  occ. eigenvalues --   -0.23994  -0.23509  -0.22483  -0.21320  -0.20627
 Alpha  occ. eigenvalues --   -0.16738  -0.14095  -0.12695  -0.12197  -0.10742
 Alpha  occ. eigenvalues --   -0.10534   0.02161
 Alpha virt. eigenvalues --    0.06488   0.07883   0.08567   0.10137   0.10330
 Alpha virt. eigenvalues --    0.11118   0.12163   0.12577   0.13581   0.14096
 Alpha virt. eigenvalues --    0.14439   0.15498   0.15947   0.16158   0.16947

  Beta  occ. eigenvalues --  -88.73525 -19.06396 -18.99371 -18.94539 -18.94389
  Beta  occ. eigenvalues --  -14.32633 -10.18662 -10.13808 -10.07959 -10.06417
  Beta  occ. eigenvalues --  -10.06271 -10.05672 -10.05004 -10.02503  -7.82166
  Beta  occ. eigenvalues --   -5.78482  -5.78117  -5.77656  -1.02055  -1.00255
  Beta  occ. eigenvalues --   -0.90904  -0.84931  -0.75447  -0.66211  -0.64885
  Beta  occ. eigenvalues --   -0.62011  -0.58899  -0.55905  -0.50444  -0.46675
  Beta  occ. eigenvalues --   -0.44180  -0.39413  -0.38926  -0.37012  -0.36922
  Beta  occ. eigenvalues --   -0.34335  -0.32967  -0.31683  -0.31349  -0.31195
  Beta  occ. eigenvalues --   -0.30233  -0.29813  -0.28067  -0.27361  -0.27053
  Beta  occ. eigenvalues --   -0.23890  -0.23377  -0.21711  -0.21102  -0.20672
  Beta  occ. eigenvalues --   -0.16728  -0.12311  -0.12088  -0.10611  -0.10096
  Beta  occ. eigenvalues --   -0.09085
  Beta virt. eigenvalues --    0.06461   0.08490   0.08540   0.09979   0.10108
  Beta virt. eigenvalues --    0.10413   0.11087   0.12141   0.12673   0.13561
  Beta virt. eigenvalues --    0.14135   0.14460   0.15530   0.15978   0.16525

 Mulliken charges and spin densities:
               1          2
     1  C   -0.646150  -0.002549
     2  C    0.630659   0.158494
     3  C   -0.432161  -0.047654
     4  S   -0.619717   0.109277
     5  C    0.480814   0.261029
     6  C    0.095184  -0.050739
     7  C   -0.366186   0.004894
     8  O   -0.285740  -0.004913
     9  O   -0.120416  -0.003006
    10  C   -0.225643   0.000425
    11  C   -0.274160  -0.016139
    12  N   -0.225553   0.204721
    13  O   -0.166330   0.182418
    14  O   -0.212539   0.150858
    15  H    0.132918   0.007604
    16  H    0.132901   0.007582
    17  H    0.190349  -0.001079
    18  H    0.169689  -0.000116
    19  H    0.169693  -0.000116
    20  H    0.129458  -0.000003
    21  H    0.162609   0.019646
    22  H    0.162602   0.019635
    23  H    0.117718  -0.000268
 Sum of Mulliken charges =  -1.00000   1.00000

 Dipole moment (field-independent basis, Debye):
    X=             11.0541    Y=              2.2718    Z=              0.0006  Tot=             11.2851
 Quadrupole moment (field-independent basis, Debye-Ang):
   XX=           -138.6410   YY=           -108.0269   ZZ=            -92.8224
   XY=              1.1004   XZ=              0.0015   YZ=             -0.0042

 Summary of Natural Population Analysis:

                                       Natural Population
                Natural  -----------------------------------------------
    Atom  No    Charge         Core      Valence    Rydberg      Total
 -----------------------------------------------------------------------
      C    1   -0.30267      0.99963     2.29755    0.00548     3.30267
      C    2    0.03540      0.99943     1.95489    0.01028     2.96460
      C    3   -0.05017      0.99936     2.03622    0.01458     3.05017
      S    4    0.24937      4.99936     2.72872    0.02255     7.75063
      C    5    0.03225      0.99941     1.95633    0.01200     2.96775
      C    6   -0.15026      0.99936     2.13982    0.01108     3.15026
      C    7    0.40102      0.99962     1.57580    0.02355     2.59898
      O    8   -0.32385      0.99988     3.31764    0.00634     4.32385
      O    9   -0.28554      0.99987     3.27615    0.00953     4.28554
      C   10   -0.10566      0.99961     2.09766    0.00838     3.10566
      C   11   -0.30142      0.99958     2.29604    0.00580     3.30142
      N   12    0.29361      0.99967     2.17879    0.02794     3.20639
      O   13   -0.19171      0.99990     3.18376    0.00806     4.19171
      O   14   -0.20710      0.99990     3.19919    0.00801     4.20710
      H   15    0.10518      0.00000     0.39376    0.00106     0.39482
      H   16    0.10517      0.00000     0.39377    0.00106     0.39483
      H   17    0.12050      0.00000     0.37817    0.00133     0.37950
      H   18    0.08913      0.00000     0.40971    0.00116     0.41087
      H   19    0.08913      0.00000     0.40971    0.00116     0.41087
      H   20    0.08578      0.00000     0.41342    0.00080     0.41422
      H   21    0.10780      0.00000     0.39068    0.00152     0.39220
      H   22    0.10780      0.00000     0.39068    0.00152     0.39220
      H   23    0.09634      0.00000     0.40215    0.00152     0.40366
 =======================================================================
   * Total *    0.00009     17.99458    37.82062    0.18471    55.99991

 Normal termination of Gaussian 16 at Thu Dec 10 10:04:25 2020.
