 Gaussian 16, Revision A.03,

 -----------------------------------------------------------
 # opt freq B3LYP/6-31G(d) empiricaldispersion=gd3bj scf=xqc
 -----------------------------------------------------------

 -------------------------------
 CID_126640592_JID_1352_neutraal
 -------------------------------
 Symbolic Z-matrix:
 Charge =  0 Multiplicity = 1

 SCF Done:  E(RB3LYP) =  -571.221424866     A.U. after   15 cycles
 SCF Done:  E(RB3LYP) =  -571.225087584     A.U. after   13 cycles
 SCF Done:  E(RB3LYP) =  -571.225662050     A.U. after   13 cycles
 SCF Done:  E(RB3LYP) =  -571.225778749     A.U. after   11 cycles
 SCF Done:  E(RB3LYP) =  -571.225787258     A.U. after    9 cycles
 SCF Done:  E(RB3LYP) =  -571.225787420     A.U. after    9 cycles
 SCF Done:  E(RB3LYP) =  -571.225788112     A.U. after    8 cycles
 Optimization completed.
    -- Stationary point found.
 Normal termination of Gaussian 16 at Tue Dec  8 19:44:07 2020.

 --------------------------------------------------------------------
 #N Geom=AllCheck Guess=TCheck SCRF=Check GenChk RB3LYP/6-31G(d) Freq
 --------------------------------------------------------------------

 Structure from the checkpoint file:  "JID_1352.chk"
 -------------------------------
 CID_126640592_JID_1352_neutraal
 -------------------------------
 Charge =  0 Multiplicity = 1

 SCF Done:  E(RB3LYP) =  -571.225788112     A.U. after    1 cycles

  Exact polarizability: 112.094 -16.474 106.989   0.021   0.007  37.699
 Approx polarizability: 201.825 -90.105 220.997   0.097  -0.025  57.362

                      1                      2                      3
                      A                      A                      A
 Frequencies --     14.2523                92.5292               124.3776
 Red. masses --      3.4018                 7.8892                 6.9971
 Frc consts  --      0.0004                 0.0398                 0.0638
 IR Inten    --      6.3332                 3.2264                 3.4858

                      4                      5                      6
                      A                      A                      A
 Frequencies --    201.9238               229.8910               270.8538
 Red. masses --      1.1023                 3.9712                 4.9908
 Frc consts  --      0.0265                 0.1237                 0.2157
 IR Inten    --      0.1561                 3.7826                 0.1217

                      7                      8                      9
                      A                      A                      A
 Frequencies --    294.2764               335.0978               356.3216
 Red. masses --      5.5016                 6.0949                 5.9296
 Frc consts  --      0.2807                 0.4032                 0.4436
 IR Inten    --      2.9232                 2.1547                16.0118

                     10                     11                     12
                      A                      A                      A
 Frequencies --    411.1614               463.1034               483.9158
 Red. masses --     10.8768                10.6121                 7.0487
 Frc consts  --      1.0834                 1.3409                 0.9725
 IR Inten    --     17.1900                 6.7815                15.7401

                     13                     14                     15
                      A                      A                      A
 Frequencies --    529.1529               587.7766               606.9880
 Red. masses --      9.4601                 1.8314                 4.7175
 Frc consts  --      1.5607                 0.3728                 1.0241
 IR Inten    --      0.0107                42.8778                 4.3045

                     16                     17                     18
                      A                      A                      A
 Frequencies --    642.5989               654.1715               714.0650
 Red. masses --      1.2770                 5.9945                 9.0299
 Frc consts  --      0.3107                 1.5114                 2.7128
 IR Inten    --     54.8653                13.2145                 2.9636

                     19                     20                     21
                      A                      A                      A
 Frequencies --    762.9467               849.1881               991.9166
 Red. masses --      8.4445                 1.9846                 5.3137
 Frc consts  --      2.8961                 0.8432                 3.0803
 IR Inten    --      5.1917                49.5824                26.5930

                     22                     23                     24
                      A                      A                      A
 Frequencies --   1001.6263              1003.9756              1111.6635
 Red. masses --      1.2288                 4.5763                 1.7759
 Frc consts  --      0.7263                 2.7178                 1.2931
 IR Inten    --      0.0161                 4.1863               140.6150

                     25                     26                     27
                      A                      A                      A
 Frequencies --   1178.9053              1200.4289              1211.4385
 Red. masses --      1.2627                 2.5307                 1.9325
 Frc consts  --      1.0340                 2.1487                 1.6710
 IR Inten    --      0.9054                55.8466                 6.0149

                     28                     29                     30
                      A                      A                      A
 Frequencies --   1248.3099              1320.5585              1354.6616
 Red. masses --      2.1659                 3.1265                 4.3338
 Frc consts  --      1.9885                 3.2124                 4.6858
 IR Inten    --     84.1324               419.6369               139.8357

                     31                     32                     33
                      A                      A                      A
 Frequencies --   1394.6491              1446.1806              1509.0425
 Red. masses --      1.7690                 1.9932                 1.2187
 Frc consts  --      2.0273                 2.4561                 1.6351
 IR Inten    --     28.6694               244.9864                 7.5289

                     34                     35                     36
                      A                      A                      A
 Frequencies --   1521.1098              1523.3865              1665.9688
 Red. masses --      1.0484                 1.0624                 8.9509
 Frc consts  --      1.4292                 1.4526                14.6370
 IR Inten    --      6.4102                20.9333               148.9000

                     37                     38                     39
                      A                      A                      A
 Frequencies --   1726.6349              1737.0040              1758.4225
 Red. masses --      9.1864                 7.8003                11.5463
 Frc consts  --     16.1360                13.8665                21.0349
 IR Inten    --    226.9327                85.0516               138.3842

                     40                     41                     42
                      A                      A                      A
 Frequencies --   3075.1725              3154.9126              3175.4229
 Red. masses --      1.0289                 1.1080                 1.1074
 Frc consts  --      5.7325                 6.4979                 6.5789
 IR Inten    --     40.3499                22.8179                17.0945

                     43                     44                     45
                      A                      A                      A
 Frequencies --   3215.4846              3232.9371              3522.1793
 Red. masses --      1.0871                 1.1000                 1.0635
 Frc consts  --      6.6226                 6.7739                 7.7736
 IR Inten    --      1.5817                 2.8032               106.2920

 - Thermochemistry -
 -------------------
 Temperature   298.150 Kelvin.  Pressure   1.00000 Atm.
 Atom     1 has atomic number  6 and mass  12.00000

 Molecular mass:   154.02661 amu.
 Principal axes and moments of inertia in atomic units:
                           1         2         3
     Eigenvalues --  1228.800801511.272302728.61083
           X            0.97572   0.21904  -0.00011
           Y           -0.21904   0.97572  -0.00003
           Z            0.00010   0.00005   1.00000
 This molecule is an asymmetric top.
 Rotational symmetry number  1.
 Warning -- assumption of classical behavior for rotation
           may cause significant error
 Rotational temperatures (Kelvin)      0.07049     0.05731     0.03174
 Rotational constants (GHZ):           1.46870     1.19419     0.66141
 Zero-point vibrational energy     322433.0 (Joules/Mol)
                                   77.06333 (Kcal/Mol)
 Warning -- explicit consideration of  15 degrees of freedom as
           vibrations may cause significant error
 Vibrational temperatures:     20.51   133.13   178.95   290.52   330.76
          (Kelvin)            389.70   423.40   482.13   512.67   591.57
                              666.30   696.25   761.33   845.68   873.32
                              924.56   941.21  1027.38  1097.71  1221.79
                             1427.15  1441.12  1444.50  1599.44  1696.18
                             1727.15  1742.99  1796.04  1899.99  1949.06
                             2006.59  2080.73  2171.18  2188.54  2191.81
                             2396.96  2484.24  2499.16  2529.98  4424.49
                             4539.22  4568.73  4626.37  4651.48  5067.63

 Zero-point correction=                           0.122808 (Hartree/Particle)
 Thermal correction to Energy=                    0.132783
 Thermal correction to Enthalpy=                  0.133727
 Thermal correction to Gibbs Free Energy=         0.086061
 Sum of electronic and zero-point Energies=           -571.102980
 Sum of electronic and thermal Energies=              -571.093006
 Sum of electronic and thermal Enthalpies=            -571.092061
 Sum of electronic and thermal Free Energies=         -571.139727

                     E (Thermal)             CV                S
                      KCal/Mol        Cal/Mol-Kelvin    Cal/Mol-Kelvin
 Total                   83.322             36.327            100.321
 Electronic               0.000              0.000              0.000
 Translational            0.889              2.981             41.006
 Rotational               0.889              2.981             30.006
 Vibrational             81.545             30.366             29.310
 Vibration     1          0.593              1.986              7.307
 Vibration     2          0.602              1.955              3.606
 Vibration     3          0.610              1.929              3.031
 Vibration     4          0.639              1.837              2.115
 Vibration     5          0.652              1.795              1.880
 Vibration     6          0.675              1.727              1.591
 Vibration     7          0.689              1.684              1.449
 Vibration     8          0.716              1.605              1.235
 Vibration     9          0.732              1.562              1.138
 Vibration    10          0.775              1.446              0.923
 Vibration    11          0.821              1.332              0.757
 Vibration    12          0.840              1.286              0.700
 Vibration    13          0.884              1.185              0.589
 Vibration    14          0.945              1.058              0.471
 Vibration    15          0.966              1.017              0.438

                           ! Non-Optimized Parameters !
 Normal termination of Gaussian 16 at Tue Dec  8 19:47:37 2020.

 ----------------------------------------------------------------------
 # B3LYP/6-311++G(d,p) empiricaldispersion=gd3bj scf=xqc pop=npa geom=c
 heck
 ----------------------------------------------------------------------

 ---------------------------------------
 CID_126640592_JID_1352_Energie_neutraal
 ---------------------------------------
 Structure from the checkpoint file:  "JID_1352.chk"
 Charge =  0 Multiplicity = 1

 SCF Done:  E(RB3LYP) =  -571.400016383     A.U. after   16 cycles
 Normal termination of Gaussian 16 at Tue Dec  8 19:49:56 2020.

 ----------------------------------------------------------------------
 # B3LYP/6-311++G(d,p) empiricaldispersion=gd3bj scf=xqc pop=npa geom=c
 heck
 ----------------------------------------------------------------------

 -------------------------------------
 CID_126640592_JID_1352_Energie_kation
 -------------------------------------
 Structure from the checkpoint file:  "JID_1352.chk"
 Charge =  1 Multiplicity = 2

 SCF Done:  E(UB3LYP) =  -571.079164809     A.U. after   23 cycles
 Normal termination of Gaussian 16 at Tue Dec  8 19:53:40 2020.
 Gaussian 16:  ES64L-G16RevA.03 25-Dec-2016

 ----------------------------------------------------------------------
 # B3LYP/6-311++G(d,p) empiricaldispersion=gd3bj scf=xqc pop=npa geom=c
 heck
 ----------------------------------------------------------------------

 ------------------------------------
 CID_126640592_JID_1352_Energie_anion
 ------------------------------------
 Structure from the checkpoint file:  "JID_1352.chk"
 Charge = -1 Multiplicity = 2

                         Standard orientation:
 ---------------------------------------------------------------------
 Center     Atomic      Atomic             Coordinates (Angstroms)
 Number     Number       Type             X           Y           Z
 ---------------------------------------------------------------------
      1          6           0       -2.754464   -1.073773    0.004981
      2          8           0       -2.053019    0.174760   -0.003110
      3          6           0       -0.710362    0.199537   -0.001713
      4          6           0        0.170095   -0.841004   -0.001614
      5          6           0        1.628852   -0.606785    0.000482
      6          8           0        2.370306   -1.593303    0.001184
      7          6           0        2.148677    0.773163    0.001910
      8          6           0        1.294234    1.803357    0.001010
      9          6           0       -0.182525    1.597594   -0.000920
     10          8           0       -0.933480    2.560899   -0.000760
     11          8           0       -0.166642   -2.154857   -0.003432
     12          1           0       -3.810533   -0.800977    0.005676
     13          1           0       -2.515171   -1.653537    0.899830
     14          1           0       -2.518765   -1.663462   -0.884240
     15          1           0        3.228026    0.885592    0.003465
     16          1           0        1.612298    2.840993    0.001745
     17          1           0        0.699792   -2.621139   -0.002350
 ---------------------------------------------------------------------

 SCF Done:  E(UB3LYP) =  -571.467926120     A.U. after   20 cycles

 The electronic state is 2-A.
 Alpha  occ. eigenvalues --  -19.01467 -19.00598 -18.93693 -18.92377 -10.10034
 Alpha  occ. eigenvalues --  -10.07726 -10.07719 -10.07539 -10.07525 -10.01743
 Alpha  occ. eigenvalues --  -10.01580  -0.93924  -0.92203  -0.86719  -0.86328
 Alpha  occ. eigenvalues --   -0.66974  -0.61779  -0.57300  -0.51098  -0.45564
 Alpha  occ. eigenvalues --   -0.45125  -0.38152  -0.37355  -0.35524  -0.34416
 Alpha  occ. eigenvalues --   -0.31344  -0.30401  -0.28528  -0.27902  -0.25354
 Alpha  occ. eigenvalues --   -0.24845  -0.24555  -0.22323  -0.22207  -0.19834
 Alpha  occ. eigenvalues --   -0.19452  -0.13553  -0.11023  -0.08768  -0.07119
 Alpha  occ. eigenvalues --    0.00353
 Alpha virt. eigenvalues --    0.08889   0.10865   0.11542   0.12878   0.12957
 Alpha virt. eigenvalues --    0.13664   0.14697   0.15488   0.17435   0.17972
 Alpha virt. eigenvalues --    0.18681   0.19321   0.19438   0.19755   0.20831

  Beta  occ. eigenvalues --  -19.01426 -19.00593 -18.93085 -18.91715 -10.10037
  Beta  occ. eigenvalues --  -10.07640 -10.07524 -10.07482 -10.07414 -10.01631
  Beta  occ. eigenvalues --  -10.01372  -0.93816  -0.92069  -0.85740  -0.85228
  Beta  occ. eigenvalues --   -0.66425  -0.61554  -0.57172  -0.50071  -0.45254
  Beta  occ. eigenvalues --   -0.44797  -0.37974  -0.37109  -0.35260  -0.34262
  Beta  occ. eigenvalues --   -0.31084  -0.30175  -0.27560  -0.27541  -0.24927
  Beta  occ. eigenvalues --   -0.24350  -0.22982  -0.22105  -0.20546  -0.19321
  Beta  occ. eigenvalues --   -0.18471  -0.10937  -0.10475  -0.08130  -0.06345
  Beta virt. eigenvalues --    0.07523   0.08886   0.10866   0.11546   0.12931
  Beta virt. eigenvalues --    0.12974   0.13681   0.14713   0.16819   0.17998
  Beta virt. eigenvalues --    0.18722   0.18809   0.19391   0.19801   0.20427

 Mulliken charges and spin densities:
               1          2
     1  C   -0.303469  -0.002197
     2  O   -0.197379   0.006515
     3  C    0.328840   0.112049
     4  C    0.098857   0.015017
     5  C   -0.460796   0.145115
     6  O   -0.459893   0.209322
     7  C    0.110349   0.083895
     8  C    0.329205   0.179601
     9  C   -0.758968   0.029061
    10  O   -0.382094   0.237240
    11  O   -0.295309   0.005271
    12  H    0.137616  -0.000311
    13  H    0.157425   0.002597
    14  H    0.157828   0.002503
    15  H    0.135233  -0.008005
    16  H    0.136072  -0.013939
    17  H    0.266482  -0.003734
 Sum of Mulliken charges =  -1.00000   1.00000

 Dipole moment (field-independent basis, Debye):
    X=             -2.1317    Y=             -2.9090    Z=              0.0094  Tot=              3.6064
 Quadrupole moment (field-independent basis, Debye-Ang):
   XX=            -82.8856   YY=            -88.7975   ZZ=            -67.7259
   XY=             14.8007   XZ=             -0.0333   YZ=              0.0032

 Summary of Natural Population Analysis:

                                       Natural Population
                Natural  -----------------------------------------------
    Atom  No    Charge         Core      Valence    Rydberg      Total
 -----------------------------------------------------------------------
      C    1   -0.09824      0.99961     2.09033    0.00829     3.09824
      O    2   -0.26361      0.99985     3.25231    0.01145     4.26361
      C    3    0.12302      0.99936     1.86468    0.01294     2.87698
      C    4    0.08733      0.99938     1.90058    0.01271     2.91267
      C    5    0.25079      0.99961     1.73015    0.01946     2.74921
      O    6   -0.25782      0.99988     3.25007    0.00787     4.25782
      C    7   -0.10786      0.99952     2.09874    0.00959     3.10786
      C    8   -0.06724      0.99953     2.05809    0.00963     3.06724
      C    9    0.23408      0.99963     1.74561    0.02069     2.76592
      O   10   -0.21167      0.99988     3.20426    0.00753     4.21167
      O   11   -0.36362      0.99988     3.35614    0.00760     4.36362
      H   12    0.08103      0.00000     0.41806    0.00091     0.41897
      H   13    0.08519      0.00000     0.41352    0.00129     0.41481
      H   14    0.08531      0.00000     0.41341    0.00129     0.41469
      H   15    0.09091      0.00000     0.40672    0.00238     0.40909
      H   16    0.08969      0.00000     0.40793    0.00237     0.41031
      H   17    0.24271      0.00000     0.25374    0.00355     0.25729
 =======================================================================
   * Total *    0.00000     10.99612    28.86433    0.13955    40.00000

 Normal termination of Gaussian 16 at Tue Dec  8 19:56:04 2020.
