 Gaussian 16, Revision A.03,

 -----------------------------------------------------------
 # opt freq B3LYP/6-31G(d) empiricaldispersion=gd3bj scf=xqc
 -----------------------------------------------------------

 ------------------------------
 CID_67423411_JID_3185_neutraal
 ------------------------------
 Symbolic Z-matrix:
 Charge =  0 Multiplicity = 1

 SCF Done:  E(RB3LYP) =  -1585.31203639     A.U. after   14 cycles
 SCF Done:  E(RB3LYP) =  -1585.31119390     A.U. after   13 cycles
 SCF Done:  E(RB3LYP) =  -1585.31645030     A.U. after   12 cycles
 SCF Done:  E(RB3LYP) =  -1585.31388534     A.U. after   14 cycles
 SCF Done:  E(RB3LYP) =  -1585.31711541     A.U. after   12 cycles
 SCF Done:  E(RB3LYP) =  -1585.31640755     A.U. after   12 cycles
 SCF Done:  E(RB3LYP) =  -1585.31726351     A.U. after   13 cycles
 SCF Done:  E(RB3LYP) =  -1585.31740243     A.U. after   12 cycles
 SCF Done:  E(RB3LYP) =  -1585.31760008     A.U. after   12 cycles
 SCF Done:  E(RB3LYP) =  -1585.31765282     A.U. after   12 cycles
 SCF Done:  E(RB3LYP) =  -1585.31768045     A.U. after    9 cycles
 SCF Done:  E(RB3LYP) =  -1585.31768102     A.U. after    8 cycles
 SCF Done:  E(RB3LYP) =  -1585.31768132     A.U. after    8 cycles
 SCF Done:  E(RB3LYP) =  -1585.31768140     A.U. after    7 cycles
 SCF Done:  E(RB3LYP) =  -1585.31768144     A.U. after    7 cycles
 Optimization completed.
    -- Stationary point found.
 Normal termination of Gaussian 16 at Wed Dec  9 22:33:46 2020.

 --------------------------------------------------------------------
 #N Geom=AllCheck Guess=TCheck SCRF=Check GenChk RB3LYP/6-31G(d) Freq
 --------------------------------------------------------------------

 Structure from the checkpoint file:  "JID_3185.chk"
 ------------------------------
 CID_67423411_JID_3185_neutraal
 ------------------------------
 Charge =  0 Multiplicity = 1

 SCF Done:  E(RB3LYP) =  -1585.31768144     A.U. after    1 cycles

  Exact polarizability: 171.392 -15.642 137.581   6.354   4.463 141.989
 Approx polarizability: 257.329 -31.419 205.243  17.517  13.194 244.640

                      1                      2                      3
                      A                      A                      A
 Frequencies --     37.8741                65.7395                66.3039
 Red. masses --      4.5172                 4.2236                 3.6153
 Frc consts  --      0.0038                 0.0108                 0.0094
 IR Inten    --      0.8341                 0.2531                 0.1571

                      4                      5                      6
                      A                      A                      A
 Frequencies --     74.6953                83.8269               109.7858
 Red. masses --      5.3501                 3.6569                 2.5723
 Frc consts  --      0.0176                 0.0151                 0.0183
 IR Inten    --      0.1992                 0.8650                 0.3057

                      7                      8                      9
                      A                      A                      A
 Frequencies --    135.2379               158.9876               168.7619
 Red. masses --      7.3137                 2.7551                 2.0456
 Frc consts  --      0.0788                 0.0410                 0.0343
 IR Inten    --      0.7356                 1.6297                 1.6670

                     10                     11                     12
                      A                      A                      A
 Frequencies --    221.9977               239.5243               261.0226
 Red. masses --      2.0365                 3.3346                 1.5163
 Frc consts  --      0.0591                 0.1127                 0.0609
 IR Inten    --      0.7142                 0.2459                 1.5597

                     13                     14                     15
                      A                      A                      A
 Frequencies --    279.1986               281.1872               327.0644
 Red. masses --      2.9487                 1.5438                 3.7437
 Frc consts  --      0.1354                 0.0719                 0.2359
 IR Inten    --      0.3841                 0.7784                 0.3533

                     16                     17                     18
                      A                      A                      A
 Frequencies --    352.7925               375.0968               431.7644
 Red. masses --      3.6456                 3.0084                 4.2892
 Frc consts  --      0.2673                 0.2494                 0.4711
 IR Inten    --      0.7173                 0.6282                 0.7238

                     19                     20                     21
                      A                      A                      A
 Frequencies --    526.7232               575.5783               597.3833
 Red. masses --      4.1648                 3.5752                 4.4567
 Frc consts  --      0.6808                 0.6978                 0.9371
 IR Inten    --      4.8509                 1.3112                 1.7488

                     22                     23                     24
                      A                      A                      A
 Frequencies --    634.8823               646.4725               654.4230
 Red. masses --      4.8689                 4.5206                 5.6912
 Frc consts  --      1.1563                 1.1131                 1.4361
 IR Inten    --      8.2057                 2.4421                 3.0647

                     25                     26                     27
                      A                      A                      A
 Frequencies --    706.4839               720.3056               750.7151
 Red. masses --      1.2871                 4.0385                 5.2386
 Frc consts  --      0.3785                 1.2345                 1.7395
 IR Inten    --     32.6965                42.8098                 0.1823

                     28                     29                     30
                      A                      A                      A
 Frequencies --    761.7180               775.7089               793.2930
 Red. masses --      1.5167                 1.1921                 2.5829
 Frc consts  --      0.5185                 0.4226                 0.9577
 IR Inten    --      2.7155                 4.1806                15.6190

                     31                     32                     33
                      A                      A                      A
 Frequencies --    841.5996               861.8008               907.5607
 Red. masses --      1.3709                 3.5054                 1.3568
 Frc consts  --      0.5721                 1.5339                 0.6584
 IR Inten    --      4.6016                11.1889                 1.3514

                     34                     35                     36
                      A                      A                      A
 Frequencies --    915.0534               994.1755               996.5579
 Red. masses --      1.9162                 1.8753                 1.8952
 Frc consts  --      0.9453                 1.0921                 1.1090
 IR Inten    --      7.9611                 4.7115                 5.1319

                     37                     38                     39
                      A                      A                      A
 Frequencies --   1022.4394              1066.6564              1073.3011
 Red. masses --      2.8944                 1.3572                 1.6479
 Frc consts  --      1.7827                 0.9098                 1.1184
 IR Inten    --      1.3860                 4.0643                 3.5737

                     40                     41                     42
                      A                      A                      A
 Frequencies --   1074.2087              1084.2221              1090.5195
 Red. masses --      1.5710                 1.8403                 1.7786
 Frc consts  --      1.0681                 1.2746                 1.2462
 IR Inten    --      1.5138                 1.8531                 6.1923

                     43                     44                     45
                      A                      A                      A
 Frequencies --   1116.6849              1179.9987              1207.5531
 Red. masses --      1.1813                 2.1660                 1.3472
 Frc consts  --      0.8679                 1.7769                 1.1574
 IR Inten    --      0.6137                 4.3056                18.6939

                     46                     47                     48
                      A                      A                      A
 Frequencies --   1240.5430              1278.2041              1295.4507
 Red. masses --      1.3506                 1.3464                 1.1847
 Frc consts  --      1.2246                 1.2961                 1.1714
 IR Inten    --      3.4672                 5.7892                 6.3436

                     49                     50                     51
                      A                      A                      A
 Frequencies --   1297.5284              1309.6605              1327.8826
 Red. masses --      1.1925                 1.2381                 1.2853
 Frc consts  --      1.1829                 1.2512                 1.3353
 IR Inten    --      1.2364                 6.4567                19.1277

                     52                     53                     54
                      A                      A                      A
 Frequencies --   1332.6406              1356.3923              1414.3701
 Red. masses --      1.2750                 1.3723                 1.9004
 Frc consts  --      1.3341                 1.4876                 2.2398
 IR Inten    --     21.6483                 7.5694                 4.9176

                     55                     56                     57
                      A                      A                      A
 Frequencies --   1437.7190              1440.7523              1485.4119
 Red. masses --      1.2269                 1.2231                 1.1184
 Frc consts  --      1.4942                 1.4958                 1.4539
 IR Inten    --      4.9811                 3.4488                 5.7078

                     58                     59                     60
                      A                      A                      A
 Frequencies --   1500.6025              1503.7361              1506.6687
 Red. masses --      2.9916                 1.2806                 1.0903
 Frc consts  --      3.9690                 1.7062                 1.4582
 IR Inten    --      5.8384                 2.8521                 2.6566

                     61                     62                     63
                      A                      A                      A
 Frequencies --   1520.6006              1522.5729              1528.9002
 Red. masses --      1.0453                 1.0474                 1.0444
 Frc consts  --      1.4240                 1.4306                 1.4384
 IR Inten    --     11.3224                 0.6141                 6.1810

                     64                     65                     66
                      A                      A                      A
 Frequencies --   1532.7465              1596.8371              3051.3729
 Red. masses --      1.0456                 5.2534                 1.0400
 Frc consts  --      1.4473                 7.8924                 5.7054
 IR Inten    --      4.6345                 0.0707                20.3529

                     67                     68                     69
                      A                      A                      A
 Frequencies --   3052.6799              3071.7847              3078.6239
 Red. masses --      1.0370                 1.0611                 1.0672
 Frc consts  --      5.6938                 5.8990                 5.9595
 IR Inten    --     24.0793                10.9990                 9.8198

                     70                     71                     72
                      A                      A                      A
 Frequencies --   3090.0779              3093.4700              3113.1776
 Red. masses --      1.0744                 1.0708                 1.1020
 Frc consts  --      6.0442                 6.0373                 6.2925
 IR Inten    --      3.4401                10.4947                 9.8047

                     73                     74                     75
                      A                      A                      A
 Frequencies --   3116.2042              3119.2916              3130.0488
 Red. masses --      1.0986                 1.0968                 1.1008
 Frc consts  --      6.2855                 6.2876                 6.3544
 IR Inten    --     29.7002                36.4014                18.1065

                     76                     77                     78
                      A                      A                      A
 Frequencies --   3145.2506              3150.4463              3155.1516
 Red. masses --      1.1038                 1.1033                 1.1006
 Frc consts  --      6.4338                 6.4518                 6.4552
 IR Inten    --     25.7943                 5.3058                13.9765

                     79                     80                     81
                      A                      A                      A
 Frequencies --   3217.6724              3231.3006              3270.9732
 Red. masses --      1.0888                 1.0953                 1.0972
 Frc consts  --      6.6415                 6.7381                 6.9165
 IR Inten    --      6.5635                 5.8201                 1.3052

 - Thermochemistry -
 -------------------
 Temperature   298.150 Kelvin.  Pressure   1.00000 Atm.
 Atom     1 has atomic number  6 and mass  12.00000

 Molecular mass:   232.04142 amu.
 Principal axes and moments of inertia in atomic units:
                           1         2         3
     Eigenvalues --  3010.624453773.877434856.22934
           X            0.99918  -0.03729   0.01598
           Y            0.03794   0.99836  -0.04294
           Z           -0.01435   0.04351   0.99895
 This molecule is an asymmetric top.
 Rotational symmetry number  1.
 Warning -- assumption of classical behavior for rotation
           may cause significant error
 Rotational temperatures (Kelvin)      0.02877     0.02295     0.01784
 Rotational constants (GHZ):           0.59946     0.47822     0.37163
 Zero-point vibrational energy     632607.0 (Joules/Mol)
                                  151.19669 (Kcal/Mol)
 Warning -- explicit consideration of  21 degrees of freedom as
           vibrations may cause significant error
 Vibrational temperatures:     54.49    94.58    95.40   107.47   120.61
          (Kelvin)            157.96   194.58   228.75   242.81   319.41
                              344.62   375.55   401.70   404.57   470.57
                              507.59   539.68   621.21   757.84   828.13
                              859.50   913.45   930.13   941.57  1016.47
                             1036.36  1080.11  1095.94  1116.07  1141.37
                             1210.87  1239.94  1305.78  1316.56  1430.40
                             1433.82  1471.06  1534.68  1544.24  1545.55
                             1559.95  1569.01  1606.66  1697.75  1737.40
                             1784.86  1839.05  1863.86  1866.85  1884.31
                             1910.53  1917.37  1951.55  2034.96  2068.56
                             2072.92  2137.18  2159.03  2163.54  2167.76
                             2187.81  2190.64  2199.75  2205.28  2297.49
                             4390.24  4392.13  4419.61  4429.45  4445.93
                             4450.81  4479.17  4483.52  4487.96  4503.44
                             4525.31  4532.79  4539.56  4629.51  4649.12
                             4706.20

 Zero-point correction=                           0.240947 (Hartree/Particle)
 Thermal correction to Energy=                    0.256369
 Thermal correction to Enthalpy=                  0.257314
 Thermal correction to Gibbs Free Energy=         0.197344
 Sum of electronic and zero-point Energies=          -1585.076734
 Sum of electronic and thermal Energies=             -1585.061312
 Sum of electronic and thermal Enthalpies=           -1585.060368
 Sum of electronic and thermal Free Energies=        -1585.120337

                     E (Thermal)             CV                S
                      KCal/Mol        Cal/Mol-Kelvin    Cal/Mol-Kelvin
 Total                  160.874             56.344            126.216
 Electronic               0.000              0.000              0.000
 Translational            0.889              2.981             42.227
 Rotational               0.889              2.981             32.378
 Vibrational            159.097             50.383             51.611
 Vibration     1          0.594              1.982              5.367
 Vibration     2          0.597              1.971              4.277
 Vibration     3          0.598              1.970              4.260
 Vibration     4          0.599              1.966              4.026
 Vibration     5          0.601              1.960              3.799
 Vibration     6          0.606              1.941              3.273
 Vibration     7          0.613              1.918              2.870
 Vibration     8          0.621              1.893              2.562
 Vibration     9          0.625              1.881              2.449
 Vibration    10          0.648              1.808              1.943
 Vibration    11          0.657              1.780              1.806
 Vibration    12          0.669              1.744              1.655
 Vibration    13          0.680              1.712              1.539
 Vibration    14          0.681              1.708              1.526
 Vibration    15          0.711              1.621              1.275
 Vibration    16          0.729              1.570              1.154
 Vibration    17          0.746              1.523              1.059
 Vibration    18          0.793              1.401              0.853
 Vibration    19          0.882              1.191              0.595
 Vibration    20          0.932              1.084              0.494
 Vibration    21          0.955              1.037              0.454

 Optimization completed.
    -- Stationary point found.
 Normal termination of Gaussian 16 at Wed Dec  9 22:42:53 2020.

 ----------------------------------------------------------------------
 # B3LYP/6-311++G(d,p) empiricaldispersion=gd3bj scf=xqc pop=npa geom=c
 heck
 ----------------------------------------------------------------------

 --------------------------------------
 CID_67423411_JID_3185_Energie_neutraal
 --------------------------------------
 Structure from the checkpoint file:  "JID_3185.chk"
 Charge =  0 Multiplicity = 1

 SCF Done:  E(RB3LYP) =  -1585.50604415     A.U. after   15 cycles
 Normal termination of Gaussian 16 at Wed Dec  9 22:47:48 2020.

 ----------------------------------------------------------------------
 # B3LYP/6-311++G(d,p) empiricaldispersion=gd3bj scf=xqc pop=npa geom=c
 heck
 ----------------------------------------------------------------------

 ------------------------------------
 CID_67423411_JID_3185_Energie_kation
 ------------------------------------
 Structure from the checkpoint file:  "JID_3185.chk"
 Charge =  1 Multiplicity = 2

 SCF Done:  E(UB3LYP) =  -1585.22190424     A.U. after   24 cycles
 Normal termination of Gaussian 16 at Wed Dec  9 22:59:09 2020.
 Gaussian 16:  ES64L-G16RevA.03 25-Dec-2016

 ----------------------------------------------------------------------
 # B3LYP/6-311++G(d,p) empiricaldispersion=gd3bj scf=xqc pop=npa geom=c
 heck
 ----------------------------------------------------------------------

 -----------------------------------
 CID_67423411_JID_3185_Energie_anion
 -----------------------------------
 Structure from the checkpoint file:  "JID_3185.chk"
 Charge = -1 Multiplicity = 2

                         Standard orientation:
 ---------------------------------------------------------------------
 Center     Atomic      Atomic             Coordinates (Angstroms)
 Number     Number       Type             X           Y           Z
 ---------------------------------------------------------------------
      1          6           0       -2.076511   -1.688718    1.863264
      2          6           0       -2.402497   -1.390122    0.403823
      3         16           0       -1.303911   -2.220059   -0.817348
      4          6           0        0.360199   -1.552397   -0.433450
      5          6           0        0.671587   -0.202529   -1.097821
      6          6           0       -0.223270    0.918858   -0.668385
      7          6           0       -1.213568    1.492159   -1.423441
      8          6           0       -1.982780    2.465963   -0.715249
      9          6           0       -1.564434    2.625442    0.576040
     10         16           0       -0.211825    1.599787    0.942162
     11         16           0        2.494045    0.218540   -1.027825
     12          6           0        3.162629   -0.616247    0.468506
     13          6           0        2.775769   -0.016282    1.816884
     14          1           0       -2.067415   -2.766024    2.055632
     15          1           0       -2.826272   -1.223731    2.514797
     16          1           0       -1.103569   -1.277350    2.149586
     17          1           0       -3.392472   -1.782173    0.146293
     18          1           0       -2.417387   -0.315978    0.210821
     19          1           0        0.487499   -1.504080    0.649863
     20          1           0        1.053271   -2.307549   -0.814139
     21          1           0        0.504306   -0.328527   -2.171374
     22          1           0       -1.399962    1.201406   -2.451381
     23          1           0       -2.804558    3.022766   -1.151619
     24          1           0       -1.947113    3.301700    1.328264
     25          1           0        2.933400   -1.685003    0.428933
     26          1           0        4.243371   -0.524584    0.313745
     27          1           0        1.714562   -0.162540    2.038756
     28          1           0        3.350997   -0.496172    2.618601
     29          1           0        2.975655    1.058788    1.840377
 ---------------------------------------------------------------------

 SCF Done:  E(UB3LYP) =  -1585.49284404     A.U. after   33 cycles
 SCF Done:  E(UB3LYP) =  -1585.49284404     a.u. after    1 cycles

 The electronic state is 2-A.
 Alpha  occ. eigenvalues --  -88.76639 -88.74081 -88.73603 -10.12018 -10.10724
 Alpha  occ. eigenvalues --  -10.09975 -10.09974 -10.09623 -10.09015 -10.07298
 Alpha  occ. eigenvalues --  -10.07029 -10.06863 -10.06404  -7.85291  -7.82683
 Alpha  occ. eigenvalues --   -7.82207  -5.81574  -5.81209  -5.80893  -5.79086
 Alpha  occ. eigenvalues --   -5.78707  -5.78620  -5.78232  -5.78053  -5.77564
 Alpha  occ. eigenvalues --   -0.78145  -0.73182  -0.70070  -0.67522  -0.63279
 Alpha  occ. eigenvalues --   -0.63067  -0.60693  -0.57091  -0.53756  -0.48973
 Alpha  occ. eigenvalues --   -0.48284  -0.45424  -0.43111  -0.40738  -0.37227
 Alpha  occ. eigenvalues --   -0.36664  -0.35509  -0.33988  -0.32457  -0.31734
 Alpha  occ. eigenvalues --   -0.31032  -0.30152  -0.29733  -0.28705  -0.27975
 Alpha  occ. eigenvalues --   -0.27393  -0.26860  -0.26540  -0.25063  -0.23632
 Alpha  occ. eigenvalues --   -0.23438  -0.21534  -0.19918  -0.15389  -0.14205
 Alpha  occ. eigenvalues --   -0.12887  -0.11946   0.04496
 Alpha virt. eigenvalues --    0.06209   0.06791   0.07366   0.07765   0.08620
 Alpha virt. eigenvalues --    0.08876   0.08992   0.09719   0.10598   0.10964
 Alpha virt. eigenvalues --    0.11152   0.11978   0.12349   0.12610   0.13457

  Beta  occ. eigenvalues --  -88.76618 -88.74079 -88.73594 -10.12020 -10.10687
  Beta  occ. eigenvalues --  -10.09971 -10.09940 -10.09526 -10.08899 -10.07292
  Beta  occ. eigenvalues --  -10.07008 -10.06843 -10.06371  -7.85270  -7.82682
  Beta  occ. eigenvalues --   -7.82198  -5.81564  -5.81199  -5.80827  -5.79085
  Beta  occ. eigenvalues --   -5.78704  -5.78613  -5.78208  -5.78051  -5.77559
  Beta  occ. eigenvalues --   -0.78022  -0.73120  -0.70033  -0.67459  -0.63183
  Beta  occ. eigenvalues --   -0.62965  -0.60593  -0.57032  -0.53674  -0.48887
  Beta  occ. eigenvalues --   -0.48198  -0.45329  -0.42990  -0.40667  -0.37187
  Beta  occ. eigenvalues --   -0.36618  -0.35467  -0.33929  -0.32414  -0.31655
  Beta  occ. eigenvalues --   -0.30957  -0.30115  -0.29680  -0.28624  -0.27908
  Beta  occ. eigenvalues --   -0.27325  -0.26795  -0.26339  -0.25029  -0.23553
  Beta  occ. eigenvalues --   -0.23379  -0.21494  -0.19853  -0.15130  -0.13894
  Beta  occ. eigenvalues --   -0.12792  -0.11739
  Beta virt. eigenvalues --    0.06671   0.07147   0.07618   0.07772   0.08164
  Beta virt. eigenvalues --    0.08931   0.09245   0.09390   0.10033   0.10847
  Beta virt. eigenvalues --    0.11194   0.11333   0.12009   0.12555   0.12749

 Mulliken charges and spin densities:
               1          2
     1  C    0.188256  -0.779955
     2  C   -0.688761   0.355834
     3  S    0.312917  -0.280844
     4  C    0.382069  -0.786982
     5  C    0.610108  -0.235705
     6  C   -0.472379   0.279403
     7  C   -0.802102   0.515235
     8  C    0.412821  -0.830802
     9  C   -0.080801  -0.081091
    10  S    0.071160  -0.021636
    11  S    0.119087  -0.112013
    12  C   -0.295546  -0.096611
    13  C    0.439271  -0.926984
    14  H    0.006454   0.120919
    15  H   -0.245631   0.377216
    16  H   -0.133441   0.279697
    17  H    0.011868   0.194940
    18  H    0.366871  -0.199990
    19  H    0.275118  -0.095585
    20  H   -0.070285   0.298035
    21  H    0.266173   0.030555
    22  H    0.017436   0.128729
    23  H   -0.184918   0.330355
    24  H   -0.541629   0.784995
    25  H   -0.087397   0.236363
    26  H   -0.394857   0.620506
    27  H   -0.003806   0.137192
    28  H   -0.564858   0.719993
    29  H    0.086800   0.038232
 Sum of Mulliken charges =  -1.00000   1.00000

 Dipole moment (field-independent basis, Debye):
    X=             -2.2077    Y=             -0.0599    Z=             -3.3978  Tot=              4.0525
 Quadrupole moment (field-independent basis, Debye-Ang):
   XX=           -164.5909   YY=           -151.5328   ZZ=           -142.2074
   XY=              9.8471   XZ=             -1.8478   YZ=              2.0153

 Summary of Natural Population Analysis:

                                       Natural Population
                Natural  -----------------------------------------------
    Atom  No    Charge         Core      Valence    Rydberg      Total
 -----------------------------------------------------------------------
      C    1   -0.29131      0.99965     2.28539    0.00627     3.29131
      C    2   -0.25241      0.99960     2.24280    0.01002     3.25241
      S    3    0.08665      4.99962     2.89744    0.01628     7.91335
      C    4   -0.25720      0.99953     2.24512    0.01254     3.25720
      C    5   -0.18069      0.99944     2.16550    0.01575     3.18069
      C    6   -0.09407      0.99943     2.07940    0.01523     3.09407
      C    7   -0.12575      0.99945     2.11626    0.01004     3.12575
      C    8   -0.13457      0.99953     2.12396    0.01107     3.13457
      C    9   -0.17604      0.99954     2.16459    0.01191     3.17604
      S   10    0.20949      4.99939     2.76959    0.02153     7.79051
      S   11    0.08975      4.99962     2.89464    0.01599     7.91025
      C   12   -0.25510      0.99960     2.24375    0.01174     3.25510
      C   13   -0.29180      0.99965     2.28521    0.00694     3.29180
      H   14    0.09794      0.00000     0.40061    0.00145     0.40206
      H   15    0.10211      0.00000     0.39654    0.00134     0.39789
      H   16    0.09992      0.00000     0.39848    0.00160     0.40008
      H   17    0.10052      0.00000     0.39849    0.00100     0.39948
      H   18    0.10998      0.00000     0.38761    0.00241     0.39002
      H   19    0.10699      0.00000     0.39080    0.00221     0.39301
      H   20    0.11272      0.00000     0.38590    0.00138     0.38728
      H   21    0.11327      0.00000     0.38462    0.00211     0.38673
      H   22    0.10552      0.00000     0.39322    0.00125     0.39448
      H   23    0.10486      0.00000     0.39421    0.00093     0.39514
      H   24    0.10905      0.00000     0.38970    0.00125     0.39095
      H   25    0.10187      0.00000     0.39640    0.00173     0.39813
      H   26    0.10746      0.00000     0.39106    0.00148     0.39254
      H   27    0.09652      0.00000     0.40130    0.00218     0.40348
      H   28    0.10202      0.00000     0.39604    0.00194     0.39798
      H   29    0.10229      0.00000     0.39649    0.00122     0.39771
 =======================================================================
   * Total *   -0.00000     24.99406    36.81514    0.19080    62.00000

 Normal termination of Gaussian 16 at Wed Dec  9 23:14:40 2020.
