 Gaussian 16, Revision A.03,

 -----------------------------------------------------------
 # opt freq B3LYP/6-31G(d) empiricaldispersion=gd3bj scf=xqc
 -----------------------------------------------------------

 -------------------------------
 CID_116682211_JID_9575_neutraal
 -------------------------------
 Symbolic Z-matrix:
 Charge =  0 Multiplicity = 1

 SCF Done:  E(RB3LYP) =  -879.553557426     A.U. after   15 cycles
 SCF Done:  E(RB3LYP) =  -879.560862573     A.U. after   13 cycles
 SCF Done:  E(RB3LYP) =  -879.561791394     A.U. after   14 cycles
 SCF Done:  E(RB3LYP) =  -879.563411982     A.U. after   12 cycles
 SCF Done:  E(RB3LYP) =  -879.564686206     A.U. after   13 cycles
 SCF Done:  E(RB3LYP) =  -879.564050818     A.U. after   15 cycles
 SCF Done:  E(RB3LYP) =  -879.568518175     A.U. after   13 cycles
 SCF Done:  E(RB3LYP) =  -879.544365183     A.U. after   15 cycles
 SCF Done:  E(RB3LYP) =  -879.567896493     A.U. after   13 cycles
 SCF Done:  E(RB3LYP) =  -879.569057397     A.U. after   10 cycles
 SCF Done:  E(RB3LYP) =  -879.570938894     A.U. after    8 cycles
 SCF Done:  E(RB3LYP) =  -879.570939144     A.U. after    8 cycles
 SCF Done:  E(RB3LYP) =  -879.570939352     A.U. after    8 cycles
 SCF Done:  E(RB3LYP) =  -879.570939430     A.U. after    7 cycles
 Optimization completed.
    -- Stationary point found.
 Normal termination of Gaussian 16 at Sat Dec 12 10:13:31 2020.

 --------------------------------------------------------------------
 #N Geom=AllCheck Guess=TCheck SCRF=Check GenChk RB3LYP/6-31G(d) Freq
 --------------------------------------------------------------------

 Structure from the checkpoint file:  "JID_9575.chk"
 -------------------------------
 CID_116682211_JID_9575_neutraal
 -------------------------------
 Charge =  0 Multiplicity = 1

 SCF Done:  E(RB3LYP) =  -879.570939429     A.U. after    1 cycles

  Exact polarizability: 152.215 -14.911 156.743   1.139  -0.274 151.682
 Approx polarizability: 198.391 -28.967 241.357   3.312 -10.950 281.055

                      1                      2                      3
                      A                      A                      A
 Frequencies --     19.2170                39.1474                57.5405
 Red. masses --      6.8014                 5.5125                 6.3054
 Frc consts  --      0.0015                 0.0050                 0.0123
 IR Inten    --      0.2866                 0.6060                 1.0785

                      4                      5                      6
                      A                      A                      A
 Frequencies --     72.7242                87.1874                98.3686
 Red. masses --      5.7371                 3.8445                 5.2079
 Frc consts  --      0.0179                 0.0172                 0.0297
 IR Inten    --      1.7116                 1.2899                 1.3935

                      7                      8                      9
                      A                      A                      A
 Frequencies --    132.7049               145.3326               174.0956
 Red. masses --      6.9237                 5.8494                 3.8432
 Frc consts  --      0.0718                 0.0728                 0.0686
 IR Inten    --      5.6283                 1.1628                 2.3191

                     10                     11                     12
                      A                      A                      A
 Frequencies --    207.5322               217.5115               226.1864
 Red. masses --      3.7261                 3.8301                 1.0504
 Frc consts  --      0.0946                 0.1068                 0.0317
 IR Inten    --      1.2430                 7.0852                 0.0950

                     13                     14                     15
                      A                      A                      A
 Frequencies --    242.7409               260.7264               270.8023
 Red. masses --      2.7523                 3.3556                 2.9430
 Frc consts  --      0.0956                 0.1344                 0.1272
 IR Inten    --      0.2998                 5.0248                 4.9470

                     16                     17                     18
                      A                      A                      A
 Frequencies --    292.4536               306.8242               362.8155
 Red. masses --      3.4473                 1.3262                 4.5782
 Frc consts  --      0.1737                 0.0736                 0.3551
 IR Inten    --      2.8746                67.2014                 5.8550

                     19                     20                     21
                      A                      A                      A
 Frequencies --    386.4816               414.6487               418.9478
 Red. masses --      3.7062                 3.3403                 2.9913
 Frc consts  --      0.3262                 0.3384                 0.3093
 IR Inten    --      2.1729                 0.7081                 1.7864

                     22                     23                     24
                      A                      A                      A
 Frequencies --    458.7408               482.2981               529.0608
 Red. masses --      5.6191                 3.6450                 4.1428
 Frc consts  --      0.6967                 0.4996                 0.6832
 IR Inten    --      1.4023                 6.3653                11.4394

                     25                     26                     27
                      A                      A                      A
 Frequencies --    568.7579               626.9080               635.6413
 Red. masses --      4.2554                 3.1471                 5.9579
 Frc consts  --      0.8110                 0.7287                 1.4183
 IR Inten    --      2.3954                17.1217                 0.8140

                     28                     29                     30
                      A                      A                      A
 Frequencies --    650.4954               660.8771               665.0883
 Red. masses --      3.3594                 3.7375                 1.3333
 Frc consts  --      0.8375                 0.9618                 0.3475
 IR Inten    --     10.3309                46.8920                86.1811

                     31                     32                     33
                      A                      A                      A
 Frequencies --    713.7479               734.8675               757.3730
 Red. masses --      2.6962                 2.6388                 2.3795
 Frc consts  --      0.8093                 0.8396                 0.8042
 IR Inten    --     23.0351                31.7689                13.2058

                     34                     35                     36
                      A                      A                      A
 Frequencies --    774.6261               798.2221               827.7013
 Red. masses --      2.4506                 4.0211                 2.4726
 Frc consts  --      0.8664                 1.5095                 0.9981
 IR Inten    --     20.8407                37.7589                83.9120

                     37                     38                     39
                      A                      A                      A
 Frequencies --    848.9902               873.5310               894.2600
 Red. masses --      2.3711                 1.2515                 2.8436
 Frc consts  --      1.0069                 0.5627                 1.3398
 IR Inten    --      6.2014                 4.9865                27.3451

                     40                     41                     42
                      A                      A                      A
 Frequencies --    902.3064               919.8623               945.1567
 Red. masses --      1.5110                 2.0133                 1.6303
 Frc consts  --      0.7248                 1.0037                 0.8581
 IR Inten    --     15.4056                85.5477                24.3984

                     43                     44                     45
                      A                      A                      A
 Frequencies --    975.8401               981.3837               999.8001
 Red. masses --      1.6605                 1.3410                 1.2725
 Frc consts  --      0.9316                 0.7609                 0.7495
 IR Inten    --      2.2697                 0.9694                 1.0328

                     46                     47                     48
                      A                      A                      A
 Frequencies --   1009.5469              1021.8774              1029.3969
 Red. masses --      2.6393                 6.0438                 2.0931
 Frc consts  --      1.5849                 3.7184                 1.3068
 IR Inten    --      3.7194                 0.6810                 8.1482

                     49                     50                     51
                      A                      A                      A
 Frequencies --   1054.7045              1064.2805              1103.6958
 Red. masses --      2.0675                 2.1775                 1.8564
 Frc consts  --      1.3550                 1.4532                 1.3324
 IR Inten    --     20.0103                 4.8111                 9.8714

                     52                     53                     54
                      A                      A                      A
 Frequencies --   1105.7633              1122.6929              1139.5339
 Red. masses --      1.9798                 2.4427                 1.5877
 Frc consts  --      1.4262                 1.8140                 1.2147
 IR Inten    --     26.1536                 8.5076                10.6062

                     55                     56                     57
                      A                      A                      A
 Frequencies --   1157.4225              1169.1417              1175.0674
 Red. masses --      1.7357                 1.3937                 1.6535
 Frc consts  --      1.3700                 1.1224                 1.3452
 IR Inten    --      6.6540                11.6358                18.3651

                     58                     59                     60
                      A                      A                      A
 Frequencies --   1193.6299              1194.9366              1214.0546
 Red. masses --      2.5792                 1.1217                 2.2444
 Frc consts  --      2.1651                 0.9437                 1.9491
 IR Inten    --     10.2909                 0.8263                23.6748

                     61                     62                     63
                      A                      A                      A
 Frequencies --   1219.7482              1222.6463              1241.0514
 Red. masses --      1.2585                 1.7325                 1.8041
 Frc consts  --      1.1032                 1.5259                 1.6372
 IR Inten    --      1.6208                 2.0439                68.1570

                     64                     65                     66
                      A                      A                      A
 Frequencies --   1272.6025              1284.5258              1308.8964
 Red. masses --      1.4858                 1.3823                 1.3754
 Frc consts  --      1.4178                 1.3438                 1.3883
 IR Inten    --      5.5829                 9.2779                 0.9356

                     67                     68                     69
                      A                      A                      A
 Frequencies --   1330.2888              1344.2019              1347.6148
 Red. masses --      1.4671                 1.4797                 2.2855
 Frc consts  --      1.5296                 1.5753                 2.4454
 IR Inten    --      2.5019                 3.2394                 2.9546

                     70                     71                     72
                      A                      A                      A
 Frequencies --   1362.8163              1370.5221              1385.2374
 Red. masses --      1.3903                 1.9867                 1.5952
 Frc consts  --      1.5213                 2.1986                 1.8035
 IR Inten    --      3.5742                 5.8833                18.3016

                     73                     74                     75
                      A                      A                      A
 Frequencies --   1408.3301              1425.4677              1444.9119
 Red. masses --      1.8785                 1.3328                 1.2835
 Frc consts  --      2.1952                 1.5957                 1.5787
 IR Inten    --     10.1174                10.3824                 2.4940

                     76                     77                     78
                      A                      A                      A
 Frequencies --   1470.2049              1497.2087              1524.0789
 Red. masses --      6.8939                 2.2697                 1.0472
 Frc consts  --      8.7795                 2.9976                 1.4332
 IR Inten    --    281.2919                29.0495                 2.9085

                     79                     80                     81
                      A                      A                      A
 Frequencies --   1533.3495              1535.2567              1543.2728
 Red. masses --      1.0808                 1.0581                 2.1252
 Frc consts  --      1.4973                 1.4694                 2.9822
 IR Inten    --      4.8813                10.0005                11.8072

                     82                     83                     84
                      A                      A                      A
 Frequencies --   1559.4029              1644.2244              1661.8663
 Red. masses --      1.1069                 5.5154                 5.3737
 Frc consts  --      1.5859                 8.7851                 8.7441
 IR Inten    --      8.3568                 1.6258                 5.5566

                     85                     86                     87
                      A                      A                      A
 Frequencies --   1703.4434              1747.9755              1830.6296
 Red. masses --      1.0976                10.2163                 9.5089
 Frc consts  --      1.8764                18.3914                18.7752
 IR Inten    --     37.1439               259.0874               175.6585

                     88                     89                     90
                      A                      A                      A
 Frequencies --   3059.9159              3060.7499              3074.1465
 Red. masses --      1.0561                 1.0373                 1.0666
 Frc consts  --      5.8258                 5.7256                 5.9386
 IR Inten    --     32.7502                26.7107                31.7618

                     91                     92                     93
                      A                      A                      A
 Frequencies --   3079.6783              3092.0100              3097.9475
 Red. masses --      1.0844                 1.0852                 1.0888
 Frc consts  --      6.0594                 6.1126                 6.1564
 IR Inten    --     10.2479                 7.8455                27.3349

                     94                     95                     96
                      A                      A                      A
 Frequencies --   3112.3090              3125.1756              3142.1171
 Red. masses --      1.1068                 1.1024                 1.1026
 Frc consts  --      6.3166                 6.3436                 6.4136
 IR Inten    --     30.9653                21.1130                17.0112

                     97                     98                     99
                      A                      A                      A
 Frequencies --   3148.9003              3182.9127              3190.3526
 Red. masses --      1.1010                 1.0860                 1.0868
 Frc consts  --      6.4321                 6.4825                 6.5175
 IR Inten    --     17.0514                 6.5207                 1.5755

                    100                    101                    102
                      A                      A                      A
 Frequencies --   3201.4055              3213.4553              3217.0523
 Red. masses --      1.0912                 1.0941                 1.0958
 Frc consts  --      6.5893                 6.6568                 6.6821
 IR Inten    --     22.2776                13.8328                11.6788

                    103                    104                    105
                      A                      A                      A
 Frequencies --   3487.5545              3575.3678              3594.5600
 Red. masses --      1.0499                 1.0918                 1.0645
 Frc consts  --      7.5239                 8.2233                 8.1038
 IR Inten    --      0.7052                 0.4050               226.2060

 - Thermochemistry -
 -------------------
 Temperature   298.150 Kelvin.  Pressure   1.00000 Atm.
 Atom     1 has atomic number  6 and mass  12.00000

 Molecular mass:   262.13174 amu.
 Principal axes and moments of inertia in atomic units:
                           1         2         3
     Eigenvalues --  3472.671184801.185156298.35949
           X            0.99994   0.00825   0.00676
           Y           -0.00846   0.99945   0.03194
           Z           -0.00649  -0.03200   0.99947
 This molecule is an asymmetric top.
 Rotational symmetry number  1.
 Warning -- assumption of classical behavior for rotation
           may cause significant error
 Rotational temperatures (Kelvin)      0.02494     0.01804     0.01375
 Rotational constants (GHZ):           0.51970     0.37589     0.28654
 Zero-point vibrational energy     815199.2 (Joules/Mol)
                                  194.83727 (Kcal/Mol)
 Warning -- explicit consideration of  25 degrees of freedom as
           vibrations may cause significant error
 Vibrational temperatures:     27.65    56.32    82.79   104.63   125.44
          (Kelvin)            141.53   190.93   209.10   250.48   298.59
                              312.95   325.43   349.25   375.13   389.62
                              420.78   441.45   522.01   556.06   596.59
                              602.77   660.03   693.92   761.20   818.32
                              901.98   914.55   935.92   950.85   956.91
                             1026.92  1057.31  1089.69  1114.51  1148.46
                             1190.88  1221.51  1256.82  1286.64  1298.22
                             1323.48  1359.87  1404.02  1411.99  1438.49
                             1452.51  1470.25  1481.07  1517.48  1531.26
                             1587.97  1590.95  1615.30  1639.54  1665.27
                             1682.13  1690.66  1717.37  1719.25  1746.75
                             1754.95  1759.12  1785.60  1830.99  1848.15
                             1883.21  1913.99  1934.01  1938.92  1960.79
                             1971.88  1993.05  2026.27  2050.93  2078.91
                             2115.30  2154.15  2192.81  2206.15  2208.89
                             2220.43  2243.63  2365.67  2391.05  2450.88
                             2514.95  2633.87  4402.54  4403.74  4423.01
                             4430.97  4448.71  4457.26  4477.92  4496.43
                             4520.81  4530.57  4579.50  4590.21  4606.11
                             4623.45  4628.62  5017.81  5144.16  5171.77

 Zero-point correction=                           0.310493 (Hartree/Particle)
 Thermal correction to Energy=                    0.328335
 Thermal correction to Enthalpy=                  0.329280
 Thermal correction to Gibbs Free Energy=         0.263886
 Sum of electronic and zero-point Energies=           -879.260446
 Sum of electronic and thermal Energies=              -879.242604
 Sum of electronic and thermal Enthalpies=            -879.241660
 Sum of electronic and thermal Free Energies=         -879.307053

                     E (Thermal)             CV                S
                      KCal/Mol        Cal/Mol-Kelvin    Cal/Mol-Kelvin
 Total                  206.034             68.239            137.632
 Electronic               0.000              0.000              0.000
 Translational            0.889              2.981             42.591
 Rotational               0.889              2.981             33.018
 Vibrational            204.256             62.277             62.024
 Vibration     1          0.593              1.986              6.714
 Vibration     2          0.594              1.981              5.302
 Vibration     3          0.596              1.974              4.540
 Vibration     4          0.599              1.967              4.078
 Vibration     5          0.601              1.958              3.722
 Vibration     6          0.604              1.950              3.486
 Vibration     7          0.613              1.921              2.906
 Vibration     8          0.617              1.908              2.732
 Vibration     9          0.627              1.874              2.391
 Vibration    10          0.641              1.829              2.065
 Vibration    11          0.646              1.814              1.980
 Vibration    12          0.650              1.801              1.909
 Vibration    13          0.659              1.775              1.783
 Vibration    14          0.669              1.745              1.657
 Vibration    15          0.674              1.727              1.591
 Vibration    16          0.688              1.688              1.460
 Vibration    17          0.697              1.661              1.379
 Vibration    18          0.737              1.549              1.110
 Vibration    19          0.755              1.499              1.014
 Vibration    20          0.778              1.438              0.910
 Vibration    21          0.782              1.429              0.896
 Vibration    22          0.817              1.342              0.770
 Vibration    23          0.839              1.289              0.704
 Vibration    24          0.884              1.186              0.589
 Vibration    25          0.925              1.099              0.507

                           ! Non-Optimized Parameters !
 Normal termination of Gaussian 16 at Sat Dec 12 10:34:15 2020.

 ----------------------------------------------------------------------
 # B3LYP/6-311++G(d,p) empiricaldispersion=gd3bj scf=xqc pop=npa geom=c
 heck
 ----------------------------------------------------------------------

 ---------------------------------------
 CID_116682211_JID_9575_Energie_neutraal
 ---------------------------------------
 Structure from the checkpoint file:  "JID_9575.chk"
 Charge =  0 Multiplicity = 1

 SCF Done:  E(RB3LYP) =  -879.828103795     A.U. after   16 cycles
 Normal termination of Gaussian 16 at Sat Dec 12 10:42:12 2020.

 ----------------------------------------------------------------------
 # B3LYP/6-311++G(d,p) empiricaldispersion=gd3bj scf=xqc pop=npa geom=c
 heck
 ----------------------------------------------------------------------

 -------------------------------------
 CID_116682211_JID_9575_Energie_kation
 -------------------------------------
 Structure from the checkpoint file:  "JID_9575.chk"
 Charge =  1 Multiplicity = 2

 SCF Done:  E(UB3LYP) =  -879.521982343     A.U. after   33 cycles
 SCF Done:  E(UB3LYP) =  -879.521982343     a.u. after    1 cycles
 Normal termination of Gaussian 16 at Sat Dec 12 11:04:18 2020.
 Gaussian 16:  ES64L-G16RevA.03 25-Dec-2016

 ----------------------------------------------------------------------
 # B3LYP/6-311++G(d,p) empiricaldispersion=gd3bj scf=xqc pop=npa geom=c
 heck
 ----------------------------------------------------------------------

 ------------------------------------
 CID_116682211_JID_9575_Energie_anion
 ------------------------------------
 Structure from the checkpoint file:  "JID_9575.chk"
 Charge = -1 Multiplicity = 2

                         Standard orientation:
 ---------------------------------------------------------------------
 Center     Atomic      Atomic             Coordinates (Angstroms)
 Number     Number       Type             X           Y           Z
 ---------------------------------------------------------------------
      1          6           0        3.693936    1.536850    0.453146
      2          6           0        2.625419    1.072616   -0.545083
      3          6           0        2.584462   -0.467586   -0.655910
      4          6           0        2.247519   -1.271351    0.635482
      5          7           0        1.001372   -1.709503   -0.000674
      6          6           0        1.299337   -1.074000   -1.294475
      7          6           0       -0.138528   -1.983015    0.681252
      8          8           0       -0.117096   -2.201585    1.890316
      9          6           0       -1.473162   -1.917312   -0.080514
     10          6           0       -1.981425   -0.467971    0.010713
     11          6           0       -2.078557    0.148846    1.268979
     12          6           0       -2.505114    1.472406    1.379224
     13          6           0       -2.841105    2.202962    0.233619
     14          6           0       -2.755682    1.593784   -1.014669
     15          6           0       -2.332584    0.266792   -1.122217
     16          7           0       -1.395846   -2.522797   -1.408619
     17          6           0        1.245380    1.635069   -0.241178
     18          8           0        0.528713    2.159082   -1.067358
     19          8           0        0.867932    1.439231    1.040449
     20          1           0        3.468986    1.187702    1.464294
     21          1           0        3.759073    2.629257    0.479935
     22          1           0        4.675352    1.146052    0.162720
     23          1           0        2.862485    1.463012   -1.540318
     24          1           0        3.508654   -0.795592   -1.139661
     25          1           0        2.935734   -2.093495    0.858045
     26          1           0        2.066396   -0.691759    1.543089
     27          1           0        0.557897   -0.342178   -1.630387
     28          1           0        1.481501   -1.802571   -2.091877
     29          1           0       -2.139856   -2.548349    0.514502
     30          1           0       -1.797548   -0.414154    2.153512
     31          1           0       -2.584667    1.931285    2.361572
     32          1           0       -3.165620    3.235819    0.318486
     33          1           0       -3.005882    2.151651   -1.912016
     34          1           0       -2.274668   -0.193779   -2.103804
     35          1           0       -2.336416   -2.687636   -1.761344
     36          1           0       -0.947517   -1.899706   -2.075109
     37          1           0       -0.078346    1.688179    1.105929
 ---------------------------------------------------------------------

 SCF Done:  E(UB3LYP) =  -879.818758309     A.U. after   33 cycles
 SCF Done:  E(UB3LYP) =  -879.818758309     a.u. after    1 cycles

 The electronic state is 2-A.
 Alpha  occ. eigenvalues --  -19.07956 -19.02330 -18.99332 -14.24556 -14.21317
 Alpha  occ. eigenvalues --  -10.21380 -10.17579 -10.12731 -10.11951 -10.11184
 Alpha  occ. eigenvalues --  -10.10445 -10.10200 -10.10128 -10.09461 -10.09207
 Alpha  occ. eigenvalues --  -10.09024 -10.08901 -10.08859 -10.08080  -1.01994
 Alpha  occ. eigenvalues --   -0.94668  -0.92997  -0.86506  -0.81336  -0.77107
 Alpha  occ. eigenvalues --   -0.72781  -0.68044  -0.66435  -0.66142  -0.61294
 Alpha  occ. eigenvalues --   -0.59587  -0.57937  -0.54149  -0.52326  -0.50678
 Alpha  occ. eigenvalues --   -0.48321  -0.45884  -0.44017  -0.42376  -0.41923
 Alpha  occ. eigenvalues --   -0.39959  -0.39560  -0.38440  -0.37952  -0.36486
 Alpha  occ. eigenvalues --   -0.36074  -0.35622  -0.35008  -0.34601  -0.33836
 Alpha  occ. eigenvalues --   -0.33215  -0.32213  -0.31433  -0.30425  -0.29565
 Alpha  occ. eigenvalues --   -0.29062  -0.28440  -0.27743  -0.26967  -0.26158
 Alpha  occ. eigenvalues --   -0.25608  -0.25218  -0.23984  -0.23375  -0.18834
 Alpha  occ. eigenvalues --   -0.18484  -0.17454  -0.16765  -0.15477  -0.14878
 Alpha  occ. eigenvalues --    0.03917
 Alpha virt. eigenvalues --    0.05599   0.06066   0.06281   0.06501   0.07404
 Alpha virt. eigenvalues --    0.07668   0.08401   0.08814   0.09014   0.09343
 Alpha virt. eigenvalues --    0.09762   0.10981   0.11001   0.11314   0.11658

  Beta  occ. eigenvalues --  -19.07950 -19.02321 -18.99326 -14.24558 -14.21289
  Beta  occ. eigenvalues --  -10.21373 -10.17578 -10.12724 -10.11922 -10.11175
  Beta  occ. eigenvalues --  -10.10434 -10.10176 -10.10131 -10.09450 -10.09201
  Beta  occ. eigenvalues --  -10.09005 -10.08873 -10.08837 -10.08055  -1.01978
  Beta  occ. eigenvalues --   -0.94659  -0.92983  -0.86493  -0.81294  -0.77071
  Beta  occ. eigenvalues --   -0.72750  -0.68009  -0.66385  -0.66116  -0.61253
  Beta  occ. eigenvalues --   -0.59544  -0.57888  -0.54115  -0.52265  -0.50652
  Beta  occ. eigenvalues --   -0.48280  -0.45840  -0.43978  -0.42325  -0.41898
  Beta  occ. eigenvalues --   -0.39936  -0.39522  -0.38412  -0.37914  -0.36460
  Beta  occ. eigenvalues --   -0.36046  -0.35596  -0.34983  -0.34568  -0.33805
  Beta  occ. eigenvalues --   -0.33186  -0.32185  -0.31406  -0.30398  -0.29526
  Beta  occ. eigenvalues --   -0.29032  -0.28412  -0.27694  -0.26933  -0.26130
  Beta  occ. eigenvalues --   -0.25578  -0.25182  -0.23954  -0.23347  -0.18810
  Beta  occ. eigenvalues --   -0.18462  -0.17368  -0.16709  -0.15457  -0.14860
  Beta virt. eigenvalues --    0.05944   0.06209   0.06538   0.06756   0.06985
  Beta virt. eigenvalues --    0.07825   0.07938   0.08807   0.09115   0.09382
  Beta virt. eigenvalues --    0.09702   0.10106   0.11091   0.11349   0.11674

 Mulliken charges and spin densities:
               1          2
     1  C    0.388207  -1.063248
     2  C   -0.454570   0.953075
     3  C    0.358440  -0.377624
     4  C    0.156512  -0.567557
     5  N    0.026711   0.022911
     6  C    0.507735  -0.801363
     7  C   -0.506238   0.275970
     8  O   -0.291128   0.003362
     9  C    2.114704  -2.645742
    10  C   -0.206217   0.963861
    11  C   -1.108662   0.891620
    12  C   -0.264731  -0.201741
    13  C    0.330995  -0.621521
    14  C    0.166547  -0.495912
    15  C   -0.404637   0.176537
    16  N   -0.350368   0.100861
    17  C    0.013092  -0.716806
    18  O   -0.140681   0.045688
    19  O   -0.048723   0.036170
    20  H    0.078799   0.076539
    21  H   -0.017064   0.157469
    22  H   -0.301298   0.460720
    23  H   -0.210281   0.476035
    24  H   -0.653231   0.916768
    25  H   -0.019885   0.205861
    26  H    0.249810  -0.033998
    27  H    0.245972  -0.113098
    28  H   -0.492835   0.729426
    29  H    0.254504  -0.028498
    30  H    0.148260   0.066244
    31  H   -0.134225   0.309690
    32  H   -0.124243   0.281226
    33  H   -0.146888   0.327060
    34  H   -0.593164   0.754866
    35  H   -0.031266   0.289745
    36  H    0.099478   0.146093
    37  H    0.360568  -0.000689
 Sum of Mulliken charges =  -1.00000   1.00000

 Dipole moment (field-independent basis, Debye):
    X=             -3.2783    Y=              1.9449    Z=              4.1134  Tot=              5.6080
 Quadrupole moment (field-independent basis, Debye-Ang):
   XX=           -179.5505   YY=           -163.3079   ZZ=           -160.9787
   XY=              3.7960   XZ=              5.5500   YZ=              0.4539

 Summary of Natural Population Analysis:

                                       Natural Population
                Natural  -----------------------------------------------
    Atom  No    Charge         Core      Valence    Rydberg      Total
 -----------------------------------------------------------------------
      C    1   -0.28374      0.99965     2.27777    0.00632     3.28374
      C    2   -0.15322      0.99953     2.14148    0.01220     3.15322
      C    3   -0.10772      0.99957     2.09478    0.01336     3.10772
      C    4   -0.07643      0.99963     2.06623    0.01057     3.07643
      N    5   -0.25477      0.99962     2.74406    0.01109     3.75477
      C    6   -0.08201      0.99962     2.07144    0.01095     3.08201
      C    7    0.35408      0.99959     1.62306    0.02327     2.64592
      O    8   -0.32877      0.99988     3.32399    0.00490     4.32877
      C    9   -0.05308      0.99952     2.04007    0.01349     3.05308
      C   10   -0.02473      0.99947     2.01364    0.01162     3.02473
      C   11   -0.10536      0.99951     2.09655    0.00930     3.10536
      C   12   -0.13473      0.99959     2.11892    0.01622     3.13473
      C   13   -0.06667      0.99956     2.06044    0.00667     3.06667
      C   14   -0.10121      0.99958     2.08546    0.01617     3.10121
      C   15   -0.10038      0.99950     2.08981    0.01108     3.10038
      N   16   -0.41434      0.99977     2.90476    0.00981     3.91434
      C   17    0.40788      0.99968     1.56572    0.02672     2.59212
      O   18   -0.30189      0.99987     3.29611    0.00591     4.30189
      O   19   -0.35145      0.99987     3.34519    0.00639     4.35145
      H   20    0.10299      0.00000     0.39584    0.00117     0.39701
      H   21    0.10171      0.00000     0.39740    0.00089     0.39829
      H   22    0.10438      0.00000     0.39443    0.00118     0.39562
      H   23    0.11439      0.00000     0.38402    0.00160     0.38561
      H   24    0.10963      0.00000     0.38616    0.00421     0.39037
      H   25    0.09736      0.00000     0.40156    0.00109     0.40264
      H   26    0.10735      0.00000     0.39131    0.00134     0.39265
      H   27    0.10104      0.00000     0.39641    0.00255     0.39896
      H   28    0.10350      0.00000     0.39468    0.00182     0.39650
      H   29    0.10946      0.00000     0.38901    0.00153     0.39054
      H   30    0.11551      0.00000     0.38341    0.00108     0.38449
      H   31    0.10263      0.00000     0.39654    0.00084     0.39737
      H   32    0.09738      0.00000     0.40134    0.00128     0.40262
      H   33    0.10291      0.00000     0.39614    0.00096     0.39709
      H   34    0.10355      0.00000     0.39442    0.00203     0.39645
      H   35    0.17854      0.00000     0.31981    0.00164     0.32146
      H   36    0.17711      0.00000     0.32038    0.00252     0.32289
      H   37    0.24971      0.00000     0.24655    0.00374     0.25029
 =======================================================================
   * Total *    0.00061     18.99301    50.74885    0.25753    69.99939

 Normal termination of Gaussian 16 at Sat Dec 12 11:26:26 2020.
