 Gaussian 16, Revision A.03,

 -----------------------------------------------------------
 # opt freq B3LYP/6-31G(d) empiricaldispersion=gd3bj scf=xqc
 -----------------------------------------------------------

 -------------------------------
 CID_117522274_JID_1994_neutraal
 -------------------------------
 Symbolic Z-matrix:
 Charge =  0 Multiplicity = 1

 SCF Done:  E(RB3LYP) =  -528.832980246     A.U. after   15 cycles
 SCF Done:  E(RB3LYP) =  -528.837487048     A.U. after   12 cycles
 SCF Done:  E(RB3LYP) =  -528.838452342     A.U. after   12 cycles
 SCF Done:  E(RB3LYP) =  -528.839037624     A.U. after   12 cycles
 SCF Done:  E(RB3LYP) =  -528.839332379     A.U. after   12 cycles
 SCF Done:  E(RB3LYP) =  -528.839484674     A.U. after   12 cycles
 SCF Done:  E(RB3LYP) =  -528.839579066     A.U. after   12 cycles
 SCF Done:  E(RB3LYP) =  -528.839630121     A.U. after   12 cycles
 SCF Done:  E(RB3LYP) =  -528.839641491     A.U. after    9 cycles
 SCF Done:  E(RB3LYP) =  -528.839647102     A.U. after    9 cycles
 SCF Done:  E(RB3LYP) =  -528.839648318     A.U. after    8 cycles
 SCF Done:  E(RB3LYP) =  -528.839648486     A.U. after    8 cycles
 Optimization completed.
    -- Stationary point found.
 Normal termination of Gaussian 16 at Tue Dec  8 21:48:35 2020.

 --------------------------------------------------------------------
 #N Geom=AllCheck Guess=TCheck SCRF=Check GenChk RB3LYP/6-31G(d) Freq
 --------------------------------------------------------------------

 Structure from the checkpoint file:  "JID_1994.chk"
 -------------------------------
 CID_117522274_JID_1994_neutraal
 -------------------------------
 Charge =  0 Multiplicity = 1

 SCF Done:  E(RB3LYP) =  -528.839648486     A.U. after    1 cycles

  Exact polarizability: 114.674  -4.292  85.519  -2.179  -2.467  62.451
 Approx polarizability: 153.992  -2.226 142.345  -5.765  -9.611  93.547

                      1                      2                      3
                      A                      A                      A
 Frequencies --     36.5277                68.2772                94.8464
 Red. masses --      3.1559                 6.0350                 3.9775
 Frc consts  --      0.0025                 0.0166                 0.0211
 IR Inten    --      1.5859                 3.5109                 0.1298

                      4                      5                      6
                      A                      A                      A
 Frequencies --    122.3332               187.7574               198.9770
 Red. masses --      3.0694                 3.2647                 3.5392
 Frc consts  --      0.0271                 0.0678                 0.0826
 IR Inten    --      1.4749                 3.2514                 0.4638

                      7                      8                      9
                      A                      A                      A
 Frequencies --    317.8265               341.7401               426.4726
 Red. masses --      4.5759                 2.7423                 5.0972
 Frc consts  --      0.2723                 0.1887                 0.5462
 IR Inten    --      4.1439                 2.2995                 5.3884

                     10                     11                     12
                      A                      A                      A
 Frequencies --    441.0517               515.2601               564.6353
 Red. masses --      4.0137                 2.6168                 1.1406
 Frc consts  --      0.4600                 0.4093                 0.2142
 IR Inten    --      1.2889                 2.1674               119.4368

                     13                     14                     15
                      A                      A                      A
 Frequencies --    618.8009               695.4055               734.7508
 Red. masses --      2.4740                 8.4603                 2.5836
 Frc consts  --      0.5582                 2.4105                 0.8218
 IR Inten    --      7.1703                 2.0825                17.2506

                     16                     17                     18
                      A                      A                      A
 Frequencies --    774.0711               808.2873               835.5206
 Red. masses --      4.7519                 1.1144                 1.7935
 Frc consts  --      1.6776                 0.4289                 0.7377
 IR Inten    --      3.1156                 0.2521                 9.3235

                     19                     20                     21
                      A                      A                      A
 Frequencies --    895.7936               925.9371               928.0811
 Red. masses --      2.4124                 2.7330                 3.3044
 Frc consts  --      1.1406                 1.3805                 1.6769
 IR Inten    --      4.7988                 0.6337                16.6268

                     22                     23                     24
                      A                      A                      A
 Frequencies --    965.7083              1048.8750              1071.9973
 Red. masses --      1.9991                 5.0375                 1.6135
 Frc consts  --      1.0985                 3.2652                 1.0925
 IR Inten    --     11.6133                16.1714                31.2499

                     25                     26                     27
                      A                      A                      A
 Frequencies --   1080.1187              1093.7299              1097.5687
 Red. masses --      2.1652                 1.3354                 2.1018
 Frc consts  --      1.4883                 0.9412                 1.4918
 IR Inten    --      8.3339                 3.5502                27.0390

                     28                     29                     30
                      A                      A                      A
 Frequencies --   1103.3324              1131.8594              1138.5616
 Red. masses --      3.7029                 2.5983                 1.1011
 Frc consts  --      2.6558                 1.9612                 0.8410
 IR Inten    --     34.5519                 7.5732                 1.6923

                     31                     32                     33
                      A                      A                      A
 Frequencies --   1191.7693              1217.9740              1230.3896
 Red. masses --      2.5001                 1.3814                 2.2926
 Frc consts  --      2.0922                 1.2074                 2.0448
 IR Inten    --     30.6423                 0.6439                 0.1234

                     34                     35                     36
                      A                      A                      A
 Frequencies --   1243.1765              1259.7148              1303.5220
 Red. masses --      1.3932                 3.3634                 2.4317
 Frc consts  --      1.2686                 3.1446                 2.4344
 IR Inten    --     34.3631                10.2320                33.7540

                     37                     38                     39
                      A                      A                      A
 Frequencies --   1363.4476              1395.8625              1403.1868
 Red. masses --      1.6961                 1.7075                 3.9016
 Frc consts  --      1.8577                 1.9602                 4.5261
 IR Inten    --      0.3422                 1.5618                16.3831

                     40                     41                     42
                      A                      A                      A
 Frequencies --   1417.2719              1471.1862              1477.8900
 Red. masses --      1.3087                 2.2515                 1.3017
 Frc consts  --      1.5488                 2.8711                 1.6752
 IR Inten    --      4.7010                42.7621                56.1920

                     43                     44                     45
                      A                      A                      A
 Frequencies --   1491.3024              1503.4493              1530.6987
 Red. masses --      1.0876                 1.1028                 1.1030
 Frc consts  --      1.4251                 1.4686                 1.5227
 IR Inten    --      2.0667                 8.2367                 0.7780

                     46                     47                     48
                      A                      A                      A
 Frequencies --   1532.2904              1563.6006              3004.1569
 Red. masses --      1.4180                 8.9421                 1.0713
 Frc consts  --      1.9616                12.8807                 5.6964
 IR Inten    --      0.0808               111.6285                52.6718

                     49                     50                     51
                      A                      A                      A
 Frequencies --   3087.8037              3108.6863              3155.7391
 Red. masses --      1.0635                 1.0926                 1.0503
 Frc consts  --      5.9741                 6.2212                 6.1626
 IR Inten    --      8.7057                47.2519                15.6640

                     52                     53                     54
                      A                      A                      A
 Frequencies --   3157.4476              3158.5238              3205.9296
 Red. masses --      1.1036                 1.0583                 1.0904
 Frc consts  --      6.4821                 6.2206                 6.6031
 IR Inten    --      4.7239                 7.1373                 1.8816

                     55                     56                     57
                      A                      A                      A
 Frequencies --   3235.0297              3249.2112              3658.3188
 Red. masses --      1.1207                 1.1164                 1.0655
 Frc consts  --      6.9105                 6.9441                 8.4016
 IR Inten    --      0.3531                14.9376               143.5860

 - Thermochemistry -
 -------------------
 Temperature   298.150 Kelvin.  Pressure   1.00000 Atm.
 Atom     1 has atomic number  6 and mass  12.00000

 Molecular mass:   154.08546 amu.
 Principal axes and moments of inertia in atomic units:
                           1         2         3
     Eigenvalues --   972.789982323.943983080.93290
           X            0.99977  -0.02141   0.00186
           Y            0.02139   0.99974   0.00808
           Z           -0.00203  -0.00804   0.99997
 This molecule is an asymmetric top.
 Rotational symmetry number  1.
 Warning -- assumption of classical behavior for rotation
           may cause significant error
 Rotational temperatures (Kelvin)      0.08904     0.03727     0.02811
 Rotational constants (GHZ):           1.85522     0.77659     0.58578
 Zero-point vibrational energy     453873.3 (Joules/Mol)
                                  108.47831 (Kcal/Mol)
 Warning -- explicit consideration of  13 degrees of freedom as
           vibrations may cause significant error
 Vibrational temperatures:     52.56    98.24   136.46   176.01   270.14
          (Kelvin)            286.28   457.28   491.69   613.60   634.58
                              741.34   812.38   890.32  1000.53  1057.14
                             1113.72  1162.95  1202.13  1288.85  1332.22
                             1335.30  1389.44  1509.10  1542.36  1554.05
                             1573.63  1579.16  1587.45  1628.49  1638.14
                             1714.69  1752.39  1770.26  1788.65  1812.45
                             1875.48  1961.70  2008.33  2018.87  2039.14
                             2116.71  2126.35  2145.65  2163.13  2202.33
                             2204.62  2249.67  4322.31  4442.66  4472.71
                             4540.40  4542.86  4544.41  4612.62  4654.49
                             4674.89  5263.50

 Zero-point correction=                           0.172871 (Hartree/Particle)
 Thermal correction to Energy=                    0.182806
 Thermal correction to Enthalpy=                  0.183750
 Thermal correction to Gibbs Free Energy=         0.136084
 Sum of electronic and zero-point Energies=           -528.666777
 Sum of electronic and thermal Energies=              -528.656843
 Sum of electronic and thermal Enthalpies=            -528.655899
 Sum of electronic and thermal Free Energies=         -528.703565

                     E (Thermal)             CV                S
                      KCal/Mol        Cal/Mol-Kelvin    Cal/Mol-Kelvin
 Total                  114.712             36.514            100.321
 Electronic               0.000              0.000              0.000
 Translational            0.889              2.981             41.007
 Rotational               0.889              2.981             30.322
 Vibrational            112.935             30.553             28.993
 Vibration     1          0.594              1.982              5.439
 Vibration     2          0.598              1.969              4.202
 Vibration     3          0.603              1.953              3.558
 Vibration     4          0.610              1.930              3.063
 Vibration     5          0.632              1.857              2.250
 Vibration     6          0.637              1.841              2.143
 Vibration     7          0.704              1.640              1.321
 Vibration     8          0.721              1.592              1.204
 Vibration     9          0.788              1.413              0.870
 Vibration    10          0.801              1.381              0.823
 Vibration    11          0.870              1.216              0.621
 Vibration    12          0.920              1.108              0.515
 Vibration    13          0.979              0.992              0.418

 Optimization completed.
    -- Stationary point found.
 Normal termination of Gaussian 16 at Tue Dec  8 21:52:49 2020.

 ----------------------------------------------------------------------
 # B3LYP/6-311++G(d,p) empiricaldispersion=gd3bj scf=xqc pop=npa geom=c
 heck
 ----------------------------------------------------------------------

 ---------------------------------------
 CID_117522274_JID_1994_Energie_neutraal
 ---------------------------------------
 Structure from the checkpoint file:  "JID_1994.chk"
 Charge =  0 Multiplicity = 1

 SCF Done:  E(RB3LYP) =  -528.991935689     A.U. after   14 cycles
 Normal termination of Gaussian 16 at Tue Dec  8 21:54:28 2020.

 ----------------------------------------------------------------------
 # B3LYP/6-311++G(d,p) empiricaldispersion=gd3bj scf=xqc pop=npa geom=c
 heck
 ----------------------------------------------------------------------

 -------------------------------------
 CID_117522274_JID_1994_Energie_kation
 -------------------------------------
 Structure from the checkpoint file:  "JID_1994.chk"
 Charge =  1 Multiplicity = 2

 SCF Done:  E(UB3LYP) =  -528.647493460     A.U. after   23 cycles
 Normal termination of Gaussian 16 at Tue Dec  8 21:58:19 2020.
 Gaussian 16:  ES64L-G16RevA.03 25-Dec-2016

 ----------------------------------------------------------------------
 # B3LYP/6-311++G(d,p) empiricaldispersion=gd3bj scf=xqc pop=npa geom=c
 heck
 ----------------------------------------------------------------------

 ------------------------------------
 CID_117522274_JID_1994_Energie_anion
 ------------------------------------
 Structure from the checkpoint file:  "JID_1994.chk"
 Charge = -1 Multiplicity = 2

                         Standard orientation:
 ---------------------------------------------------------------------
 Center     Atomic      Atomic             Coordinates (Angstroms)
 Number     Number       Type             X           Y           Z
 ---------------------------------------------------------------------
      1          6           0        2.875086   -0.947815    0.784982
      2          6           0        2.704271   -1.204911   -0.681012
      3          6           0        2.419365    0.178639   -0.124579
      4          6           0        1.035409    0.663558   -0.046901
      5          7           0       -0.026228   -0.101888    0.221940
      6          7           0       -1.025087    0.786018    0.174349
      7          7           0       -0.626603    2.018473   -0.102587
      8          7           0        0.679954    1.960051   -0.243558
      9          6           0       -2.420215    0.415331    0.388441
     10          6           0       -2.787775   -0.828496   -0.426381
     11          8           0       -2.167379   -1.997033    0.060738
     12          1           0        3.879932   -0.884001    1.191430
     13          1           0        2.132289   -1.355905    1.463683
     14          1           0        3.589454   -1.319919   -1.299255
     15          1           0        1.846661   -1.789596   -1.000018
     16          1           0        3.129657    0.967549   -0.347145
     17          1           0       -2.569767    0.216376    1.454391
     18          1           0       -3.008237    1.287138    0.094483
     19          1           0       -3.868174   -0.983746   -0.343868
     20          1           0       -2.554798   -0.641871   -1.487318
     21          1           0       -1.209094   -1.816168    0.069400
 ---------------------------------------------------------------------

 SCF Done:  E(UB3LYP) =  -528.980805075     A.U. after   33 cycles
 SCF Done:  E(UB3LYP) =  -528.980805075     a.u. after    1 cycles

 The electronic state is 2-A.
 Alpha  occ. eigenvalues --  -19.01243 -14.30342 -14.24933 -14.22777 -14.21477
 Alpha  occ. eigenvalues --  -10.11962 -10.11577 -10.11211 -10.08711 -10.07640
 Alpha  occ. eigenvalues --  -10.07612  -1.02153  -0.91975  -0.82516  -0.78899
 Alpha  occ. eigenvalues --   -0.74979  -0.66128  -0.57189  -0.55376  -0.50522
 Alpha  occ. eigenvalues --   -0.50353  -0.47410  -0.42559  -0.41450  -0.38199
 Alpha  occ. eigenvalues --   -0.37734  -0.37086  -0.34871  -0.31406  -0.29991
 Alpha  occ. eigenvalues --   -0.28068  -0.27624  -0.27149  -0.23436  -0.22871
 Alpha  occ. eigenvalues --   -0.20886  -0.20094  -0.19468  -0.17482  -0.17168
 Alpha  occ. eigenvalues --   -0.14916   0.04856
 Alpha virt. eigenvalues --    0.06386   0.07603   0.08633   0.09393   0.09675
 Alpha virt. eigenvalues --    0.10526   0.10787   0.12312   0.12878   0.13670
 Alpha virt. eigenvalues --    0.14443   0.15255   0.15920   0.16612   0.17192

  Beta  occ. eigenvalues --  -19.01238 -14.30113 -14.24620 -14.22584 -14.21464
  Beta  occ. eigenvalues --  -10.11930 -10.11584 -10.11196 -10.08708 -10.07620
  Beta  occ. eigenvalues --  -10.07590  -1.01804  -0.91964  -0.82182  -0.78706
  Beta  occ. eigenvalues --   -0.74829  -0.66005  -0.57053  -0.55240  -0.50459
  Beta  occ. eigenvalues --   -0.50182  -0.47251  -0.42335  -0.41312  -0.38101
  Beta  occ. eigenvalues --   -0.37531  -0.36572  -0.34827  -0.31328  -0.29821
  Beta  occ. eigenvalues --   -0.27979  -0.27440  -0.27089  -0.23257  -0.22634
  Beta  occ. eigenvalues --   -0.20817  -0.19280  -0.19054  -0.17368  -0.16963
  Beta  occ. eigenvalues --   -0.14245
  Beta virt. eigenvalues --    0.07381   0.08063   0.08994   0.09477   0.09563
  Beta virt. eigenvalues --    0.10617   0.10862   0.11368   0.12764   0.13036
  Beta virt. eigenvalues --    0.14019   0.14342   0.15274   0.15852   0.16429

 Mulliken charges and spin densities:
               1          2
     1  C    0.350693  -0.782440
     2  C    0.658354  -1.088158
     3  C   -1.038686   1.561873
     4  C    0.305740  -0.963328
     5  N   -0.574671   0.422600
     6  N    0.283917  -0.072459
     7  N    0.043516   0.183187
     8  N   -0.131859  -0.063451
     9  C    0.554949  -0.882393
    10  C    0.353064  -0.641894
    11  O   -0.323062   0.033994
    12  H   -0.167777   0.317150
    13  H   -0.017873   0.166413
    14  H   -0.481214   0.638509
    15  H    0.112033   0.025492
    16  H   -0.242030   0.498958
    17  H   -0.423030   0.638885
    18  H   -0.165839   0.331568
    19  H   -0.515085   0.677870
    20  H    0.127412   0.012561
    21  H    0.291447  -0.014936
 Sum of Mulliken charges =  -1.00000   1.00000

 Dipole moment (field-independent basis, Debye):
    X=              0.7668    Y=             -0.4954    Z=             -0.8693  Tot=              1.2606
 Quadrupole moment (field-independent basis, Debye-Ang):
   XX=           -138.5356   YY=           -101.4434   ZZ=            -86.2377
   XY=             -0.5466   XZ=             10.7305   YZ=              1.1942

 Summary of Natural Population Analysis:

                                       Natural Population
                Natural  -----------------------------------------------
    Atom  No    Charge         Core      Valence    Rydberg      Total
 -----------------------------------------------------------------------
      C    1   -0.19016      0.99963     2.18271    0.00782     3.19016
      C    2   -0.19003      0.99963     2.18225    0.00815     3.19003
      C    3   -0.13554      0.99956     2.12383    0.01214     3.13554
      C    4    0.15793      0.99964     1.82388    0.01855     2.84207
      N    5   -0.16229      0.99967     2.65165    0.01097     3.66229
      N    6    0.01126      0.99971     2.47221    0.01682     3.48874
      N    7    0.00439      0.99977     2.48094    0.01489     3.49561
      N    8   -0.16476      0.99972     2.65121    0.01383     3.66476
      C    9   -0.10121      0.99960     2.08968    0.01193     3.10121
      C   10   -0.01352      0.99961     2.00053    0.01338     3.01352
      O   11   -0.37635      0.99990     3.36924    0.00722     4.37635
      H   12    0.10211      0.00000     0.39679    0.00110     0.39789
      H   13    0.10700      0.00000     0.39202    0.00098     0.39300
      H   14    0.10383      0.00000     0.39444    0.00173     0.39617
      H   15    0.10454      0.00000     0.39432    0.00114     0.39546
      H   16    0.11459      0.00000     0.38389    0.00152     0.38541
      H   17    0.10816      0.00000     0.38795    0.00389     0.39184
      H   18    0.11047      0.00000     0.38759    0.00194     0.38953
      H   19    0.09201      0.00000     0.40544    0.00256     0.40799
      H   20    0.07584      0.00000     0.42287    0.00129     0.42416
      H   21    0.24174      0.00000     0.25463    0.00363     0.25826
 =======================================================================
   * Total *    0.00000     10.99643    29.84806    0.15550    41.00000

 Normal termination of Gaussian 16 at Tue Dec  8 22:03:24 2020.
