 Gaussian 16, Revision A.03,

 -----------------------------------------------------------
 # opt freq B3LYP/6-31G(d) empiricaldispersion=gd3bj scf=xqc
 -----------------------------------------------------------

 ------------------------------
 CID_10777207_JID_8747_neutraal
 ------------------------------
 Symbolic Z-matrix:
 Charge =  0 Multiplicity = 1

 SCF Done:  E(RB3LYP) =  -811.790156503     A.U. after   15 cycles
 SCF Done:  E(RB3LYP) =  -811.795902208     A.U. after   13 cycles
 SCF Done:  E(RB3LYP) =  -811.794994280     A.U. after   13 cycles
 SCF Done:  E(RB3LYP) =  -811.796868733     A.U. after   12 cycles
 SCF Done:  E(RB3LYP) =  -811.797228495     A.U. after   11 cycles
 SCF Done:  E(RB3LYP) =  -811.797239143     A.U. after   11 cycles
 SCF Done:  E(RB3LYP) =  -811.797282726     A.U. after   10 cycles
 SCF Done:  E(RB3LYP) =  -811.797296591     A.U. after   10 cycles
 SCF Done:  E(RB3LYP) =  -811.797298885     A.U. after    8 cycles
 SCF Done:  E(RB3LYP) =  -811.797299348     A.U. after    8 cycles
 SCF Done:  E(RB3LYP) =  -811.797299503     A.U. after    7 cycles
 SCF Done:  E(RB3LYP) =  -811.797299601     A.U. after    7 cycles
 Optimization completed.
    -- Stationary point found.
 Normal termination of Gaussian 16 at Fri Dec 11 22:11:44 2020.

 --------------------------------------------------------------------
 #N Geom=AllCheck Guess=TCheck SCRF=Check GenChk RB3LYP/6-31G(d) Freq
 --------------------------------------------------------------------

 Structure from the checkpoint file:  "JID_8747.chk"
 ------------------------------
 CID_10777207_JID_8747_neutraal
 ------------------------------
 Charge =  0 Multiplicity = 1

 SCF Done:  E(RB3LYP) =  -811.797299601     A.U. after    1 cycles

  Exact polarizability: 208.293 -14.335 156.009  -3.206   8.529 130.000
 Approx polarizability: 268.368 -34.974 240.107 -14.507  25.210 196.619

                      1                      2                      3
                      A                      A                      A
 Frequencies --     22.6938                46.3901                59.5107
 Red. masses --      4.3425                 3.0078                 3.0183
 Frc consts  --      0.0013                 0.0038                 0.0063
 IR Inten    --      0.3804                 0.3359                 0.0477

                      4                      5                      6
                      A                      A                      A
 Frequencies --     73.2650                86.0068                99.9841
 Red. masses --      2.9235                 3.0096                 2.6079
 Frc consts  --      0.0092                 0.0131                 0.0154
 IR Inten    --      1.3639                 0.0665                 1.1146

                      7                      8                      9
                      A                      A                      A
 Frequencies --    114.7698               122.6563               145.1012
 Red. masses --      1.8865                 3.1790                 2.2746
 Frc consts  --      0.0146                 0.0282                 0.0282
 IR Inten    --      0.5927                 0.5855                 0.8775

                     10                     11                     12
                      A                      A                      A
 Frequencies --    158.0899               189.1827               208.3702
 Red. masses --      2.8882                 2.2668                 1.1276
 Frc consts  --      0.0425                 0.0478                 0.0288
 IR Inten    --      1.0116                 0.9846                 0.2486

                     13                     14                     15
                      A                      A                      A
 Frequencies --    245.7015               254.2451               260.1785
 Red. masses --      2.6751                 1.1025                 1.3519
 Frc consts  --      0.0951                 0.0420                 0.0539
 IR Inten    --      0.8897                 0.0887                 0.5521

                     16                     17                     18
                      A                      A                      A
 Frequencies --    265.2771               269.9110               310.0060
 Red. masses --      1.2359                 2.4861                 2.5787
 Frc consts  --      0.0512                 0.1067                 0.1460
 IR Inten    --      0.2153                 0.0340                 0.9572

                     19                     20                     21
                      A                      A                      A
 Frequencies --    325.3879               334.9419               350.0575
 Red. masses --      2.5538                 2.1998                 2.5987
 Frc consts  --      0.1593                 0.1454                 0.1876
 IR Inten    --      0.8741                 0.6927                 2.5392

                     22                     23                     24
                      A                      A                      A
 Frequencies --    364.6210               381.7271               389.8801
 Red. masses --      2.3584                 2.2275                 2.6218
 Frc consts  --      0.1847                 0.1912                 0.2348
 IR Inten    --      0.5015                 0.5126                 2.5210

                     25                     26                     27
                      A                      A                      A
 Frequencies --    419.4080               431.6663               435.1065
 Red. masses --      2.8728                 2.7640                 2.2957
 Frc consts  --      0.2977                 0.3034                 0.2561
 IR Inten    --      2.8006                 2.9806                 0.1138

                     28                     29                     30
                      A                      A                      A
 Frequencies --    465.1418               507.1015               537.6290
 Red. masses --      2.4131                 4.9489                 5.6454
 Frc consts  --      0.3076                 0.7498                 0.9614
 IR Inten    --      1.2825                 1.9611                 2.0575

                     31                     32                     33
                      A                      A                      A
 Frequencies --    540.9004               573.5384               606.7995
 Red. masses --      2.6701                 4.0504                 3.9908
 Frc consts  --      0.4603                 0.7850                 0.8658
 IR Inten    --      0.8527                 0.3843                 6.6237

                     34                     35                     36
                      A                      A                      A
 Frequencies --    630.6204               669.8221               693.9519
 Red. masses --      3.8909                 2.0653                 2.7783
 Frc consts  --      0.9117                 0.5459                 0.7883
 IR Inten    --      7.2122                 6.8261                 1.9380

                     37                     38                     39
                      A                      A                      A
 Frequencies --    761.8369               793.1054               815.3863
 Red. masses --      3.0904                 2.4585                 3.3341
 Frc consts  --      1.0568                 0.9111                 1.3061
 IR Inten    --     17.4030                 8.6442                13.1367

                     40                     41                     42
                      A                      A                      A
 Frequencies --    854.1239               863.6941               895.0089
 Red. masses --      2.8303                 2.7042                 2.3386
 Frc consts  --      1.2165                 1.1885                 1.1037
 IR Inten    --      5.7744                 3.4964                 4.8044

                     43                     44                     45
                      A                      A                      A
 Frequencies --    922.3464               934.9025               945.8288
 Red. masses --      1.9880                 1.3513                 2.0240
 Frc consts  --      0.9964                 0.6959                 1.0668
 IR Inten    --     13.5008                35.7209                 8.8245

                     46                     47                     48
                      A                      A                      A
 Frequencies --    954.3047               956.6219               981.6107
 Red. masses --      1.7359                 1.6575                 1.2002
 Frc consts  --      0.9314                 0.8937                 0.6813
 IR Inten    --      1.1799                 2.4562                 0.3023

                     49                     50                     51
                      A                      A                      A
 Frequencies --    987.8420              1006.6214              1032.0012
 Red. masses --      2.3233                 2.4174                 1.7377
 Frc consts  --      1.3357                 1.4432                 1.0904
 IR Inten    --     12.3899                 2.2435                 4.4243

                     52                     53                     54
                      A                      A                      A
 Frequencies --   1042.1349              1055.8603              1063.6050
 Red. masses --      1.6026                 1.3788                 1.1839
 Frc consts  --      1.0255                 0.9057                 0.7891
 IR Inten    --      5.2181                 0.4202                17.0623

                     55                     56                     57
                      A                      A                      A
 Frequencies --   1072.3185              1074.8627              1085.8599
 Red. masses --      1.5965                 1.6235                 1.9163
 Frc consts  --      1.0816                 1.1051                 1.3313
 IR Inten    --      2.5290                24.3634                 1.4297

                     58                     59                     60
                      A                      A                      A
 Frequencies --   1108.1825              1146.5126              1160.4704
 Red. masses --      2.8571                 1.8994                 2.7243
 Frc consts  --      2.0673                 1.4710                 2.1616
 IR Inten    --     11.8427                 6.8188                12.6913

                     61                     62                     63
                      A                      A                      A
 Frequencies --   1175.1241              1210.7639              1224.5639
 Red. masses --      3.3817                 1.8504                 1.7188
 Frc consts  --      2.7514                 1.5982                 1.5186
 IR Inten    --     99.2305               299.9626                70.6325

                     64                     65                     66
                      A                      A                      A
 Frequencies --   1238.2376              1254.4915              1273.8811
 Red. masses --      3.0944                 1.4521                 3.0257
 Frc consts  --      2.7953                 1.3464                 2.8929
 IR Inten    --     67.5880                23.7645                 2.1927

                     67                     68                     69
                      A                      A                      A
 Frequencies --   1287.1147              1323.3775              1326.3588
 Red. masses --      3.5644                 2.2576                 1.4976
 Frc consts  --      3.4792                 2.3296                 1.5522
 IR Inten    --      6.5485                28.1273                 0.2356

                     70                     71                     72
                      A                      A                      A
 Frequencies --   1334.2535              1365.1235              1390.6527
 Red. masses --      1.1934                 1.5139                 1.6115
 Frc consts  --      1.2517                 1.6622                 1.8362
 IR Inten    --      6.0127                30.5656               107.3835

                     73                     74                     75
                      A                      A                      A
 Frequencies --   1400.1009              1408.8178              1425.0981
 Red. masses --      1.3991                 1.8008                 1.2411
 Frc consts  --      1.6160                 2.1058                 1.4851
 IR Inten    --     13.0644               112.2816                 2.3261

                     76                     77                     78
                      A                      A                      A
 Frequencies --   1427.9003              1436.1091              1450.6965
 Red. masses --      1.2291                 1.2687                 1.7392
 Frc consts  --      1.4765                 1.5417                 2.1565
 IR Inten    --      6.5911                25.9451               139.8252

                     79                     80                     81
                      A                      A                      A
 Frequencies --   1459.6770              1475.9841              1498.9053
 Red. masses --      1.2195                 1.1807                 1.0603
 Frc consts  --      1.5309                 1.5155                 1.4035
 IR Inten    --     14.9671                 3.1752                10.2248

                     82                     83                     84
                      A                      A                      A
 Frequencies --   1505.1943              1509.0283              1515.6573
 Red. masses --      1.0737                 1.0482                 1.0911
 Frc consts  --      1.4332                 1.4063                 1.4767
 IR Inten    --      7.2791                 0.1223                11.0107

                     85                     86                     87
                      A                      A                      A
 Frequencies --   1518.8839              1520.0003              1521.2947
 Red. masses --      1.0577                 1.1062                 1.0481
 Frc consts  --      1.4377                 1.5059                 1.4291
 IR Inten    --      1.9304                 5.4323                 0.4562

                     88                     89                     90
                      A                      A                      A
 Frequencies --   1526.2136              1527.2268              1528.6093
 Red. masses --      1.0810                 1.0456                 1.0480
 Frc consts  --      1.4835                 1.4369                 1.4428
 IR Inten    --      7.5877                 0.1882                 6.2703

                     91                     92                     93
                      A                      A                      A
 Frequencies --   1540.3590              1541.0711              1558.9770
 Red. masses --      1.0518                 1.0521                 1.0652
 Frc consts  --      1.4704                 1.4722                 1.5254
 IR Inten    --      4.9679                 4.4564                18.5117

                     94                     95                     96
                      A                      A                      A
 Frequencies --   1699.4809              1732.6319              1811.1638
 Red. masses --      7.5841                 4.4163                12.4897
 Frc consts  --     12.9058                 7.8112                24.1390
 IR Inten    --    191.1436                 3.2559               400.8252

                     97                     98                     99
                      A                      A                      A
 Frequencies --   3031.6721              3036.4144              3056.9354
 Red. masses --      1.0602                 1.0618                 1.0630
 Frc consts  --      5.7413                 5.7678                 5.8529
 IR Inten    --     19.5852                24.7074                16.7861

                    100                    101                    102
                      A                      A                      A
 Frequencies --   3057.2943              3059.5215              3059.6429
 Red. masses --      1.0357                 1.0438                 1.0384
 Frc consts  --      5.7039                 5.7569                 5.7273
 IR Inten    --     14.1381                19.2705                33.5211

                    103                    104                    105
                      A                      A                      A
 Frequencies --   3066.9710              3071.2373              3080.4962
 Red. masses --      1.0369                 1.1006                 1.1025
 Frc consts  --      5.7466                 6.1165                 6.1640
 IR Inten    --     20.8320                28.1698                70.1171

                    106                    107                    108
                      A                      A                      A
 Frequencies --   3087.2665              3110.1412              3117.8465
 Red. masses --      1.0361                 1.1002                 1.1023
 Frc consts  --      5.8184                 6.2704                 6.3135
 IR Inten    --      4.2349                 7.0714                 0.2425

                    109                    110                    111
                      A                      A                      A
 Frequencies --   3122.3432              3122.7112              3131.1748
 Red. masses --      1.0944                 1.1011                 1.1007
 Frc consts  --      6.2863                 6.3264                 6.3583
 IR Inten    --     12.9753                49.9530                38.2139

                    112                    113                    114
                      A                      A                      A
 Frequencies --   3140.8828              3145.7340              3147.1396
 Red. masses --      1.1020                 1.1022                 1.0604
 Frc consts  --      6.4055                 6.4262                 6.1882
 IR Inten    --     22.7723                12.4265                16.7487

                    115                    116                    117
                      A                      A                      A
 Frequencies --   3150.2826              3157.3884              3174.1242
 Red. masses --      1.1023                 1.1013                 1.1035
 Frc consts  --      6.4454                 6.4688                 6.5503
 IR Inten    --     19.1355                20.0441                 7.5698

                    118                    119                    120
                      A                      A                      A
 Frequencies --   3183.9341              3192.6013              3229.2865
 Red. masses --      1.0980                 1.0916                 1.1135
 Frc consts  --      6.5581                 6.5552                 6.8417
 IR Inten    --      9.9844                 0.7240                23.3395

 - Thermochemistry -
 -------------------
 Temperature   298.150 Kelvin.  Pressure   1.00000 Atm.
 Atom     1 has atomic number  6 and mass  12.00000

 Molecular mass:   252.17254 amu.
 Principal axes and moments of inertia in atomic units:
                           1         2         3
     Eigenvalues --  2309.848587391.052198225.75033
           X            0.99996   0.00824   0.00162
           Y           -0.00821   0.99982  -0.01696
           Z           -0.00176   0.01695   0.99985
 This molecule is an asymmetric top.
 Rotational symmetry number  1.
 Warning -- assumption of classical behavior for rotation
           may cause significant error
 Rotational temperatures (Kelvin)      0.03750     0.01172     0.01053
 Rotational constants (GHZ):           0.78132     0.24418     0.21940
 Zero-point vibrational energy     967663.8 (Joules/Mol)
                                  231.27719 (Kcal/Mol)
 Warning -- explicit consideration of  33 degrees of freedom as
           vibrations may cause significant error
 Vibrational temperatures:     32.65    66.75    85.62   105.41   123.74
          (Kelvin)            143.85   165.13   176.48   208.77   227.46
                              272.19   299.80   353.51   365.80   374.34
                              381.67   388.34   446.03   468.16   481.91
                              503.65   524.61   549.22   560.95   603.43
                              621.07   626.02   669.24   729.61   773.53
                              778.24   825.19   873.05   907.32   963.72
                              998.44  1096.11  1141.10  1173.16  1228.89
                             1242.66  1287.72  1327.05  1345.12  1360.84
                             1373.03  1376.37  1412.32  1421.28  1448.30
                             1484.82  1499.40  1519.15  1530.29  1542.83
                             1546.49  1562.31  1594.43  1649.58  1669.66
                             1690.74  1742.02  1761.87  1781.55  1804.93
                             1832.83  1851.87  1904.05  1908.33  1919.69
                             1964.11  2000.84  2014.43  2026.97  2050.40
                             2054.43  2066.24  2087.23  2100.15  2123.61
                             2156.59  2165.64  2171.16  2180.69  2185.34
                             2186.94  2188.80  2195.88  2197.34  2199.33
                             2216.23  2217.26  2243.02  2445.17  2492.87
                             2605.86  4361.90  4368.72  4398.25  4398.76
                             4401.97  4402.14  4412.69  4418.83  4432.15
                             4441.89  4474.80  4485.89  4492.36  4492.88
                             4505.06  4519.03  4526.01  4528.03  4532.55
                             4542.78  4566.86  4580.97  4593.44  4646.22

 Zero-point correction=                           0.368564 (Hartree/Particle)
 Thermal correction to Energy=                    0.388663
 Thermal correction to Enthalpy=                  0.389607
 Thermal correction to Gibbs Free Energy=         0.320397
 Sum of electronic and zero-point Energies=           -811.428736
 Sum of electronic and thermal Energies=              -811.408637
 Sum of electronic and thermal Enthalpies=            -811.407692
 Sum of electronic and thermal Free Energies=         -811.476903

                     E (Thermal)             CV                S
                      KCal/Mol        Cal/Mol-Kelvin    Cal/Mol-Kelvin
 Total                  243.890             76.402            145.665
 Electronic               0.000              0.000              0.000
 Translational            0.889              2.981             42.475
 Rotational               0.889              2.981             33.307
 Vibrational            242.112             70.440             69.883
 Vibration     1          0.593              1.985              6.383
 Vibration     2          0.595              1.979              4.966
 Vibration     3          0.597              1.974              4.473
 Vibration     4          0.599              1.967              4.064
 Vibration     5          0.601              1.959              3.749
 Vibration     6          0.604              1.949              3.455
 Vibration     7          0.608              1.937              3.187
 Vibration     8          0.610              1.930              3.058
 Vibration     9          0.616              1.908              2.735
 Vibration    10          0.621              1.894              2.573
 Vibration    11          0.633              1.855              2.236
 Vibration    12          0.642              1.828              2.058
 Vibration    13          0.660              1.770              1.761
 Vibration    14          0.665              1.756              1.701
 Vibration    15          0.668              1.746              1.661
 Vibration    16          0.671              1.737              1.627
 Vibration    17          0.674              1.729              1.597
 Vibration    18          0.699              1.655              1.362
 Vibration    19          0.709              1.625              1.283
 Vibration    20          0.716              1.606              1.236
 Vibration    21          0.727              1.575              1.166
 Vibration    22          0.738              1.545              1.102
 Vibration    23          0.751              1.509              1.032
 Vibration    24          0.758              1.492              1.001
 Vibration    25          0.782              1.428              0.894
 Vibration    26          0.793              1.401              0.853
 Vibration    27          0.796              1.394              0.842
 Vibration    28          0.823              1.327              0.751
 Vibration    29          0.862              1.234              0.641
 Vibration    30          0.893              1.167              0.570
 Vibration    31          0.896              1.160              0.563
 Vibration    32          0.930              1.088              0.497
 Vibration    33          0.966              1.017              0.438

                           ! Non-Optimized Parameters !
 Normal termination of Gaussian 16 at Fri Dec 11 22:31:27 2020.

 ----------------------------------------------------------------------
 # B3LYP/6-311++G(d,p) empiricaldispersion=gd3bj scf=xqc pop=npa geom=c
 heck
 ----------------------------------------------------------------------

 --------------------------------------
 CID_10777207_JID_8747_Energie_neutraal
 --------------------------------------
 Structure from the checkpoint file:  "JID_8747.chk"
 Charge =  0 Multiplicity = 1

 SCF Done:  E(RB3LYP) =  -812.024608269     A.U. after   16 cycles
 Normal termination of Gaussian 16 at Fri Dec 11 22:40:10 2020.

 ----------------------------------------------------------------------
 # B3LYP/6-311++G(d,p) empiricaldispersion=gd3bj scf=xqc pop=npa geom=c
 heck
 ----------------------------------------------------------------------

 ------------------------------------
 CID_10777207_JID_8747_Energie_kation
 ------------------------------------
 Structure from the checkpoint file:  "JID_8747.chk"
 Charge =  1 Multiplicity = 2

 SCF Done:  E(UB3LYP) =  -811.720167323     A.U. after   24 cycles
 Normal termination of Gaussian 16 at Fri Dec 11 22:57:43 2020.
 Gaussian 16:  ES64L-G16RevA.03 25-Dec-2016

 ----------------------------------------------------------------------
 # B3LYP/6-311++G(d,p) empiricaldispersion=gd3bj scf=xqc pop=npa geom=c
 heck
 ----------------------------------------------------------------------

 -----------------------------------
 CID_10777207_JID_8747_Energie_anion
 -----------------------------------
 Structure from the checkpoint file:  "JID_8747.chk"
 Charge = -1 Multiplicity = 2

                         Standard orientation:
 ---------------------------------------------------------------------
 Center     Atomic      Atomic             Coordinates (Angstroms)
 Number     Number       Type             X           Y           Z
 ---------------------------------------------------------------------
      1          6           0        0.099896    2.960892    0.376902
      2          6           0       -0.113747    1.534755   -0.017553
      3          6           0        0.796222    0.702773   -0.579570
      4          6           0        0.430328   -0.707264   -0.753421
      5          8           0        1.183686   -1.589150   -1.108101
      6          8           0       -0.854533   -1.053762   -0.409478
      7          6           0       -1.865079   -0.046384   -0.378026
      8          8           0       -1.377540    1.140030    0.277825
      9          6           0       -2.250600    0.320025   -1.809840
     10          6           0       -3.012459   -0.596817    0.510592
     11          6           0       -2.447940   -0.926577    1.905454
     12          6           0       -4.125924    0.456393    0.651979
     13          6           0       -3.588029   -1.878406   -0.118190
     14          6           0        2.211636    1.110299   -0.924140
     15          6           0        3.163849    1.200579    0.285941
     16          6           0        3.391171   -0.121294    1.045696
     17          6           0        4.104727   -1.166319    0.231846
     18          6           0        5.365656   -1.546071    0.441871
     19          1           0       -0.634018    3.599304   -0.128217
     20          1           0        1.104696    3.306346    0.135860
     21          1           0       -0.062041    3.074459    1.455355
     22          1           0       -2.576685   -0.569719   -2.351392
     23          1           0       -3.051049    1.062350   -1.818141
     24          1           0       -1.384517    0.737566   -2.329878
     25          1           0       -2.033304   -0.035036    2.384365
     26          1           0       -3.249321   -1.315549    2.542624
     27          1           0       -1.660968   -1.682430    1.843260
     28          1           0       -4.621066    0.662357   -0.302614
     29          1           0       -4.890345    0.084666    1.342535
     30          1           0       -3.736559    1.397451    1.050357
     31          1           0       -4.089288   -1.677478   -1.070769
     32          1           0       -2.804659   -2.621756   -0.288366
     33          1           0       -4.331994   -2.312214    0.558409
     34          1           0        2.603187    0.384327   -1.641558
     35          1           0        2.203363    2.079807   -1.436258
     36          1           0        4.134297    1.575231   -0.063859
     37          1           0        2.774154    1.944836    0.993211
     38          1           0        3.973191    0.097227    1.949908
     39          1           0        2.420135   -0.512042    1.379772
     40          1           0        3.528519   -1.614909   -0.574206
     41          1           0        5.849167   -2.296658   -0.177985
     42          1           0        5.963951   -1.124587    1.248373
 ---------------------------------------------------------------------

 SCF Done:  E(UB3LYP) =  -812.019675347     A.U. after   33 cycles
 SCF Done:  E(UB3LYP) =  -812.019675347     a.u. after    1 cycles

 The electronic state is 2-A.
 Alpha  occ. eigenvalues --  -19.04128 -19.03367 -18.96242 -10.18534 -10.15352
 Alpha  occ. eigenvalues --  -10.10831 -10.09222 -10.06643 -10.06518 -10.06362
 Alpha  occ. eigenvalues --  -10.06277 -10.06131 -10.06025 -10.05998 -10.05881
 Alpha  occ. eigenvalues --  -10.05690 -10.05394 -10.04392  -0.99759  -0.94313
 Alpha  occ. eigenvalues --   -0.88425  -0.73643  -0.70816  -0.68456  -0.65349
 Alpha  occ. eigenvalues --   -0.63381  -0.61026  -0.59335  -0.58879  -0.56911
 Alpha  occ. eigenvalues --   -0.54447  -0.50407  -0.49051  -0.45675  -0.44178
 Alpha  occ. eigenvalues --   -0.43191  -0.39632  -0.38081  -0.37194  -0.35504
 Alpha  occ. eigenvalues --   -0.34672  -0.34449  -0.33588  -0.32875  -0.32105
 Alpha  occ. eigenvalues --   -0.31631  -0.31322  -0.30634  -0.30394  -0.29813
 Alpha  occ. eigenvalues --   -0.29091  -0.28690  -0.28313  -0.28067  -0.26998
 Alpha  occ. eigenvalues --   -0.26752  -0.26289  -0.25150  -0.24042  -0.23959
 Alpha  occ. eigenvalues --   -0.23480  -0.22926  -0.22660  -0.21437  -0.20401
 Alpha  occ. eigenvalues --   -0.17911  -0.15839  -0.14473  -0.11602   0.04477
 Alpha virt. eigenvalues --    0.06262   0.07240   0.07783   0.08019   0.08728
 Alpha virt. eigenvalues --    0.08988   0.09332   0.09778   0.09972   0.10510
 Alpha virt. eigenvalues --    0.11083   0.11273   0.11572   0.11870   0.12166

  Beta  occ. eigenvalues --  -19.04050 -19.03337 -18.96041 -10.18522 -10.15166
  Beta  occ. eigenvalues --  -10.10414 -10.09222 -10.06644 -10.06513 -10.06351
  Beta  occ. eigenvalues --  -10.06262 -10.06124 -10.06014 -10.05984 -10.05888
  Beta  occ. eigenvalues --  -10.05684 -10.05382 -10.04429  -0.99594  -0.94062
  Beta  occ. eigenvalues --   -0.88140  -0.73540  -0.70760  -0.68277  -0.65286
  Beta  occ. eigenvalues --   -0.63259  -0.60886  -0.59306  -0.58843  -0.56829
  Beta  occ. eigenvalues --   -0.54398  -0.50067  -0.48998  -0.45610  -0.44139
  Beta  occ. eigenvalues --   -0.42908  -0.39481  -0.37960  -0.37162  -0.35402
  Beta  occ. eigenvalues --   -0.34502  -0.34376  -0.33515  -0.32703  -0.31974
  Beta  occ. eigenvalues --   -0.31389  -0.31050  -0.30517  -0.30297  -0.29655
  Beta  occ. eigenvalues --   -0.28970  -0.28580  -0.28067  -0.28006  -0.26915
  Beta  occ. eigenvalues --   -0.26669  -0.26216  -0.25000  -0.23929  -0.23874
  Beta  occ. eigenvalues --   -0.23433  -0.22794  -0.22587  -0.21364  -0.20173
  Beta  occ. eigenvalues --   -0.17410  -0.15784  -0.14292  -0.10713
  Beta virt. eigenvalues --    0.06424   0.07313   0.07882   0.08225   0.08829
  Beta virt. eigenvalues --    0.09116   0.09379   0.09655   0.09964   0.10077
  Beta virt. eigenvalues --    0.10598   0.11191   0.11388   0.11555   0.11975

 Mulliken charges and spin densities:
               1          2
     1  C    1.064757  -1.697142
     2  C   -0.755981   1.167593
     3  C    0.995721  -0.328175
     4  C    0.027731   0.041892
     5  O   -0.340575   0.062352
     6  O    0.090557   0.000118
     7  C   -1.346167  -0.048902
     8  O    0.154462   0.042620
     9  C    0.079852  -0.413736
    10  C   -0.058275   0.786996
    11  C   -0.169773  -0.245333
    12  C    0.031039  -0.612528
    13  C   -0.252276  -0.318227
    14  C   -0.719085   0.132597
    15  C    0.010965  -0.367026
    16  C   -0.231785   0.028650
    17  C    0.137889   0.086117
    18  C   -0.580977  -0.176839
    19  H    0.059872   0.083868
    20  H   -0.099632   0.230402
    21  H   -0.397699   0.595234
    22  H    0.145171   0.040736
    23  H    0.028920   0.152415
    24  H    0.155014  -0.018044
    25  H    0.048044   0.098827
    26  H    0.079551   0.094670
    27  H    0.115297   0.034588
    28  H   -0.095029   0.219389
    29  H   -0.029187   0.181783
    30  H    0.048325   0.134096
    31  H    0.031927   0.094023
    32  H    0.183912   0.000307
    33  H   -0.020475   0.170755
    34  H    0.172160   0.005491
    35  H   -0.040567   0.225351
    36  H    0.026353   0.108925
    37  H   -0.052377   0.187696
    38  H   -0.008560   0.181712
    39  H    0.136205  -0.010908
    40  H    0.209512   0.027220
    41  H    0.101671  -0.003546
    42  H    0.063511   0.023986
 Sum of Mulliken charges =  -1.00000   1.00000

 Dipole moment (field-independent basis, Debye):
    X=             -1.2179    Y=             -0.9427    Z=             -1.3869  Tot=              2.0726
 Quadrupole moment (field-independent basis, Debye-Ang):
   XX=           -172.8466   YY=           -153.6615   ZZ=           -138.6134
   XY=              1.6139   XZ=              2.7791   YZ=             -8.0717

 Summary of Natural Population Analysis:

                                       Natural Population
                Natural  -----------------------------------------------
    Atom  No    Charge         Core      Valence    Rydberg      Total
 -----------------------------------------------------------------------
      C    1   -0.31152      0.99963     2.30601    0.00589     3.31152
      C    2    0.27616      0.99936     1.71117    0.01330     2.72384
      C    3   -0.15202      0.99938     2.14218    0.01045     3.15202
      C    4    0.41746      0.99956     1.55849    0.02449     2.58254
      O    5   -0.29943      0.99987     3.29398    0.00558     4.29943
      O    6   -0.30296      0.99984     3.29423    0.00889     4.30296
      C    7    0.31399      0.99946     1.66602    0.02052     2.68601
      O    8   -0.28864      0.99984     3.27758    0.01122     4.28864
      C    9   -0.31078      0.99958     2.30503    0.00616     3.31078
      C   10   -0.05792      0.99951     2.04541    0.01299     3.05792
      C   11   -0.28654      0.99963     2.27932    0.00759     3.28654
      C   12   -0.28672      0.99963     2.27980    0.00730     3.28672
      C   13   -0.28593      0.99963     2.28058    0.00572     3.28593
      C   14   -0.19733      0.99961     2.18707    0.01065     3.19733
      C   15   -0.18059      0.99962     2.17280    0.00817     3.18059
      C   16   -0.21214      0.99961     2.20184    0.01070     3.21214
      C   17   -0.07532      0.99956     2.06619    0.00957     3.07532
      C   18   -0.20849      0.99957     2.20224    0.00668     3.20849
      H   19    0.10575      0.00000     0.39316    0.00109     0.39425
      H   20    0.10446      0.00000     0.39459    0.00096     0.39554
      H   21    0.11594      0.00000     0.38068    0.00338     0.38406
      H   22    0.10448      0.00000     0.39471    0.00081     0.39552
      H   23    0.10393      0.00000     0.39525    0.00083     0.39607
      H   24    0.11137      0.00000     0.38768    0.00095     0.38863
      H   25    0.10808      0.00000     0.39097    0.00096     0.39192
      H   26    0.09444      0.00000     0.40487    0.00069     0.40556
      H   27    0.10825      0.00000     0.39077    0.00098     0.39175
      H   28    0.09768      0.00000     0.40145    0.00086     0.40232
      H   29    0.09828      0.00000     0.40094    0.00078     0.40172
      H   30    0.10954      0.00000     0.38927    0.00119     0.39046
      H   31    0.09723      0.00000     0.40198    0.00079     0.40277
      H   32    0.11025      0.00000     0.38868    0.00107     0.38975
      H   33    0.09805      0.00000     0.40119    0.00076     0.40195
      H   34    0.10913      0.00000     0.38966    0.00121     0.39087
      H   35    0.09860      0.00000     0.40049    0.00091     0.40140
      H   36    0.09148      0.00000     0.40735    0.00117     0.40852
      H   37    0.09628      0.00000     0.40240    0.00132     0.40372
      H   38    0.09420      0.00000     0.40471    0.00109     0.40580
      H   39    0.10824      0.00000     0.39041    0.00135     0.39176
      H   40    0.10983      0.00000     0.38894    0.00123     0.39017
      H   41    0.08880      0.00000     0.41015    0.00105     0.41120
      H   42    0.08446      0.00000     0.41424    0.00131     0.41554
 =======================================================================
   * Total *    0.00000     17.99287    50.79451    0.21261    69.00000

 Normal termination of Gaussian 16 at Fri Dec 11 23:22:01 2020.
