 Gaussian 16, Revision A.03,

 -----------------------------------------------------------
 # opt freq B3LYP/6-31G(d) empiricaldispersion=gd3bj scf=xqc
 -----------------------------------------------------------

 -------------------------------
 CID_116654422_JID_5232_neutraal
 -------------------------------
 Symbolic Z-matrix:
 Charge =  0 Multiplicity = 1

 SCF Done:  E(RB3LYP) =  -672.801906170     A.U. after   15 cycles
 SCF Done:  E(RB3LYP) =  -672.805171664     A.U. after   12 cycles
 SCF Done:  E(RB3LYP) =  -672.805530998     A.U. after   11 cycles
 SCF Done:  E(RB3LYP) =  -672.805810054     A.U. after   11 cycles
 SCF Done:  E(RB3LYP) =  -672.806039351     A.U. after   12 cycles
 SCF Done:  E(RB3LYP) =  -672.806298244     A.U. after   11 cycles
 SCF Done:  E(RB3LYP) =  -672.806452515     A.U. after   11 cycles
 SCF Done:  E(RB3LYP) =  -672.806408436     A.U. after   12 cycles
 SCF Done:  E(RB3LYP) =  -672.806645731     A.U. after   12 cycles
 SCF Done:  E(RB3LYP) =  -672.806672714     A.U. after   10 cycles
 SCF Done:  E(RB3LYP) =  -672.806806818     A.U. after    8 cycles
 SCF Done:  E(RB3LYP) =  -672.806806828     A.U. after    8 cycles
 SCF Done:  E(RB3LYP) =  -672.806806819     A.U. after    8 cycles
 SCF Done:  E(RB3LYP) =  -672.806806818     A.U. after    6 cycles
 SCF Done:  E(RB3LYP) =  -672.806806817     A.U. after    5 cycles
 Optimization completed.
    -- Stationary point found.
 Normal termination of Gaussian 16 at Thu Dec 10 15:14:01 2020.

 --------------------------------------------------------------------
 #N Geom=AllCheck Guess=TCheck SCRF=Check GenChk RB3LYP/6-31G(d) Freq
 --------------------------------------------------------------------

 Structure from the checkpoint file:  "JID_5232.chk"
 -------------------------------
 CID_116654422_JID_5232_neutraal
 -------------------------------
 Charge =  0 Multiplicity = 1

 SCF Done:  E(RB3LYP) =  -672.806806817     A.U. after    1 cycles

  Exact polarizability: 167.125  -6.341 146.870   8.409   2.076  88.769
 Approx polarizability: 223.989 -10.215 222.270  11.737   3.179 142.782

                      1                      2                      3
                      A                      A                      A
 Frequencies --      9.3807                13.1262                34.9671
 Red. masses --      2.6708                 1.1753                 3.5021
 Frc consts  --      0.0001                 0.0001                 0.0025
 IR Inten    --      0.2649                 0.1648                 0.0319

                      4                      5                      6
                      A                      A                      A
 Frequencies --     44.8191                75.2167               129.0495
 Red. masses --      3.6378                 5.2964                 3.0636
 Frc consts  --      0.0043                 0.0177                 0.0301
 IR Inten    --      0.1255                 2.2903                 0.4166

                      7                      8                      9
                      A                      A                      A
 Frequencies --    150.6715               161.8154               216.2292
 Red. masses --      4.4600                 5.3353                 3.0000
 Frc consts  --      0.0597                 0.0823                 0.0826
 IR Inten    --      0.6922                 0.6677                 1.7711

                     10                     11                     12
                      A                      A                      A
 Frequencies --    226.5362               235.2170               248.3164
 Red. masses --      2.9849                 1.2310                 1.0986
 Frc consts  --      0.0903                 0.0401                 0.0399
 IR Inten    --      6.2577                 0.9199                 0.1787

                     13                     14                     15
                      A                      A                      A
 Frequencies --    284.8096               331.1238               365.0513
 Red. masses --      2.5246                 3.9056                 2.6353
 Frc consts  --      0.1207                 0.2523                 0.2069
 IR Inten    --      0.9923                 0.2106                 2.2517

                     16                     17                     18
                      A                      A                      A
 Frequencies --    405.4643               420.0331               448.1334
 Red. masses --      2.3357                 3.4160                 3.1521
 Frc consts  --      0.2262                 0.3551                 0.3730
 IR Inten    --      1.5132                 8.2514                 3.3735

                     19                     20                     21
                      A                      A                      A
 Frequencies --    460.2507               509.1691               533.7376
 Red. masses --      2.7161                 3.8193                 3.6972
 Frc consts  --      0.3390                 0.5834                 0.6206
 IR Inten    --      3.1366                10.7707                10.5045

                     22                     23                     24
                      A                      A                      A
 Frequencies --    545.7429               600.8823               629.0539
 Red. masses --      2.3276                 2.2601                 2.8289
 Frc consts  --      0.4084                 0.4808                 0.6596
 IR Inten    --     40.2641                67.7548                11.6024

                     25                     26                     27
                      A                      A                      A
 Frequencies --    680.7776               721.5146               750.8549
 Red. masses --      2.8488                 2.5750                 3.3054
 Frc consts  --      0.7779                 0.7898                 1.0979
 IR Inten    --     12.6521                13.9635                10.2430

                     28                     29                     30
                      A                      A                      A
 Frequencies --    768.5709               806.1646               814.4723
 Red. masses --      9.2147                 2.0203                 3.2374
 Frc consts  --      3.2070                 0.7736                 1.2653
 IR Inten    --     45.4195                11.7294                 6.7351

                     31                     32                     33
                      A                      A                      A
 Frequencies --    893.9646               907.7867               920.4521
 Red. masses --      3.1673                 1.3164                 1.5454
 Frc consts  --      1.4913                 0.6392                 0.7714
 IR Inten    --      1.4134                 0.4315                 2.7872

                     34                     35                     36
                      A                      A                      A
 Frequencies --    941.4517               947.7105               956.2481
 Red. masses --      2.2181                 1.2084                 1.4056
 Frc consts  --      1.1583                 0.6395                 0.7573
 IR Inten    --      3.5022                 1.7953                 0.3272

                     37                     38                     39
                      A                      A                      A
 Frequencies --    957.8649               974.8986              1020.0344
 Red. masses --      2.3383                 1.2805                 3.6550
 Frc consts  --      1.2641                 0.7170                 2.2406
 IR Inten    --      5.0200                 0.1280                 2.3066

                     40                     41                     42
                      A                      A                      A
 Frequencies --   1027.9583              1044.7164              1076.7618
 Red. masses --      2.1263                 2.0750                 1.5219
 Frc consts  --      1.3238                 1.3344                 1.0397
 IR Inten    --     10.8622                43.2373                 4.6271

                     43                     44                     45
                      A                      A                      A
 Frequencies --   1127.5162              1131.2692              1173.4006
 Red. masses --      2.6719                 1.7012                 2.1325
 Frc consts  --      2.0013                 1.2827                 1.7299
 IR Inten    --     20.9489                10.2300                 9.6639

                     46                     47                     48
                      A                      A                      A
 Frequencies --   1186.6443              1191.4319              1209.1240
 Red. masses --      2.3580                 1.6550                 1.1474
 Frc consts  --      1.9563                 1.3842                 0.9883
 IR Inten    --    220.5573                12.6051                 0.7492

                     49                     50                     51
                      A                      A                      A
 Frequencies --   1219.5437              1265.6336              1280.3290
 Red. masses --      1.9201                 1.4296                 3.5563
 Frc consts  --      1.6825                 1.3492                 3.4347
 IR Inten    --      4.9991                79.9056                 3.7977

                     52                     53                     54
                      A                      A                      A
 Frequencies --   1350.5361              1356.8014              1367.5582
 Red. masses --      1.6036                 1.7270                 3.0431
 Frc consts  --      1.7233                 1.8731                 3.3532
 IR Inten    --     28.6424               226.8762                 8.3989

                     55                     56                     57
                      A                      A                      A
 Frequencies --   1390.6004              1407.3714              1427.4647
 Red. masses --      1.2982                 1.3144                 1.3574
 Frc consts  --      1.4791                 1.5339                 1.6297
 IR Inten    --      3.2989                18.5129                18.8185

                     58                     59                     60
                      A                      A                      A
 Frequencies --   1439.3890              1442.5474              1442.7444
 Red. masses --      1.4221                 1.3380                 1.3521
 Frc consts  --      1.7360                 1.6405                 1.6583
 IR Inten    --    120.4478                13.5303                16.4960

                     61                     62                     63
                      A                      A                      A
 Frequencies --   1481.9726              1492.0564              1508.5665
 Red. masses --      2.0009                 1.5452                 1.0460
 Frc consts  --      2.5892                 2.0267                 1.4025
 IR Inten    --      6.5698                23.4489                 0.2995

                     64                     65                     66
                      A                      A                      A
 Frequencies --   1514.9559              1516.1541              1520.9139
 Red. masses --      1.0469                 1.1463                 1.0628
 Frc consts  --      1.4157                 1.5525                 1.4485
 IR Inten    --      4.2158                20.4658                30.5327

                     67                     68                     69
                      A                      A                      A
 Frequencies --   1527.0979              1530.5452              1545.3747
 Red. masses --      1.3531                 1.0501                 1.9237
 Frc consts  --      1.8592                 1.4494                 2.7068
 IR Inten    --      4.7574                 0.1785                10.5848

                     70                     71                     72
                      A                      A                      A
 Frequencies --   1550.5448              1652.0589              1671.1460
 Red. masses --      1.0648                 5.5006                 5.6382
 Frc consts  --      1.5083                 8.8453                 9.2772
 IR Inten    --     13.9002                 3.0290                 9.3196

                     73                     74                     75
                      A                      A                      A
 Frequencies --   1812.9576              3044.1646              3058.6117
 Red. masses --      8.4152                 1.0374                 1.0388
 Frc consts  --     16.2964                 5.6643                 5.7255
 IR Inten    --    438.0674                29.1055                24.0838

                     76                     77                     78
                      A                      A                      A
 Frequencies --   3062.5775              3074.7867              3079.0442
 Red. masses --      1.0424                 1.0687                 1.0822
 Frc consts  --      5.7606                 5.9529                 6.0451
 IR Inten    --     11.5801                37.2188                32.5374

                     79                     80                     81
                      A                      A                      A
 Frequencies --   3097.4271              3119.7002              3124.8226
 Red. masses --      1.1005                 1.1020                 1.1018
 Frc consts  --      6.2205                 6.3190                 6.3387
 IR Inten    --     19.5783                30.8513                32.8935

                     82                     83                     84
                      A                      A                      A
 Frequencies --   3125.2311              3149.6428              3171.6900
 Red. masses --      1.1013                 1.0965                 1.1000
 Frc consts  --      6.3375                 6.4087                 6.5194
 IR Inten    --     25.2603                 4.6547                 1.2262

                     85                     86                     87
                      A                      A                      A
 Frequencies --   3173.2027              3175.6281              3180.0992
 Red. masses --      1.0860                 1.0994                 1.0904
 Frc consts  --      6.4427                 6.5325                 6.4970
 IR Inten    --      0.5343                14.7938                26.0197

                     88                     89                     90
                      A                      A                      A
 Frequencies --   3199.2075              3201.8577              3617.2334
 Red. masses --      1.0908                 1.0951                 1.0761
 Frc consts  --      6.5775                 6.6144                 8.2960
 IR Inten    --     20.6613                16.4293                27.3155

 - Thermochemistry -
 -------------------
 Temperature   298.150 Kelvin.  Pressure   1.00000 Atm.
 Atom     1 has atomic number  6 and mass  12.00000

 Molecular mass:   207.12593 amu.
 Principal axes and moments of inertia in atomic units:
                           1         2         3
     Eigenvalues --  1728.692525259.817716389.51301
           X            0.99995  -0.00776   0.00682
           Y            0.00767   0.99989   0.01306
           Z           -0.00692  -0.01300   0.99989
 This molecule is an asymmetric top.
 Rotational symmetry number  1.
 Warning -- assumption of classical behavior for rotation
           may cause significant error
 Rotational temperatures (Kelvin)      0.05010     0.01647     0.01356
 Rotational constants (GHZ):           1.04399     0.34312     0.28245
 Zero-point vibrational energy     721827.8 (Joules/Mol)
                                  172.52097 (Kcal/Mol)
 Warning -- explicit consideration of  23 degrees of freedom as
           vibrations may cause significant error
 Vibrational temperatures:     13.50    18.89    50.31    64.48   108.22
          (Kelvin)            185.67   216.78   232.82   311.11   325.94
                              338.42   357.27   409.78   476.41   525.23
                              583.37   604.33   644.76   662.20   732.58
                              767.93   785.20   864.54   905.07   979.49
                             1038.10  1080.31  1105.80  1159.89  1171.84
                             1286.22  1306.10  1324.33  1354.54  1363.54
                             1375.83  1378.15  1402.66  1467.60  1479.00
                             1503.11  1549.22  1622.24  1627.64  1688.26
                             1707.32  1714.20  1739.66  1754.65  1820.96
                             1842.11  1943.12  1952.13  1967.61  2000.76
                             2024.89  2053.80  2070.96  2075.50  2075.79
                             2132.23  2146.74  2170.49  2179.68  2181.41
                             2188.26  2197.15  2202.11  2223.45  2230.89
                             2376.94  2404.41  2608.44  4379.87  4400.66
                             4406.37  4423.93  4430.06  4456.51  4488.55
                             4495.92  4496.51  4531.63  4563.35  4565.53
                             4569.02  4575.45  4602.95  4606.76  5204.39

 Zero-point correction=                           0.274930 (Hartree/Particle)
 Thermal correction to Energy=                    0.290623
 Thermal correction to Enthalpy=                  0.291567
 Thermal correction to Gibbs Free Energy=         0.228159
 Sum of electronic and zero-point Energies=           -672.531877
 Sum of electronic and thermal Energies=              -672.516184
 Sum of electronic and thermal Enthalpies=            -672.515240
 Sum of electronic and thermal Free Energies=         -672.578648

                     E (Thermal)             CV                S
                      KCal/Mol        Cal/Mol-Kelvin    Cal/Mol-Kelvin
 Total                  182.369             57.697            133.454
 Electronic               0.000              0.000              0.000
 Translational            0.889              2.981             41.888
 Rotational               0.889              2.981             32.430
 Vibrational            180.591             51.735             59.136
 Vibration     1          0.593              1.987              8.138
 Vibration     2          0.593              1.987              7.471
 Vibration     3          0.594              1.982              5.526
 Vibration     4          0.595              1.979              5.034
 Vibration     5          0.599              1.966              4.012
 Vibration     6          0.612              1.924              2.960
 Vibration     7          0.618              1.902              2.664
 Vibration     8          0.622              1.889              2.528
 Vibration     9          0.645              1.816              1.990
 Vibration    10          0.650              1.801              1.906
 Vibration    11          0.655              1.787              1.839
 Vibration    12          0.662              1.766              1.742
 Vibration    13          0.683              1.702              1.505
 Vibration    14          0.713              1.613              1.255
 Vibration    15          0.738              1.544              1.101
 Vibration    16          0.770              1.458              0.943
 Vibration    17          0.783              1.427              0.892
 Vibration    18          0.807              1.365              0.801
 Vibration    19          0.818              1.338              0.765
 Vibration    20          0.864              1.230              0.636
 Vibration    21          0.889              1.175              0.579
 Vibration    22          0.901              1.149              0.553
 Vibration    23          0.959              1.030              0.448

 Optimization completed.
    -- Stationary point found.
 Normal termination of Gaussian 16 at Thu Dec 10 15:24:38 2020.

 ----------------------------------------------------------------------
 # B3LYP/6-311++G(d,p) empiricaldispersion=gd3bj scf=xqc pop=npa geom=c
 heck
 ----------------------------------------------------------------------

 ---------------------------------------
 CID_116654422_JID_5232_Energie_neutraal
 ---------------------------------------
 Structure from the checkpoint file:  "JID_5232.chk"
 Charge =  0 Multiplicity = 1

 SCF Done:  E(RB3LYP) =  -672.996916517     A.U. after   15 cycles
 Normal termination of Gaussian 16 at Thu Dec 10 15:29:43 2020.

 ----------------------------------------------------------------------
 # B3LYP/6-311++G(d,p) empiricaldispersion=gd3bj scf=xqc pop=npa geom=c
 heck
 ----------------------------------------------------------------------

 -------------------------------------
 CID_116654422_JID_5232_Energie_kation
 -------------------------------------
 Structure from the checkpoint file:  "JID_5232.chk"
 Charge =  1 Multiplicity = 2

 SCF Done:  E(UB3LYP) =  -672.685097641     A.U. after   29 cycles
 Normal termination of Gaussian 16 at Thu Dec 10 15:43:50 2020.
 Gaussian 16:  ES64L-G16RevA.03 25-Dec-2016

 ----------------------------------------------------------------------
 # B3LYP/6-311++G(d,p) empiricaldispersion=gd3bj scf=xqc pop=npa geom=c
 heck
 ----------------------------------------------------------------------

 ------------------------------------
 CID_116654422_JID_5232_Energie_anion
 ------------------------------------
 Structure from the checkpoint file:  "JID_5232.chk"
 Charge = -1 Multiplicity = 2

                         Standard orientation:
 ---------------------------------------------------------------------
 Center     Atomic      Atomic             Coordinates (Angstroms)
 Number     Number       Type             X           Y           Z
 ---------------------------------------------------------------------
      1          6           0        2.364929    2.752921    0.036885
      2          6           0        2.507425    1.250931   -0.015698
      3          6           0        1.424627    0.438917   -0.355169
      4          6           0        1.544499   -0.956297   -0.412962
      5          6           0        2.778335   -1.542248   -0.127654
      6          6           0        3.873601   -0.743775    0.211574
      7          6           0        3.738213    0.639959    0.268951
      8          6           0        0.336847   -1.811764   -0.743054
      9          7           0       -0.659710   -1.851087    0.327024
     10          6           0       -1.663475   -0.937447    0.513057
     11          8           0       -2.302203   -0.845816    1.548055
     12          8           0       -1.859912   -0.193510   -0.605519
     13          6           0       -2.911783    0.814984   -0.609156
     14          6           0       -4.294309    0.187531   -0.463911
     15          6           0       -2.624799    1.925974    0.396362
     16          1           0        1.326959    3.059911   -0.124661
     17          1           0        2.685802    3.150212    1.007166
     18          1           0        2.980530    3.239648   -0.729939
     19          1           0        0.463770    0.892981   -0.580156
     20          1           0        2.885086   -2.623823   -0.170356
     21          1           0        4.832359   -1.204669    0.433176
     22          1           0        4.592986    1.257230    0.535755
     23          1           0       -0.168835   -1.445261   -1.637528
     24          1           0        0.653027   -2.841418   -0.941655
     25          1           0       -0.383182   -2.288836    1.195928
     26          1           0       -2.811934    1.219419   -1.621447
     27          1           0       -4.436855   -0.212427    0.541009
     28          1           0       -5.060386    0.946511   -0.658943
     29          1           0       -4.422410   -0.621578   -1.190437
     30          1           0       -1.614425    2.323559    0.250539
     31          1           0       -3.337266    2.745120    0.247498
     32          1           0       -2.715003    1.557527    1.419237
 ---------------------------------------------------------------------

 SCF Done:  E(UB3LYP) =  -672.983757011     A.U. after   33 cycles
 SCF Done:  E(UB3LYP) =  -672.983757011     a.u. after    1 cycles

 The electronic state is 2-A.
 Alpha  occ. eigenvalues --  -19.06425 -18.99840 -14.24242 -10.22407 -10.14129
 Alpha  occ. eigenvalues --  -10.11656 -10.08874 -10.08498 -10.07931 -10.07702
 Alpha  occ. eigenvalues --  -10.07521 -10.07370 -10.07241 -10.06823 -10.06563
 Alpha  occ. eigenvalues --   -1.00922  -0.91998  -0.83578  -0.76483  -0.69862
 Alpha  occ. eigenvalues --   -0.68480  -0.66418  -0.60400  -0.60147  -0.59001
 Alpha  occ. eigenvalues --   -0.55902  -0.50732  -0.48838  -0.46680  -0.41944
 Alpha  occ. eigenvalues --   -0.41430  -0.39948  -0.38327  -0.37754  -0.36854
 Alpha  occ. eigenvalues --   -0.35766  -0.35378  -0.33104  -0.32761  -0.32044
 Alpha  occ. eigenvalues --   -0.31756  -0.31391  -0.30486  -0.29276  -0.28601
 Alpha  occ. eigenvalues --   -0.27392  -0.26700  -0.26134  -0.25382  -0.24930
 Alpha  occ. eigenvalues --   -0.24448  -0.20695  -0.18266  -0.17098  -0.15469
 Alpha  occ. eigenvalues --   -0.15009   0.04174
 Alpha virt. eigenvalues --    0.05826   0.06555   0.07206   0.07684   0.07872
 Alpha virt. eigenvalues --    0.08203   0.08552   0.09705   0.09764   0.10107
 Alpha virt. eigenvalues --    0.10593   0.11294   0.11838   0.12288   0.12769

  Beta  occ. eigenvalues --  -19.06419 -18.99835 -14.24230 -10.22405 -10.14112
  Beta  occ. eigenvalues --  -10.11641 -10.08881 -10.08476 -10.07912 -10.07687
  Beta  occ. eigenvalues --  -10.07485 -10.07343 -10.07216 -10.06804 -10.06539
  Beta  occ. eigenvalues --   -1.00911  -0.91988  -0.83555  -0.76441  -0.69825
  Beta  occ. eigenvalues --   -0.68440  -0.66362  -0.60354  -0.60103  -0.58944
  Beta  occ. eigenvalues --   -0.55871  -0.50671  -0.48791  -0.46637  -0.41893
  Beta  occ. eigenvalues --   -0.41397  -0.39903  -0.38282  -0.37721  -0.36820
  Beta  occ. eigenvalues --   -0.35721  -0.35339  -0.33067  -0.32727  -0.32022
  Beta  occ. eigenvalues --   -0.31720  -0.31358  -0.30454  -0.29246  -0.28566
  Beta  occ. eigenvalues --   -0.27363  -0.26673  -0.26070  -0.25336  -0.24893
  Beta  occ. eigenvalues --   -0.24410  -0.20677  -0.18251  -0.17054  -0.15382
  Beta  occ. eigenvalues --   -0.14909
  Beta virt. eigenvalues --    0.06272   0.06862   0.07155   0.07536   0.07965
  Beta virt. eigenvalues --    0.08260   0.08671   0.08886   0.10068   0.10266
  Beta virt. eigenvalues --    0.10432   0.10800   0.11478   0.12169   0.12463

 Mulliken charges and spin densities:
               1          2
     1  C    1.099278  -1.528086
     2  C   -0.445170   0.609148
     3  C   -2.225507   1.660648
     4  C    0.123215   1.018958
     5  C    0.837855  -1.117303
     6  C    0.442930  -0.797283
     7  C    0.623315  -0.779140
     8  C    0.525345  -1.374129
     9  N   -0.070020  -0.004429
    10  C    0.192382  -0.345461
    11  O   -0.296020   0.007068
    12  O   -0.003935  -0.005676
    13  C   -0.401752   0.422940
    14  C    0.122346  -0.613769
    15  C    0.440097  -0.884539
    16  H   -0.426108   0.573865
    17  H   -0.103377   0.254393
    18  H   -0.032303   0.185488
    19  H    0.487913  -0.436187
    20  H   -0.442861   0.579076
    21  H   -0.480906   0.643210
    22  H   -0.232757   0.384477
    23  H   -0.043801   0.262250
    24  H   -0.351649   0.559978
    25  H    0.236727   0.050121
    26  H   -0.645908   0.828453
    27  H    0.133149   0.035366
    28  H   -0.152926   0.303454
    29  H    0.009401   0.130543
    30  H    0.318743  -0.189598
    31  H   -0.332764   0.480424
    32  H    0.095068   0.085740
 Sum of Mulliken charges =  -1.00000   1.00000

 Dipole moment (field-independent basis, Debye):
    X=             -0.7771    Y=             -1.2598    Z=              0.9014  Tot=              1.7330
 Quadrupole moment (field-independent basis, Debye-Ang):
   XX=           -172.1454   YY=           -142.4079   ZZ=           -124.8181
   XY=             10.4472   XZ=             -3.6000   YZ=              1.5604

 Summary of Natural Population Analysis:

                                       Natural Population
                Natural  -----------------------------------------------
    Atom  No    Charge         Core      Valence    Rydberg      Total
 -----------------------------------------------------------------------
      C    1   -0.29094      0.99964     2.28620    0.00511     3.29094
      C    2   -0.01349      0.99952     2.00515    0.00882     3.01349
      C    3   -0.09699      0.99946     2.08929    0.00823     3.09699
      C    4   -0.02120      0.99950     2.01106    0.01065     3.02120
      C    5   -0.10516      0.99951     2.09573    0.00992     3.10516
      C    6   -0.09473      0.99957     2.08439    0.01078     3.09473
      C    7   -0.09821      0.99951     2.08896    0.00974     3.09821
      C    8   -0.09666      0.99957     2.08497    0.01212     3.09666
      N    9   -0.32156      0.99967     2.81227    0.00962     3.82156
      C   10    0.46452      0.99969     1.51083    0.02496     2.53548
      O   11   -0.33649      0.99987     3.33183    0.00479     4.33649
      O   12   -0.29656      0.99986     3.28753    0.00917     4.29656
      C   13    0.06609      0.99955     1.92066    0.01370     2.93391
      C   14   -0.30125      0.99964     2.29557    0.00604     3.30125
      C   15   -0.30116      0.99964     2.29532    0.00621     3.30116
      H   16    0.10362      0.00000     0.39512    0.00126     0.39638
      H   17    0.10374      0.00000     0.39488    0.00138     0.39626
      H   18    0.10290      0.00000     0.39580    0.00129     0.39710
      H   19    0.10472      0.00000     0.39309    0.00218     0.39528
      H   20    0.10079      0.00000     0.39739    0.00181     0.39921
      H   21    0.10034      0.00000     0.39850    0.00116     0.39966
      H   22    0.09880      0.00000     0.40010    0.00110     0.40120
      H   23    0.11241      0.00000     0.38598    0.00161     0.38759
      H   24    0.09940      0.00000     0.39918    0.00142     0.40060
      H   25    0.19438      0.00000     0.30361    0.00202     0.30562
      H   26    0.09260      0.00000     0.40500    0.00240     0.40740
      H   27    0.11054      0.00000     0.38855    0.00091     0.38946
      H   28    0.10231      0.00000     0.39674    0.00095     0.39769
      H   29    0.10162      0.00000     0.39747    0.00091     0.39838
      H   30    0.10211      0.00000     0.39645    0.00144     0.39789
      H   31    0.10303      0.00000     0.39583    0.00114     0.39697
      H   32    0.11047      0.00000     0.38859    0.00094     0.38953
 =======================================================================
   * Total *    0.00000     14.99420    40.83204    0.17376    56.00000

 Normal termination of Gaussian 16 at Thu Dec 10 16:00:12 2020.
