 Gaussian 16, Revision A.03,

 -----------------------------------------------------------
 # opt freq B3LYP/6-31G(d) empiricaldispersion=gd3bj scf=xqc
 -----------------------------------------------------------

 -----------------------------
 CID_54205534_JID_686_neutraal
 -----------------------------
 Symbolic Z-matrix:
 Charge =  0 Multiplicity = 1

 SCF Done:  E(RB3LYP) =  -752.053681430     A.U. after   13 cycles
 SCF Done:  E(RB3LYP) =  -752.055348294     A.U. after   11 cycles
 SCF Done:  E(RB3LYP) =  -752.055657944     A.U. after   11 cycles
 SCF Done:  E(RB3LYP) =  -752.055724234     A.U. after   10 cycles
 SCF Done:  E(RB3LYP) =  -752.055725715     A.U. after    9 cycles
 SCF Done:  E(RB3LYP) =  -752.055732216     A.U. after    8 cycles
 SCF Done:  E(RB3LYP) =  -752.055732349     A.U. after    6 cycles
 Optimization completed.
    -- Stationary point found.

 1\1\GINC-NODE220\FOpt\RB3LYP\6-31G(d)\C9H18S1\VSC10255\08-Dec-2020\0\\
 # opt freq B3LYP/6-31G(d) empiricaldispersion=gd3bj scf=xqc\\CID_54205
 534_JID_686_neutraal\\0,1\C,1.0022031461,0.0805813143,0.0535961556\C,0
 .3176455603,1.2637644587,0.7669802561\C,1.1170614363,2.5644561515,0.48
 75062528\C,1.1745413432,3.0223351828,-0.9730464384\C,-0.210525908,3.32
 64213018,-1.5376675996\S,-1.3006355071,1.8579696018,-1.4896951072\C,-1
 .1870121215,1.4069057416,0.3212393483\C,-1.9589987406,0.079935085,0.41
 0664988\C,-1.9492052688,2.4629658611,1.1399880349\C,0.4121016245,1.006

 Normal termination of Gaussian 16 at Tue Dec  8 12:19:31 2020.

 --------------------------------------------------------------------
 #N Geom=AllCheck Guess=TCheck SCRF=Check GenChk RB3LYP/6-31G(d) Freq
 --------------------------------------------------------------------

 Structure from the checkpoint file:  "JID_686.chk"
 -----------------------------
 CID_54205534_JID_686_neutraal
 -----------------------------
 Charge =  0 Multiplicity = 1

 SCF Done:  E(RB3LYP) =  -752.055732349     A.U. after    1 cycles

  Exact polarizability: 117.332  -2.264 108.583   0.496   1.650  96.454
 Approx polarizability: 167.658  -2.913 155.708   2.320   5.436 147.957

                      1                      2                      3
                      A                      A                      A
 Frequencies --    112.7068               156.5627               217.6986
 Red. masses --      2.8661                 2.1777                 1.1423
 Frc consts  --      0.0215                 0.0315                 0.0319
 IR Inten    --      0.5521                 1.0453                 0.0423

                      4                      5                      6
                      A                      A                      A
 Frequencies --    247.1754               250.8652               257.2358
 Red. masses --      1.4158                 1.4936                 1.3251
 Frc consts  --      0.0510                 0.0554                 0.0517
 IR Inten    --      0.1198                 0.4695                 0.2875

                      7                      8                      9
                      A                      A                      A
 Frequencies --    281.0655               289.4866               321.1205
 Red. masses --      1.6744                 1.8250                 2.1564
 Frc consts  --      0.0779                 0.0901                 0.1310
 IR Inten    --      0.1619                 0.1147                 0.6790

                     10                     11                     12
                      A                      A                      A
 Frequencies --    341.4315               357.8852               362.8999
 Red. masses --      2.5908                 2.9016                 1.8502
 Frc consts  --      0.1780                 0.2190                 0.1436
 IR Inten    --      1.0139                 0.1604                 0.0180

                     13                     14                     15
                      A                      A                      A
 Frequencies --    380.1802               399.9419               437.5470
 Red. masses --      2.8245                 2.5930                 2.4602
 Frc consts  --      0.2405                 0.2444                 0.2775
 IR Inten    --      0.3839                 0.0192                 0.0968

                     16                     17                     18
                      A                      A                      A
 Frequencies --    464.0910               468.2888               537.2423
 Red. masses --      2.6343                 2.7010                 2.0462
 Frc consts  --      0.3343                 0.3490                 0.3480
 IR Inten    --      0.2347                 0.1053                 1.0110

                     19                     20                     21
                      A                      A                      A
 Frequencies --    598.1964               685.4204               711.8844
 Red. masses --      2.8878                 4.7613                 2.6761
 Frc consts  --      0.6088                 1.3179                 0.7990
 IR Inten    --      1.3512                 1.4485                 1.7218

                     22                     23                     24
                      A                      A                      A
 Frequencies --    818.3052               864.3139               883.0855
 Red. masses --      2.1294                 1.5168                 2.4312
 Frc consts  --      0.8401                 0.6676                 1.1171
 IR Inten    --      3.0236                 2.0894                 1.4237

                     25                     26                     27
                      A                      A                      A
 Frequencies --    936.9826               952.1956               957.8719
 Red. masses --      2.2400                 1.8361                 1.6190
 Frc consts  --      1.1587                 0.9809                 0.8752
 IR Inten    --      1.2863                 0.4070                 1.8583

                     28                     29                     30
                      A                      A                      A
 Frequencies --    961.0199               969.3603              1025.5326
 Red. masses --      1.5934                 1.5955                 1.3316
 Frc consts  --      0.8671                 0.8833                 0.8252
 IR Inten    --      0.2486                 3.8208                 0.6842

                     31                     32                     33
                      A                      A                      A
 Frequencies --   1038.3830              1062.5616              1081.8389
 Red. masses --      1.3051                 1.4979                 1.8729
 Frc consts  --      0.8291                 0.9964                 1.2915
 IR Inten    --      0.0900                 0.4673                 0.6753

                     34                     35                     36
                      A                      A                      A
 Frequencies --   1125.5447              1163.5174              1172.0705
 Red. masses --      1.3953                 1.6750                 2.4064
 Frc consts  --      1.0415                 1.3361                 1.9477
 IR Inten    --      4.0530                22.5516                 9.1063

                     37                     38                     39
                      A                      A                      A
 Frequencies --   1194.0403              1209.7812              1241.3426
 Red. masses --      1.9144                 1.8158                 1.9380
 Frc consts  --      1.6081                 1.5657                 1.7595
 IR Inten    --      5.0258                 8.5841                 2.0232

                     40                     41                     42
                      A                      A                      A
 Frequencies --   1260.5758              1281.4684              1330.1142
 Red. masses --      1.9804                 2.4292                 1.4080
 Frc consts  --      1.8541                 2.3503                 1.4677
 IR Inten    --      1.4622                 0.0591                 5.7278

                     43                     44                     45
                      A                      A                      A
 Frequencies --   1341.9094              1396.7379              1407.1161
 Red. masses --      1.3023                 1.4316                 1.4305
 Frc consts  --      1.3817                 1.6456                 1.6687
 IR Inten    --      9.9819                 0.4990                 0.3600

                     46                     47                     48
                      A                      A                      A
 Frequencies --   1426.7553              1429.4482              1442.3173
 Red. masses --      1.2281                 1.2252                 1.2221
 Frc consts  --      1.4729                 1.4750                 1.4979
 IR Inten    --      3.9983                 5.6283                17.0304

                     49                     50                     51
                      A                      A                      A
 Frequencies --   1457.8931              1499.3510              1505.8839
 Red. masses --      1.2092                 1.0837                 1.0645
 Frc consts  --      1.5143                 1.4354                 1.4223
 IR Inten    --      5.0029                 5.5589                 0.6442

                     52                     53                     54
                      A                      A                      A
 Frequencies --   1513.8397              1517.1854              1522.5280
 Red. masses --      1.0704                 1.0536                 1.0517
 Frc consts  --      1.4453                 1.4289                 1.4364
 IR Inten    --      3.5333                 2.4329                 4.2407

                     55                     56                     57
                      A                      A                      A
 Frequencies --   1528.7326              1531.6193              1538.5875
 Red. masses --      1.0499                 1.0727                 1.0538
 Frc consts  --      1.4456                 1.4826                 1.4698
 IR Inten    --      1.6850                 4.5133                 6.9519

                     58                     59                     60
                      A                      A                      A
 Frequencies --   1542.7477              1547.1533              1555.5749
 Red. masses --      1.0499                 1.0519                 1.0548
 Frc consts  --      1.4723                 1.4836                 1.5039
 IR Inten    --      3.0237                 4.2720                 2.8791

                     61                     62                     63
                      A                      A                      A
 Frequencies --   3031.9220              3040.9757              3051.2438
 Red. masses --      1.0640                 1.0608                 1.0371
 Frc consts  --      5.7629                 5.7795                 5.6887
 IR Inten    --     20.7824                38.2638                12.2022

                     64                     65                     66
                      A                      A                      A
 Frequencies --   3055.2616              3056.3689              3060.1091
 Red. masses --      1.0607                 1.0397                 1.0407
 Frc consts  --      5.8338                 5.7225                 5.7419
 IR Inten    --     21.5252                27.7001                25.1909

                     67                     68                     69
                      A                      A                      A
 Frequencies --   3066.9842              3068.4876              3091.4011
 Red. masses --      1.0393                 1.0994                 1.0961
 Frc consts  --      5.7599                 6.0989                 6.1718
 IR Inten    --     29.6995                27.1336                37.1041

                     70                     71                     72
                      A                      A                      A
 Frequencies --   3111.4674              3112.8700              3116.0802
 Red. masses --      1.1006                 1.1028                 1.1000
 Frc consts  --      6.2777                 6.2961                 6.2933
 IR Inten    --      6.1543                19.4406                63.2724

                     73                     74                     75
                      A                      A                      A
 Frequencies --   3120.0553              3128.3326              3133.2586
 Red. masses --      1.1010                 1.0988                 1.1014
 Frc consts  --      6.3150                 6.3356                 6.3708
 IR Inten    --     11.2930                41.5165                24.3611

                     76                     77                     78
                      A                      A                      A
 Frequencies --   3143.2791              3145.6864              3149.8544
 Red. masses --      1.1021                 1.1001                 1.1009
 Frc consts  --      6.4155                 6.4135                 6.4354
 IR Inten    --     27.1835                23.1547                12.1415

 - Thermochemistry -
 -------------------
 Temperature   298.150 Kelvin.  Pressure   1.00000 Atm.
 Atom     1 has atomic number  6 and mass  12.00000

 Molecular mass:   158.11292 amu.
 Principal axes and moments of inertia in atomic units:
                           1         2         3
     Eigenvalues --  1314.738881531.915561979.08380
           X            0.99270  -0.11926  -0.01820
           Y            0.11869   0.99248  -0.02982
           Z            0.02162   0.02744   0.99939
 This molecule is an asymmetric top.
 Rotational symmetry number  1.
 Warning -- assumption of classical behavior for rotation
           may cause significant error
 Rotational temperatures (Kelvin)      0.06588     0.05654     0.04376
 Rotational constants (GHZ):           1.37270     1.17809     0.91191
 Zero-point vibrational energy     674681.0 (Joules/Mol)
                                  161.25262 (Kcal/Mol)
 Warning -- explicit consideration of  19 degrees of freedom as
           vibrations may cause significant error
 Vibrational temperatures:    162.16   225.26   313.22   355.63   360.94
          (Kelvin)            370.10   404.39   416.51   462.02   491.24
                              514.92   522.13   546.99   575.43   629.53
                              667.72   673.76   772.97   860.67   986.17
                             1024.24  1177.36  1243.55  1270.56  1348.11
                             1370.00  1378.16  1382.69  1394.69  1475.51
                             1494.00  1528.79  1556.52  1619.41  1674.04
                             1686.35  1717.96  1740.61  1786.02  1813.69
                             1843.75  1913.74  1930.71  2009.59  2024.53
                             2052.78  2056.66  2075.17  2097.58  2157.23
                             2166.63  2178.08  2182.89  2190.58  2199.51
                             2203.66  2213.68  2219.67  2226.01  2238.13
                             4362.26  4375.29  4390.06  4395.84  4397.43
                             4402.81  4412.71  4414.87  4447.84  4476.71
                             4478.73  4483.34  4489.06  4500.97  4508.06
                             4522.48  4525.94  4531.94

 Zero-point correction=                           0.256972 (Hartree/Particle)
 Thermal correction to Energy=                    0.268249
 Thermal correction to Enthalpy=                  0.269193
 Thermal correction to Gibbs Free Energy=         0.221927
 Sum of electronic and zero-point Energies=           -751.798760
 Sum of electronic and thermal Energies=              -751.787483
 Sum of electronic and thermal Enthalpies=            -751.786539
 Sum of electronic and thermal Free Energies=         -751.833806

                     E (Thermal)             CV                S
                      KCal/Mol        Cal/Mol-Kelvin    Cal/Mol-Kelvin
 Total                  168.329             45.869             99.481
 Electronic               0.000              0.000              0.000
 Translational            0.889              2.981             41.084
 Rotational               0.889              2.981             29.768
 Vibrational            166.551             39.907             28.630
 Vibration     1          0.607              1.939              3.222
 Vibration     2          0.620              1.895              2.591
 Vibration     3          0.646              1.814              1.978
 Vibration     4          0.661              1.767              1.751
 Vibration     5          0.663              1.761              1.724
 Vibration     6          0.667              1.751              1.680
 Vibration     7          0.681              1.709              1.527
 Vibration     8          0.686              1.693              1.477
 Vibration     9          0.707              1.633              1.304
 Vibration    10          0.721              1.593              1.205
 Vibration    11          0.733              1.559              1.131
 Vibration    12          0.737              1.549              1.110
 Vibration    13          0.750              1.512              1.038
 Vibration    14          0.766              1.470              0.963
 Vibration    15          0.798              1.388              0.834
 Vibration    16          0.822              1.330              0.754
 Vibration    17          0.825              1.320              0.742
 Vibration    18          0.892              1.168              0.571
 Vibration    19          0.956              1.036              0.453

 Optimization completed.
    -- Stationary point found.

 1\1\GINC-NODE220\Freq\RB3LYP\6-31G(d)\C9H18S1\VSC10255\08-Dec-2020\0\\
 #N Geom=AllCheck Guess=TCheck SCRF=Check GenChk RB3LYP/6-31G(d) Freq\\
 CID_54205534_JID_686_neutraal\\0,1\C,1.0022031461,0.0805813143,0.05359
 61556\C,0.3176455603,1.2637644587,0.7669802561\C,1.1170614363,2.564456
 1515,0.4875062528\C,1.1745413432,3.0223351828,-0.9730464384\C,-0.21052
 5908,3.3264213018,-1.5376675996\S,-1.3006355071,1.8579696018,-1.489695
 1072\C,-1.1870121215,1.4069057416,0.3212393483\C,-1.9589987406,0.07993
 5085,0.410664988\C,-1.9492052688,2.4629658611,1.1399880349\C,0.4121016

 Normal termination of Gaussian 16 at Tue Dec  8 12:28:22 2020.

 ----------------------------------------------------------------------
 # B3LYP/6-311++G(d,p) empiricaldispersion=gd3bj scf=xqc pop=npa geom=c
 heck
 ----------------------------------------------------------------------

 -------------------------------------
 CID_54205534_JID_686_Energie_neutraal
 -------------------------------------
 Structure from the checkpoint file:  "JID_686.chk"
 Charge =  0 Multiplicity = 1

 SCF Done:  E(RB3LYP) =  -752.179774492     A.U. after   14 cycles
 Normal termination of Gaussian 16 at Tue Dec  8 12:32:53 2020.

 ----------------------------------------------------------------------
 # B3LYP/6-311++G(d,p) empiricaldispersion=gd3bj scf=xqc pop=npa geom=c
 heck
 ----------------------------------------------------------------------

 -----------------------------------
 CID_54205534_JID_686_Energie_kation
 -----------------------------------
 Structure from the checkpoint file:  "JID_686.chk"
 Charge =  1 Multiplicity = 2

 SCF Done:  E(UB3LYP) =  -751.883692470     A.U. after   18 cycles
 Normal termination of Gaussian 16 at Tue Dec  8 12:50:17 2020.
 Gaussian 16:  ES64L-G16RevA.03 25-Dec-2016

 ----------------------------------
 CID_54205534_JID_686_Energie_anion
 ----------------------------------
 Structure from the checkpoint file:  "JID_686.chk"
 Charge = -1 Multiplicity = 2

                         Standard orientation:
 ---------------------------------------------------------------------
 Center     Atomic      Atomic             Coordinates (Angstroms)
 Number     Number       Type             X           Y           Z
 ---------------------------------------------------------------------
      1          6           0        0.955516    1.039011   -1.579504
      2          6           0        0.823226    0.711829   -0.078534
      3          6           0       -0.231231    1.653718    0.561727
      4          6           0       -1.666289    1.512810    0.045078
      5          6           0       -2.235221    0.118536    0.294057
      6         16           0       -1.247209   -1.176557   -0.538744
      7          6           0        0.452173   -0.803158    0.145747
      8          6           0        1.371662   -1.758674   -0.632932
      9          6           0        0.484456   -1.207258    1.629732
     10          6           0        2.174683    1.044967    0.589860
     11          1           0        0.095396    0.684848   -2.152509
     12          1           0        1.856252    0.587545   -2.007076
     13          1           0        1.038001    2.123363   -1.717632
     14          1           0       -0.233632    1.508465    1.649917
     15          1           0        0.107092    2.685065    0.399111
     16          1           0       -1.709683    1.735538   -1.027079
     17          1           0       -2.301340    2.253445    0.550469
     18          1           0       -3.246186    0.020752   -0.113814
     19          1           0       -2.293749   -0.091638    1.368471
     20          1           0        2.412712   -1.639435   -0.315183
     21          1           0        1.083293   -2.796717   -0.437153
     22          1           0        1.318957   -1.593606   -1.711482
     23          1           0       -0.165470   -0.584900    2.250432
     24          1           0        0.154073   -2.243924    1.736685
     25          1           0        1.500670   -1.133587    2.032642
     26          1           0        2.980644    0.393281    0.237903
     27          1           0        2.458077    2.075026    0.344375
     28          1           0        2.126389    0.970712    1.680435
 ---------------------------------------------------------------------

 SCF Done:  E(UB3LYP) =  -752.161927548     A.U. after   29 cycles

 The electronic state is 2-A.
 Alpha  occ. eigenvalues --  -88.72277 -10.10802 -10.08741 -10.08237 -10.06132
 Alpha  occ. eigenvalues --  -10.06062 -10.05582 -10.05461 -10.04944 -10.04748
 Alpha  occ. eigenvalues --   -7.80953  -5.77327  -5.76988  -5.76322  -0.75010
 Alpha  occ. eigenvalues --   -0.68290  -0.67445  -0.60405  -0.59074  -0.57320
 Alpha  occ. eigenvalues --   -0.55081  -0.48464  -0.48009  -0.40172  -0.37451
 Alpha  occ. eigenvalues --   -0.35665  -0.35038  -0.33555  -0.32690  -0.30920
 Alpha  occ. eigenvalues --   -0.30583  -0.29280  -0.28030  -0.27759  -0.26844
 Alpha  occ. eigenvalues --   -0.25441  -0.24693  -0.24446  -0.23684  -0.22505
 Alpha  occ. eigenvalues --   -0.21187  -0.19407  -0.18120  -0.11523   0.04877
 Alpha virt. eigenvalues --    0.06980   0.07770   0.08159   0.09397   0.09711
 Alpha virt. eigenvalues --    0.09932   0.10555   0.10921   0.11957   0.12782
 Alpha virt. eigenvalues --    0.12925   0.13293   0.13420   0.14219   0.14361

  Beta  occ. eigenvalues --  -88.72275 -10.10797 -10.08719 -10.08235 -10.06108
  Beta  occ. eigenvalues --  -10.06043 -10.05556 -10.05431 -10.04910 -10.04724
  Beta  occ. eigenvalues --   -7.80950  -5.77324  -5.76985  -5.76319  -0.74992
  Beta  occ. eigenvalues --   -0.68253  -0.67417  -0.60363  -0.59028  -0.57261
  Beta  occ. eigenvalues --   -0.55028  -0.48420  -0.47935  -0.40114  -0.37410
  Beta  occ. eigenvalues --   -0.35636  -0.34993  -0.33518  -0.32644  -0.30886
  Beta  occ. eigenvalues --   -0.30540  -0.29248  -0.27999  -0.27726  -0.26814
  Beta  occ. eigenvalues --   -0.25404  -0.24657  -0.24416  -0.23648  -0.22465
  Beta  occ. eigenvalues --   -0.21153  -0.19370  -0.18096  -0.11511
  Beta virt. eigenvalues --    0.07216   0.07995   0.08394   0.08876   0.10001
  Beta virt. eigenvalues --    0.10299   0.10492   0.11050   0.11406   0.12403
  Beta virt. eigenvalues --    0.13191   0.13366   0.13733   0.13807   0.14484

 Mulliken charges and spin densities:
               1          2
     1  C    0.148364  -0.862260
     2  C   -1.147514   1.591335
     3  C    0.032037  -0.436969
     4  C   -0.048924  -0.223610
     5  C    0.204796  -0.863293
     6  S   -0.058995  -0.161831
     7  C   -0.598226   1.268532
     8  C    0.901636  -1.439240
     9  C    0.230501  -0.882556
    10  C    1.959325  -2.445180
    11  H    0.099681   0.050544
    12  H   -0.068802   0.219626
    13  H   -0.187282   0.340158
    14  H   -0.242268   0.399673
    15  H   -0.033982   0.200160
    16  H    0.197738  -0.076586
    17  H   -0.930875   1.125490
    18  H   -0.355977   0.568833
    19  H    0.208025  -0.024529
    20  H   -0.096314   0.248105
    21  H    0.122231   0.022535
    22  H   -0.135261   0.287074
    23  H   -0.256529   0.388620
    24  H    0.044801   0.108635
    25  H   -0.169191   0.329517
    26  H   -0.201811   0.345361
    27  H   -0.185915   0.335591
    28  H   -0.431269   0.586265
 Sum of Mulliken charges =  -1.00000   1.00000

 Dipole moment (field-independent basis, Debye):
    X=             -0.5587    Y=             -3.1650    Z=             -2.5501  Tot=              4.1027
 Quadrupole moment (field-independent basis, Debye-Ang):
   XX=           -127.1128   YY=           -116.8384   ZZ=           -113.3103
   XY=              3.2028   XZ=              0.8366   YZ=             -4.4183

 Summary of Natural Population Analysis:

                                       Natural Population
                Natural  -----------------------------------------------
    Atom  No    Charge         Core      Valence    Rydberg      Total
 -----------------------------------------------------------------------
      C    1   -0.29243      0.99962     2.28514    0.00767     3.29243
      C    2   -0.04646      0.99951     2.02977    0.01718     3.04646
      C    3   -0.19077      0.99958     2.17889    0.01230     3.19077
      C    4   -0.19427      0.99961     2.18469    0.00997     3.19427
      C    5   -0.24892      0.99959     2.23861    0.01072     3.24892
      S    6    0.08553      4.99957     2.89975    0.01516     7.91447
      C    7   -0.08157      0.99951     2.06440    0.01766     3.08157
      C    8   -0.29421      0.99960     2.28658    0.00803     3.29421
      C    9   -0.29425      0.99959     2.28623    0.00842     3.29425
      C   10   -0.28601      0.99962     2.27805    0.00834     3.28601
      H   11    0.10732      0.00000     0.39136    0.00133     0.39268
      H   12    0.10006      0.00000     0.39893    0.00101     0.39994
      H   13    0.10074      0.00000     0.39832    0.00094     0.39926
      H   14    0.10017      0.00000     0.39773    0.00210     0.39983
      H   15    0.10251      0.00000     0.39604    0.00145     0.39749
      H   16    0.09688      0.00000     0.40176    0.00136     0.40312
      H   17    0.10331      0.00000     0.39446    0.00223     0.39669
      H   18    0.10641      0.00000     0.39251    0.00108     0.39359
      H   19    0.09855      0.00000     0.39982    0.00163     0.40145
      H   20    0.10453      0.00000     0.39437    0.00110     0.39547
      H   21    0.10233      0.00000     0.39677    0.00090     0.39767
      H   22    0.10543      0.00000     0.39369    0.00089     0.39457
      H   23    0.10376      0.00000     0.39495    0.00130     0.39624
      H   24    0.10300      0.00000     0.39581    0.00119     0.39700
      H   25    0.10319      0.00000     0.39546    0.00135     0.39681
      H   26    0.09971      0.00000     0.39897    0.00132     0.40029
      H   27    0.10252      0.00000     0.39620    0.00128     0.39748
      H   28    0.10297      0.00000     0.39548    0.00154     0.39703
 =======================================================================
   * Total *   -0.00000     13.99579    29.86477    0.13944    44.00000

 Normal termination of Gaussian 16 at Tue Dec  8 13:04:56 2020.
