 Gaussian 16, Revision A.03,

 -----------------------------------------------------------
 # opt freq B3LYP/6-31G(d) empiricaldispersion=gd3bj scf=xqc
 -----------------------------------------------------------

 ------------------------------
 CID_83128916_JID_6133_neutraal
 ------------------------------
 Symbolic Z-matrix:
 Charge =  0 Multiplicity = 1

 SCF Done:  E(RB3LYP) =  -1070.94159886     A.U. after   14 cycles
 SCF Done:  E(RB3LYP) =  -1070.94509799     A.U. after   12 cycles
 SCF Done:  E(RB3LYP) =  -1070.93907949     A.U. after   14 cycles
 SCF Done:  E(RB3LYP) =  -1070.93840351     A.U. after   13 cycles
 SCF Done:  E(RB3LYP) =  -1070.94138073     A.U. after   13 cycles
 SCF Done:  E(RB3LYP) =  -1070.94543107     A.U. after   10 cycles
 SCF Done:  E(RB3LYP) =  -1070.94581403     A.U. after   12 cycles
 SCF Done:  E(RB3LYP) =  -1070.94695014     A.U. after   12 cycles
 SCF Done:  E(RB3LYP) =  -1070.94854507     A.U. after   14 cycles
 SCF Done:  E(RB3LYP) =  -1070.94624201     A.U. after   15 cycles
 SCF Done:  E(RB3LYP) =  -1070.95270108     A.U. after    9 cycles
 SCF Done:  E(RB3LYP) =  -1070.95270172     A.U. after    8 cycles
 SCF Done:  E(RB3LYP) =  -1070.95270182     A.U. after    7 cycles
 SCF Done:  E(RB3LYP) =  -1070.95270192     A.U. after    7 cycles
 Optimization completed.
    -- Stationary point found.
 Normal termination of Gaussian 16 at Thu Dec 10 21:19:58 2020.

 --------------------------------------------------------------------
 #N Geom=AllCheck Guess=TCheck SCRF=Check GenChk RB3LYP/6-31G(d) Freq
 --------------------------------------------------------------------

 Structure from the checkpoint file:  "JID_6133.chk"
 ------------------------------
 CID_83128916_JID_6133_neutraal
 ------------------------------
 Charge =  0 Multiplicity = 1

 SCF Done:  E(RB3LYP) =  -1070.95270192     A.U. after    1 cycles

  Exact polarizability: 194.765  15.058 127.287   1.879  -2.793 137.865
 Approx polarizability: 261.273  32.916 189.305   3.547  -4.551 233.783

                      1                      2                      3
                      A                      A                      A
 Frequencies --     27.2550                32.6677                47.9729
 Red. masses --      3.5679                 5.2117                 3.1726
 Frc consts  --      0.0016                 0.0033                 0.0043
 IR Inten    --      0.0161                 0.0572                 0.8974

                      4                      5                      6
                      A                      A                      A
 Frequencies --     68.2527                91.6628               149.1367
 Red. masses --      4.0018                 5.0727                 3.9660
 Frc consts  --      0.0110                 0.0251                 0.0520
 IR Inten    --      2.2825                 0.8922                 0.8802

                      7                      8                      9
                      A                      A                      A
 Frequencies --    169.8972               218.5208               236.8788
 Red. masses --      4.4726                 3.8021                 2.1861
 Frc consts  --      0.0761                 0.1070                 0.0723
 IR Inten    --      0.2597                 0.5910                 0.5627

                     10                     11                     12
                      A                      A                      A
 Frequencies --    240.5892               259.7799               299.6770
 Red. masses --      1.7827                 1.5233                 4.9378
 Frc consts  --      0.0608                 0.0606                 0.2613
 IR Inten    --      0.1881                 3.0267                 4.5440

                     13                     14                     15
                      A                      A                      A
 Frequencies --    325.7479               340.7757               365.9558
 Red. masses --      6.2852                 3.6554                 1.2387
 Frc consts  --      0.3929                 0.2501                 0.0977
 IR Inten    --      2.5705                17.6464               115.9056

                     16                     17                     18
                      A                      A                      A
 Frequencies --    375.2283               403.9504               421.6720
 Red. masses --      2.5383                 3.8548                 3.5138
 Frc consts  --      0.2106                 0.3706                 0.3681
 IR Inten    --     38.7354                 6.3560                 3.0044

                     19                     20                     21
                      A                      A                      A
 Frequencies --    436.4802               481.5346               489.4646
 Red. masses --      2.9657                 2.9320                 3.0190
 Frc consts  --      0.3329                 0.4006                 0.4261
 IR Inten    --      4.1498                 0.0574                 5.2939

                     22                     23                     24
                      A                      A                      A
 Frequencies --    530.1457               566.6072               577.6522
 Red. masses --      5.1078                 2.6888                 3.1854
 Frc consts  --      0.8458                 0.5086                 0.6262
 IR Inten    --      5.7999                27.8640                 3.6542

                     25                     26                     27
                      A                      A                      A
 Frequencies --    646.4095               676.4970               751.9090
 Red. masses --      7.7376                 3.9994                 2.7663
 Frc consts  --      1.9049                 1.0784                 0.9215
 IR Inten    --      6.7958                 4.8789                 3.2289

                     28                     29                     30
                      A                      A                      A
 Frequencies --    786.2645               815.8163               835.0292
 Red. masses --      4.9598                 4.3634                 1.5180
 Frc consts  --      1.8066                 1.7110                 0.6236
 IR Inten    --      3.8510                 1.5160                 0.9754

                     31                     32                     33
                      A                      A                      A
 Frequencies --    848.2710               874.7751               909.9541
 Red. masses --      3.3804                 1.3968                 2.6438
 Frc consts  --      1.4331                 0.6298                 1.2898
 IR Inten    --      5.5724                15.1570                 8.2345

                     34                     35                     36
                      A                      A                      A
 Frequencies --    918.7300               931.8485               963.2239
 Red. masses --      2.1702                 2.1610                 1.3663
 Frc consts  --      1.0792                 1.1056                 0.7469
 IR Inten    --      0.8165                 8.7899                 1.0679

                     37                     38                     39
                      A                      A                      A
 Frequencies --   1003.1010              1008.4451              1022.7554
 Red. masses --      1.3092                 1.3481                 2.2731
 Frc consts  --      0.7761                 0.8078                 1.4009
 IR Inten    --      0.2826                 5.3015                18.4328

                     40                     41                     42
                      A                      A                      A
 Frequencies --   1030.7479              1038.9688              1050.3818
 Red. masses --      2.1004                 4.1389                 2.2125
 Frc consts  --      1.3148                 2.6323                 1.4382
 IR Inten    --     41.9898                19.0804                10.2901

                     43                     44                     45
                      A                      A                      A
 Frequencies --   1081.6008              1115.9375              1131.6784
 Red. masses --      1.6131                 3.5065                 3.2529
 Frc consts  --      1.1119                 2.5728                 2.4545
 IR Inten    --     36.0588                26.9231                 1.2854

                     46                     47                     48
                      A                      A                      A
 Frequencies --   1139.0709              1142.7735              1162.1999
 Red. masses --      1.9085                 2.0795                 1.4865
 Frc consts  --      1.4590                 1.6000                 1.1830
 IR Inten    --     42.5793                 6.8582                11.3556

                     49                     50                     51
                      A                      A                      A
 Frequencies --   1172.2388              1209.2020              1247.8171
 Red. masses --      3.8600                 1.3054                 2.4436
 Frc consts  --      3.1251                 1.1246                 2.2417
 IR Inten    --     57.8620                 2.6604                 4.9348

                     52                     53                     54
                      A                      A                      A
 Frequencies --   1267.6267              1274.9113              1291.7837
 Red. masses --      1.3088                 1.2896                 1.8109
 Frc consts  --      1.2391                 1.2350                 1.7804
 IR Inten    --     30.2414                22.6327                35.4070

                     55                     56                     57
                      A                      A                      A
 Frequencies --   1307.4811              1312.6056              1316.0279
 Red. masses --      1.2754                 1.5495                 2.4033
 Frc consts  --      1.2846                 1.5730                 2.4523
 IR Inten    --      5.2406                27.6655                 2.7691

                     58                     59                     60
                      A                      A                      A
 Frequencies --   1332.6597              1342.0077              1379.1048
 Red. masses --      1.2456                 1.2286                 1.4988
 Frc consts  --      1.3034                 1.3037                 1.6795
 IR Inten    --      0.0851                 9.1481                22.7136

                     61                     62                     63
                      A                      A                      A
 Frequencies --   1390.7074              1396.1287              1399.2716
 Red. masses --      1.3403                 1.3898                 1.2602
 Frc consts  --      1.5273                 1.5961                 1.4538
 IR Inten    --      1.0261                23.3314                 7.8545

                     64                     65                     66
                      A                      A                      A
 Frequencies --   1402.8232              1411.3564              1434.2812
 Red. masses --      2.0306                 1.5499                 1.3742
 Frc consts  --      2.3544                 1.8190                 1.6656
 IR Inten    --     49.6272                 0.7562                 6.1838

                     67                     68                     69
                      A                      A                      A
 Frequencies --   1440.8794              1504.2879              1509.3795
 Red. masses --      1.3141                 1.0916                 1.7249
 Frc consts  --      1.6074                 1.4553                 2.3154
 IR Inten    --     24.6049                 0.1773                16.3647

                     70                     71                     72
                      A                      A                      A
 Frequencies --   1518.1328              1519.4020              1521.9802
 Red. masses --      1.0966                 1.1485                 1.0813
 Frc consts  --      1.4890                 1.5621                 1.4758
 IR Inten    --      8.8309                11.4869                 0.0205

                     73                     74                     75
                      A                      A                      A
 Frequencies --   1527.6531              1534.2898              1605.8511
 Red. masses --      1.1506                 1.1038                 6.1413
 Frc consts  --      1.5820                 1.5310                 9.3309
 IR Inten    --      2.6013                 2.0693                 8.8150

                     76                     77                     78
                      A                      A                      A
 Frequencies --   1635.6114              2969.6545              2976.4419
 Red. masses --      6.1415                 1.0723                 1.0722
 Frc consts  --      9.6803                 5.5718                 5.5966
 IR Inten    --     38.5645                21.2031               122.0378

                     79                     80                     81
                      A                      A                      A
 Frequencies --   3023.0219              3043.8331              3061.0383
 Red. masses --      1.0844                 1.0838                 1.0588
 Frc consts  --      5.8386                 5.9162                 5.8454
 IR Inten    --     33.3066                12.3193                13.5795

                     82                     83                     84
                      A                      A                      A
 Frequencies --   3063.1193              3064.0516              3107.1124
 Red. masses --      1.0343                 1.0600                 1.0986
 Frc consts  --      5.7176                 5.8632                 6.2491
 IR Inten    --     16.4067                 8.2758                52.4709

                     85                     86                     87
                      A                      A                      A
 Frequencies --   3110.5033              3111.8455              3114.7492
 Red. masses --      1.0978                 1.0979                 1.1000
 Frc consts  --      6.2579                 6.2642                 6.2878
 IR Inten    --     17.5651                13.6250                48.5368

                     88                     89                     90
                      A                      A                      A
 Frequencies --   3137.1127              3149.8346              3184.4360
 Red. masses --      1.1032                 1.1035                 1.0911
 Frc consts  --      6.3967                 6.4503                 6.5189
 IR Inten    --     27.6244                17.6166                13.1016

                     91                     92                     93
                      A                      A                      A
 Frequencies --   3207.9973              3228.3151              3735.8337
 Red. masses --      1.0895                 1.0937                 1.0661
 Frc consts  --      6.6058                 6.7158                 8.7668
 IR Inten    --      3.3582                 2.8005                13.7952

 - Thermochemistry -
 -------------------
 Temperature   298.150 Kelvin.  Pressure   1.00000 Atm.
 Atom     1 has atomic number  6 and mass  12.00000

 Molecular mass:   239.09800 amu.
 Principal axes and moments of inertia in atomic units:
                           1         2         3
     Eigenvalues --  2192.088747413.533838166.91856
           X            0.99999   0.00447  -0.00124
           Y           -0.00449   0.99970  -0.02400
           Z            0.00113   0.02400   0.99971
 This molecule is an asymmetric top.
 Rotational symmetry number  1.
 Warning -- assumption of classical behavior for rotation
           may cause significant error
 Rotational temperatures (Kelvin)      0.03951     0.01168     0.01061
 Rotational constants (GHZ):           0.82330     0.24344     0.22098
 Zero-point vibrational energy     732941.8 (Joules/Mol)
                                  175.17729 (Kcal/Mol)
 Warning -- explicit consideration of  24 degrees of freedom as
           vibrations may cause significant error
 Vibrational temperatures:     39.21    47.00    69.02    98.20   131.88
          (Kelvin)            214.57   244.44   314.40   340.82   346.15
                              373.77   431.17   468.68   490.30   526.53
                              539.87   581.19   606.69   628.00   692.82
                              704.23   762.76   815.22   831.11   930.04
                              973.33  1081.83  1131.26  1173.78  1201.42
                             1220.47  1258.61  1309.22  1321.85  1340.72
                             1385.86  1443.24  1450.93  1471.52  1483.02
                             1494.84  1511.27  1556.18  1605.59  1628.23
                             1638.87  1644.20  1672.15  1686.59  1739.77
                             1795.33  1823.83  1834.31  1858.59  1881.17
                             1888.55  1893.47  1917.40  1930.85  1984.22
                             2000.92  2008.72  2013.24  2018.35  2030.63
                             2063.61  2073.10  2164.33  2171.66  2184.25
                             2186.08  2189.79  2197.95  2207.50  2310.46
                             2353.28  4272.67  4282.44  4349.45  4379.40
                             4404.15  4407.15  4408.49  4470.44  4475.32
                             4477.25  4481.43  4513.61  4531.91  4581.69
                             4615.59  4644.83  5375.03

 Zero-point correction=                           0.279163 (Hartree/Particle)
 Thermal correction to Energy=                    0.294618
 Thermal correction to Enthalpy=                  0.295562
 Thermal correction to Gibbs Free Energy=         0.234817
 Sum of electronic and zero-point Energies=          -1070.673539
 Sum of electronic and thermal Energies=             -1070.658084
 Sum of electronic and thermal Enthalpies=           -1070.657140
 Sum of electronic and thermal Free Energies=        -1070.717885

                     E (Thermal)             CV                S
                      KCal/Mol        Cal/Mol-Kelvin    Cal/Mol-Kelvin
 Total                  184.876             59.111            127.850
 Electronic               0.000              0.000              0.000
 Translational            0.889              2.981             42.316
 Rotational               0.889              2.981             33.251
 Vibrational            183.098             53.150             52.283
 Vibration     1          0.593              1.984              6.020
 Vibration     2          0.594              1.983              5.660
 Vibration     3          0.595              1.978              4.899
 Vibration     4          0.598              1.969              4.203
 Vibration     5          0.602              1.955              3.624
 Vibration     6          0.618              1.904              2.683
 Vibration     7          0.625              1.880              2.437
 Vibration     8          0.646              1.813              1.971
 Vibration     9          0.656              1.784              1.826
 Vibration    10          0.658              1.778              1.799
 Vibration    11          0.668              1.746              1.663
 Vibration    12          0.692              1.674              1.419
 Vibration    13          0.710              1.624              1.281
 Vibration    14          0.720              1.594              1.209
 Vibration    15          0.739              1.542              1.097
 Vibration    16          0.746              1.523              1.058
 Vibration    17          0.769              1.462              0.948
 Vibration    18          0.784              1.423              0.886
 Vibration    19          0.797              1.391              0.838
 Vibration    20          0.838              1.291              0.706
 Vibration    21          0.845              1.273              0.685
 Vibration    22          0.885              1.183              0.587
 Vibration    23          0.923              1.103              0.511
 Vibration    24          0.934              1.080              0.490

 Optimization completed.
    -- Stationary point found.
 Normal termination of Gaussian 16 at Thu Dec 10 21:29:50 2020.

 ----------------------------------------------------------------------
 # B3LYP/6-311++G(d,p) empiricaldispersion=gd3bj scf=xqc pop=npa geom=c
 heck
 ----------------------------------------------------------------------

 --------------------------------------
 CID_83128916_JID_6133_Energie_neutraal
 --------------------------------------
 Structure from the checkpoint file:  "JID_6133.chk"
 Charge =  0 Multiplicity = 1

 SCF Done:  E(RB3LYP) =  -1071.17205296     A.U. after   16 cycles
 Normal termination of Gaussian 16 at Thu Dec 10 21:34:35 2020.

 ----------------------------------------------------------------------
 # B3LYP/6-311++G(d,p) empiricaldispersion=gd3bj scf=xqc pop=npa geom=c
 heck
 ----------------------------------------------------------------------

 ------------------------------------
 CID_83128916_JID_6133_Energie_kation
 ------------------------------------
 Structure from the checkpoint file:  "JID_6133.chk"
 Charge =  1 Multiplicity = 2

 SCF Done:  E(UB3LYP) =  -1070.86177844     A.U. after   33 cycles
 SCF Done:  E(UB3LYP) =  -1070.86177844     a.u. after    1 cycles
 Normal termination of Gaussian 16 at Thu Dec 10 21:48:14 2020.
 Gaussian 16:  ES64L-G16RevA.03 25-Dec-2016

 ----------------------------------------------------------------------
 # B3LYP/6-311++G(d,p) empiricaldispersion=gd3bj scf=xqc pop=npa geom=c
 heck
 ----------------------------------------------------------------------

 -----------------------------------
 CID_83128916_JID_6133_Energie_anion
 -----------------------------------
 Structure from the checkpoint file:  "JID_6133.chk"
 Charge = -1 Multiplicity = 2

                         Standard orientation:
 ---------------------------------------------------------------------
 Center     Atomic      Atomic             Coordinates (Angstroms)
 Number     Number       Type             X           Y           Z
 ---------------------------------------------------------------------
      1          6           0       -3.777516   -2.104191    0.376867
      2          6           0       -3.977797   -0.594364    0.271672
      3          6           0       -2.640656    0.119060    0.166824
      4          7           0       -2.005415    0.347348    1.327336
      5          6           0       -0.807462    0.934348    1.281853
      6          6           0       -0.173252    1.322993    0.092831
      7          6           0       -0.853593    1.092627   -1.107781
      8          6           0       -2.102711    0.479476   -1.072175
      9         16           0        1.422311    2.126149    0.128757
     10          6           0        2.576879    0.676619    0.017035
     11          6           0        2.446902   -0.103606   -1.293293
     12          6           0        3.438092   -1.273380   -1.303682
     13          8           0        3.255216   -2.127416   -0.185354
     14          6           0        3.459989   -1.437001    1.037838
     15          6           0        2.471461   -0.277411    1.208983
     16          8           0       -4.802176   -0.365041   -0.869320
     17          1           0       -3.286640   -2.480132   -0.526960
     18          1           0       -4.745564   -2.602997    0.482695
     19          1           0       -3.153046   -2.339273    1.243262
     20          1           0       -4.468545   -0.236325    1.188389
     21          1           0       -0.317804    1.117989    2.235787
     22          1           0       -0.404251    1.393564   -2.049106
     23          1           0       -2.663027    0.275060   -1.977754
     24          1           0        3.556275    1.173295    0.041776
     25          1           0        1.430679   -0.504563   -1.380421
     26          1           0        2.625015    0.552204   -2.153106
     27          1           0        3.297441   -1.896739   -2.191439
     28          1           0        4.473095   -0.887865   -1.317303
     29          1           0        4.496133   -1.057425    1.085752
     30          1           0        3.333680   -2.177981    1.832347
     31          1           0        2.668084    0.253056    2.147438
     32          1           0        1.456309   -0.686754    1.261467
     33          1           0       -5.003238    0.583717   -0.898723
 ---------------------------------------------------------------------

 SCF Done:  E(UB3LYP) =  -1071.16946766     A.U. after   33 cycles
 SCF Done:  E(UB3LYP) =  -1071.16946766     a.u. after    1 cycles

 The electronic state is 2-A.
 Alpha  occ. eigenvalues --  -88.71811 -19.02386 -19.02360 -14.16892 -10.11446
 Alpha  occ. eigenvalues --  -10.11429 -10.11417 -10.08806 -10.07987 -10.06708
 Alpha  occ. eigenvalues --  -10.06300 -10.06211 -10.06186 -10.05652 -10.05071
 Alpha  occ. eigenvalues --  -10.04478  -7.80353  -5.76740  -5.76388  -5.75751
 Alpha  occ. eigenvalues --   -0.93917  -0.92574  -0.81270  -0.71710  -0.67882
 Alpha  occ. eigenvalues --   -0.66503  -0.66275  -0.63216  -0.58759  -0.53754
 Alpha  occ. eigenvalues --   -0.53140  -0.50617  -0.49939  -0.47024  -0.45309
 Alpha  occ. eigenvalues --   -0.42020  -0.39260  -0.38040  -0.37526  -0.35689
 Alpha  occ. eigenvalues --   -0.35187  -0.34087  -0.32748  -0.32421  -0.32242
 Alpha  occ. eigenvalues --   -0.30713  -0.29006  -0.28392  -0.28156  -0.26966
 Alpha  occ. eigenvalues --   -0.26739  -0.25606  -0.25295  -0.23448  -0.23128
 Alpha  occ. eigenvalues --   -0.22785  -0.21561  -0.20070  -0.18235  -0.16310
 Alpha  occ. eigenvalues --   -0.15552  -0.13409  -0.12955  -0.10946   0.04629
 Alpha virt. eigenvalues --    0.06851   0.07351   0.08193   0.08637   0.09111
 Alpha virt. eigenvalues --    0.09658   0.09937   0.10223   0.11200   0.11305
 Alpha virt. eigenvalues --    0.11565   0.11955   0.12559   0.13221   0.13502

  Beta  occ. eigenvalues --  -88.71812 -19.02382 -19.02338 -14.16650 -10.11439
  Beta  occ. eigenvalues --  -10.11427 -10.11407 -10.08703 -10.08043 -10.06412
  Beta  occ. eigenvalues --  -10.06211 -10.06180 -10.06127 -10.05625 -10.05172
  Beta  occ. eigenvalues --  -10.04149  -7.80352  -5.76731  -5.76394  -5.75752
  Beta  occ. eigenvalues --   -0.93910  -0.92514  -0.80836  -0.71540  -0.67492
  Beta  occ. eigenvalues --   -0.66295  -0.66191  -0.63051  -0.58558  -0.53723
  Beta  occ. eigenvalues --   -0.52929  -0.50480  -0.49785  -0.46785  -0.45161
  Beta  occ. eigenvalues --   -0.41943  -0.39165  -0.37901  -0.37469  -0.35528
  Beta  occ. eigenvalues --   -0.35143  -0.34001  -0.32618  -0.32383  -0.32029
  Beta  occ. eigenvalues --   -0.30587  -0.28978  -0.28329  -0.27988  -0.26595
  Beta  occ. eigenvalues --   -0.26241  -0.25485  -0.25218  -0.23309  -0.23069
  Beta  occ. eigenvalues --   -0.22626  -0.21426  -0.19784  -0.18109  -0.15631
  Beta  occ. eigenvalues --   -0.14840  -0.13143  -0.11989  -0.10873
  Beta virt. eigenvalues --    0.07146   0.07419   0.08331   0.08707   0.09024
  Beta virt. eigenvalues --    0.09628   0.10025   0.10168   0.10526   0.11287
  Beta virt. eigenvalues --    0.11494   0.11642   0.12086   0.12501   0.13267

 Mulliken charges and spin densities:
               1          2
     1  C   -0.410803  -0.087916
     2  C   -0.096392  -0.008490
     3  C   -0.382895   0.179993
     4  N    0.032416   0.109354
     5  C   -0.344805  -0.034512
     6  C    1.002873   0.166117
     7  C   -1.021250   0.265099
     8  C   -0.069501  -0.018145
     9  S   -0.347578   0.059116
    10  C    0.711549  -0.569017
    11  C   -0.707729   0.413799
    12  C    0.360013  -0.898423
    13  O   -0.137205   0.036693
    14  C    0.051846  -0.598116
    15  C   -0.562845   0.194200
    16  O   -0.230515  -0.000186
    17  H    0.139191   0.016045
    18  H    0.065787   0.066027
    19  H    0.156376  -0.010622
    20  H    0.157479   0.022445
    21  H    0.160532   0.033887
    22  H    0.133468   0.018067
    23  H    0.167889   0.008119
    24  H   -0.322617   0.581341
    25  H    0.226489  -0.024072
    26  H    0.012254   0.123524
    27  H    0.089399   0.078164
    28  H   -0.247872   0.381985
    29  H   -0.173192   0.306659
    30  H    0.042529   0.125984
    31  H    0.024652   0.108326
    32  H    0.301911  -0.071799
    33  H    0.218547   0.026353
 Sum of Mulliken charges =  -1.00000   1.00000

 Dipole moment (field-independent basis, Debye):
    X=             -2.8000    Y=             -0.7563    Z=             -0.6716  Tot=              2.9771
 Quadrupole moment (field-independent basis, Debye-Ang):
   XX=           -177.3266   YY=           -134.5948   ZZ=           -121.5626
   XY=             -7.1252   XZ=              1.8548   YZ=             -2.0824

 Summary of Natural Population Analysis:

                                       Natural Population
                Natural  -----------------------------------------------
    Atom  No    Charge         Core      Valence    Rydberg      Total
 -----------------------------------------------------------------------
      C    1   -0.28472      0.99965     2.27946    0.00562     3.28472
      C    2    0.04823      0.99953     1.93669    0.01555     2.95177
      C    3    0.14073      0.99951     1.84643    0.01333     2.85927
      N    4   -0.21897      0.99967     2.70842    0.01088     3.71897
      C    5    0.01877      0.99951     1.96728    0.01444     2.98123
      C    6   -0.09813      0.99938     2.08531    0.01344     3.09813
      C    7   -0.02541      0.99950     2.01622    0.00970     3.02541
      C    8   -0.14853      0.99951     2.14102    0.00801     3.14853
      S    9    0.09832      4.99955     2.88195    0.02018     7.90168
      C   10   -0.15435      0.99953     2.13830    0.01652     3.15435
      C   11   -0.21493      0.99959     2.20502    0.01032     3.21493
      C   12   -0.00813      0.99958     1.99504    0.01351     3.00813
      O   13   -0.30041      0.99989     3.29164    0.00888     4.30041
      C   14   -0.00806      0.99958     1.99520    0.01329     3.00806
      C   15   -0.21473      0.99959     2.20460    0.01053     3.21473
      O   16   -0.37427      0.99989     3.36802    0.00636     4.37427
      H   17    0.09911      0.00000     0.39997    0.00092     0.40089
      H   18    0.09436      0.00000     0.40429    0.00135     0.40564
      H   19    0.10489      0.00000     0.39397    0.00114     0.39511
      H   20    0.08092      0.00000     0.41683    0.00225     0.41908
      H   21    0.08756      0.00000     0.41061    0.00184     0.41244
      H   22    0.09507      0.00000     0.40375    0.00118     0.40493
      H   23    0.10347      0.00000     0.39527    0.00126     0.39653
      H   24    0.10278      0.00000     0.39441    0.00281     0.39722
      H   25    0.10616      0.00000     0.39242    0.00142     0.39384
      H   26    0.10337      0.00000     0.39540    0.00123     0.39663
      H   27    0.08870      0.00000     0.41034    0.00096     0.41130
      H   28    0.07644      0.00000     0.42187    0.00169     0.42356
      H   29    0.07628      0.00000     0.42217    0.00156     0.42372
      H   30    0.08897      0.00000     0.41005    0.00097     0.41103
      H   31    0.10391      0.00000     0.39488    0.00121     0.39609
      H   32    0.10555      0.00000     0.39299    0.00146     0.39445
      H   33    0.22708      0.00000     0.27016    0.00276     0.27292
 =======================================================================
   * Total *   -0.00000     19.99346    43.78995    0.21659    64.00000

 Normal termination of Gaussian 16 at Thu Dec 10 22:01:55 2020.
