 Gaussian 16, Revision A.03,

 -----------------------------------------------------------
 # opt freq B3LYP/6-31G(d) empiricaldispersion=gd3bj scf=xqc
 -----------------------------------------------------------

 -------------------------------
 CID_127819146_JID_8743_neutraal
 -------------------------------
 Symbolic Z-matrix:
 Charge =  0 Multiplicity = 1

 SCF Done:  E(RB3LYP) =  -818.987467047     A.U. after   14 cycles
 SCF Done:  E(RB3LYP) =  -818.995810427     A.U. after   12 cycles
 SCF Done:  E(RB3LYP) =  -818.998321455     A.U. after   12 cycles
 SCF Done:  E(RB3LYP) =  -818.999323026     A.U. after   12 cycles
 SCF Done:  E(RB3LYP) =  -818.999673196     A.U. after   12 cycles
 SCF Done:  E(RB3LYP) =  -819.000137043     A.U. after   11 cycles
 SCF Done:  E(RB3LYP) =  -819.000295339     A.U. after   11 cycles
 SCF Done:  E(RB3LYP) =  -819.000487800     A.U. after   11 cycles
 SCF Done:  E(RB3LYP) =  -819.000601598     A.U. after   11 cycles
 SCF Done:  E(RB3LYP) =  -819.000714538     A.U. after   10 cycles
 SCF Done:  E(RB3LYP) =  -819.001019750     A.U. after    9 cycles
 SCF Done:  E(RB3LYP) =  -819.001020748     A.U. after    9 cycles
 SCF Done:  E(RB3LYP) =  -819.001020909     A.U. after    7 cycles
 SCF Done:  E(RB3LYP) =  -819.001020957     A.U. after    8 cycles
 SCF Done:  E(RB3LYP) =  -819.001020950     A.U. after    6 cycles
 Optimization completed.
    -- Stationary point found.
 Normal termination of Gaussian 16 at Fri Dec 11 21:50:43 2020.

 --------------------------------------------------------------------
 #N Geom=AllCheck Guess=TCheck SCRF=Check GenChk RB3LYP/6-31G(d) Freq
 --------------------------------------------------------------------

 Structure from the checkpoint file:  "JID_8743.chk"
 -------------------------------
 CID_127819146_JID_8743_neutraal
 -------------------------------
 Charge =  0 Multiplicity = 1

 SCF Done:  E(RB3LYP) =  -819.001020950     A.U. after    1 cycles

  Exact polarizability: 198.458 -21.943 158.464 -25.242  -7.166 133.629
 Approx polarizability: 259.544 -34.259 232.839 -42.663 -17.697 203.758

                      1                      2                      3
                      A                      A                      A
 Frequencies --     18.7388                21.4291                35.8564
 Red. masses --      4.5754                 4.3910                 3.1801
 Frc consts  --      0.0009                 0.0012                 0.0024
 IR Inten    --      0.2038                 0.5931                 0.7825

                      4                      5                      6
                      A                      A                      A
 Frequencies --     42.6699                59.0123                78.2535
 Red. masses --      1.0458                 1.4474                 2.4571
 Frc consts  --      0.0011                 0.0030                 0.0089
 IR Inten    --      1.1284                 0.5271                 0.1070

                      7                      8                      9
                      A                      A                      A
 Frequencies --     91.4427               102.3554               129.2790
 Red. masses --      3.3616                 2.9984                 1.5398
 Frc consts  --      0.0166                 0.0185                 0.0152
 IR Inten    --      7.5089                 0.7904                 0.8748

                     10                     11                     12
                      A                      A                      A
 Frequencies --    147.3387               162.6415               178.5004
 Red. masses --      1.9271                 4.5200                 3.2603
 Frc consts  --      0.0246                 0.0704                 0.0612
 IR Inten    --      1.3316                 1.0404                 3.1203

                     13                     14                     15
                      A                      A                      A
 Frequencies --    200.8063               203.7437               225.0957
 Red. masses --      3.9477                 2.7600                 3.5246
 Frc consts  --      0.0938                 0.0675                 0.1052
 IR Inten    --      1.7277                 0.1536                 1.6538

                     16                     17                     18
                      A                      A                      A
 Frequencies --    251.4701               272.2584               299.6456
 Red. masses --      2.5995                 2.5202                 2.9092
 Frc consts  --      0.0969                 0.1101                 0.1539
 IR Inten    --      2.3236                 0.9366                 1.2214

                     19                     20                     21
                      A                      A                      A
 Frequencies --    355.5703               386.3649               393.7911
 Red. masses --      2.7634                 1.9772                 2.8215
 Frc consts  --      0.2058                 0.1739                 0.2578
 IR Inten    --      1.9331                 0.6579                 4.9148

                     22                     23                     24
                      A                      A                      A
 Frequencies --    430.2069               502.8331               522.2506
 Red. masses --      2.9405                 2.1335                 1.3151
 Frc consts  --      0.3206                 0.3178                 0.2113
 IR Inten    --      3.7470                30.7617                91.4442

                     25                     26                     27
                      A                      A                      A
 Frequencies --    549.3742               586.9452               608.1256
 Red. masses --      4.2712                 4.3084                 5.3655
 Frc consts  --      0.7595                 0.8745                 1.1691
 IR Inten    --      1.7369                 3.6170                26.9741

                     28                     29                     30
                      A                      A                      A
 Frequencies --    620.8399               672.2507               687.2941
 Red. masses --      3.5281                 2.6469                 3.0054
 Frc consts  --      0.8012                 0.7048                 0.8364
 IR Inten    --      0.7451                 2.6208                15.5092

                     31                     32                     33
                      A                      A                      A
 Frequencies --    729.4171               743.0574               823.0838
 Red. masses --      3.9707                11.3269                 8.0066
 Frc consts  --      1.2447                 3.6847                 3.1958
 IR Inten    --      0.8979                 1.0012                32.3478

                     34                     35                     36
                      A                      A                      A
 Frequencies --    831.4902               852.7303               866.1071
 Red. masses --      2.8548                 1.8887                 2.2947
 Frc consts  --      1.1629                 0.8092                 1.0142
 IR Inten    --      3.7661                 4.1728                 1.1234

                     37                     38                     39
                      A                      A                      A
 Frequencies --    902.6101               925.1506               928.1789
 Red. masses --      3.2736                 2.7510                 2.4522
 Frc consts  --      1.5714                 1.3873                 1.2447
 IR Inten    --     21.0224                 2.7119                21.2001

                     40                     41                     42
                      A                      A                      A
 Frequencies --    946.8235               989.8841               996.9651
 Red. masses --      2.5293                 5.7159                 2.0430
 Frc consts  --      1.3360                 3.2999                 1.1964
 IR Inten    --      5.9899                 4.4012                11.3556

                     43                     44                     45
                      A                      A                      A
 Frequencies --   1006.6604              1028.8683              1034.1814
 Red. masses --      2.6550                 1.7023                 1.8280
 Frc consts  --      1.5852                 1.0617                 1.1519
 IR Inten    --      4.6094                17.1380                28.0711

                     46                     47                     48
                      A                      A                      A
 Frequencies --   1065.5396              1076.4547              1089.2054
 Red. masses --      2.5625                 1.6644                 2.2953
 Frc consts  --      1.7142                 1.1363                 1.6044
 IR Inten    --     40.4917                 5.2959                41.8567

                     49                     50                     51
                      A                      A                      A
 Frequencies --   1094.2849              1099.3218              1124.5267
 Red. masses --      1.3806                 1.6398                 4.6946
 Frc consts  --      0.9740                 1.1676                 3.4977
 IR Inten    --      2.5230                 5.8129                61.2667

                     52                     53                     54
                      A                      A                      A
 Frequencies --   1144.6518              1168.4445              1176.5754
 Red. masses --      1.2146                 2.6502                 2.1221
 Frc consts  --      0.9376                 2.1318                 1.7308
 IR Inten    --      0.0416                64.3880                 6.2029

                     55                     56                     57
                      A                      A                      A
 Frequencies --   1192.5627              1210.4551              1214.4311
 Red. masses --      1.3556                 1.3204                 1.3402
 Frc consts  --      1.1359                 1.1399                 1.1645
 IR Inten    --      2.3125                 4.0274                 1.5385

                     58                     59                     60
                      A                      A                      A
 Frequencies --   1239.5361              1266.4367              1269.2637
 Red. masses --      1.4048                 2.0664                 1.3859
 Frc consts  --      1.2717                 1.9527                 1.3155
 IR Inten    --     14.6861                94.7128                45.6926

                     61                     62                     63
                      A                      A                      A
 Frequencies --   1275.8084              1301.9649              1322.0866
 Red. masses --      3.3825                 1.5902                 4.1611
 Frc consts  --      3.2438                 1.5881                 4.2853
 IR Inten    --      9.5868                 7.4627                 4.6726

                     64                     65                     66
                      A                      A                      A
 Frequencies --   1339.1632              1342.0347              1365.0529
 Red. masses --      1.3133                 1.3762                 1.3651
 Frc consts  --      1.3877                 1.4603                 1.4987
 IR Inten    --      0.5944                 0.9076                 8.2260

                     67                     68                     69
                      A                      A                      A
 Frequencies --   1377.5445              1401.6110              1410.3694
 Red. masses --      1.3303                 1.8235                 1.4199
 Frc consts  --      1.4873                 2.1106                 1.6640
 IR Inten    --      5.7096               104.5200                81.3942

                     70                     71                     72
                      A                      A                      A
 Frequencies --   1418.3396              1422.8707              1436.3637
 Red. masses --      1.5158                 1.3927                 1.5137
 Frc consts  --      1.7966                 1.6612                 1.8400
 IR Inten    --      3.4967                 6.6035                 4.8571

                     73                     74                     75
                      A                      A                      A
 Frequencies --   1454.9487              1460.0726              1476.8150
 Red. masses --      1.1459                 1.6708                 1.9002
 Frc consts  --      1.4292                 2.0986                 2.4418
 IR Inten    --      7.5897               233.4182                49.8892

                     76                     77                     78
                      A                      A                      A
 Frequencies --   1491.1582              1504.5020              1506.8000
 Red. masses --      1.2907                 1.1594                 1.0467
 Frc consts  --      1.6909                 1.5462                 1.4002
 IR Inten    --     16.5123                36.1560                 6.4494

                     79                     80                     81
                      A                      A                      A
 Frequencies --   1517.7313              1519.8223              1522.5925
 Red. masses --      1.2067                 1.1577                 1.0435
 Frc consts  --      1.6377                 1.5755                 1.4254
 IR Inten    --    122.9175               107.3568                 1.3058

                     82                     83                     84
                      A                      A                      A
 Frequencies --   1526.7273              1528.9790              1534.8865
 Red. masses --      1.0503                 1.0975                 1.0449
 Frc consts  --      1.4424                 1.5116                 1.4504
 IR Inten    --     11.9540                 9.2724                14.9988

                     85                     86                     87
                      A                      A                      A
 Frequencies --   1549.9194              1566.6929              1574.0323
 Red. masses --      1.0908                 1.1126                 2.0675
 Frc consts  --      1.5439                 1.6089                 3.0180
 IR Inten    --      4.0618                 3.3744                78.2422

                     88                     89                     90
                      A                      A                      A
 Frequencies --   1588.7842              1633.6078              1644.5787
 Red. masses --      6.8970                 4.2980                 4.1293
 Frc consts  --     10.2574                 6.7579                 6.5801
 IR Inten    --    526.4615              1181.9702                96.8117

                     91                     92                     93
                      A                      A                      A
 Frequencies --   2986.0592              3024.2613              3031.8609
 Red. masses --      1.0721                 1.0400                 1.0414
 Frc consts  --      5.6321                 5.6043                 5.6399
 IR Inten    --     98.4969                25.4695               166.4366

                     94                     95                     96
                      A                      A                      A
 Frequencies --   3033.1776              3039.0560              3043.3105
 Red. masses --      1.0606                 1.0708                 1.0812
 Frc consts  --      5.7488                 5.8270                 5.9001
 IR Inten    --     63.9566                21.7586                11.1822

                     97                     98                     99
                      A                      A                      A
 Frequencies --   3058.3176              3064.2785              3066.8855
 Red. masses --      1.0910                 1.0376                 1.0629
 Frc consts  --      6.0123                 5.7401                 5.8903
 IR Inten    --     18.4527                 7.5735                56.6323

                    100                    101                    102
                      A                      A                      A
 Frequencies --   3069.5147              3072.3127              3076.2885
 Red. masses --      1.1036                 1.1046                 1.0903
 Frc consts  --      6.1264                 6.1429                 6.0792
 IR Inten    --     81.0181                 0.2746                86.6153

                    103                    104                    105
                      A                      A                      A
 Frequencies --   3090.2649              3110.6793              3121.6474
 Red. masses --      1.0926                 1.0954                 1.1001
 Frc consts  --      6.1477                 6.2449                 6.3161
 IR Inten    --     44.3549                17.8922                 9.6053

                    106                    107                    108
                      A                      A                      A
 Frequencies --   3121.8433              3165.5699              3171.0245
 Red. masses --      1.1008                 1.0928                 1.1024
 Frc consts  --      6.3207                 6.4518                 6.5313
 IR Inten    --     27.0921                 8.3668                12.2532

                    109                    110                    111
                      A                      A                      A
 Frequencies --   3202.4791              3204.7394              3635.2508
 Red. masses --      1.0949                 1.0946                 1.0767
 Frc consts  --      6.6160                 6.6238                 8.3830
 IR Inten    --      1.4481                 1.9021                31.3289

 - Thermochemistry -
 -------------------
 Temperature   298.150 Kelvin.  Pressure   1.00000 Atm.
 Atom     1 has atomic number  6 and mass  12.00000

 Molecular mass:   251.17461 amu.
 Principal axes and moments of inertia in atomic units:
                           1         2         3
     Eigenvalues --  2801.810617584.699488029.52085
           X            0.99986  -0.01102  -0.01285
           Y            0.01031   0.99850  -0.05383
           Z            0.01342   0.05369   0.99847
 This molecule is an asymmetric top.
 Rotational symmetry number  1.
 Warning -- assumption of classical behavior for rotation
           may cause significant error
 Rotational temperatures (Kelvin)      0.03091     0.01142     0.01079
 Rotational constants (GHZ):           0.64413     0.23794     0.22476
 Zero-point vibrational energy     892880.5 (Joules/Mol)
                                  213.40356 (Kcal/Mol)
 Warning -- explicit consideration of  27 degrees of freedom as
           vibrations may cause significant error
 Vibrational temperatures:     26.96    30.83    51.59    61.39    84.91
          (Kelvin)            112.59   131.57   147.27   186.00   211.99
                              234.00   256.82   288.92   293.14   323.86
                              361.81   391.72   431.12   511.59   555.89
                              566.58   618.97   723.46   751.40   790.43
                              844.48   874.96   893.25   967.22   988.86
                             1049.47  1069.09  1184.23  1196.33  1226.89
                             1246.13  1298.65  1331.09  1335.44  1362.27
                             1424.22  1434.41  1448.36  1480.31  1487.96
                             1533.07  1548.78  1567.12  1574.43  1581.68
                             1617.94  1646.90  1681.13  1692.83  1715.83
                             1741.57  1747.30  1783.42  1822.12  1826.19
                             1835.60  1873.24  1902.19  1926.76  1930.89
                             1964.01  1981.98  2016.61  2029.21  2040.67
                             2047.19  2066.61  2093.35  2100.72  2124.81
                             2145.44  2164.64  2167.95  2183.68  2186.69
                             2190.67  2196.62  2199.86  2208.36  2229.99
                             2254.12  2264.68  2285.91  2350.40  2366.18
                             4296.27  4351.24  4362.17  4364.07  4372.52
                             4378.65  4400.24  4408.81  4412.56  4416.35
                             4420.37  4426.09  4446.20  4475.57  4491.35
                             4491.64  4554.55  4562.40  4607.65  4610.91
                             5230.32

 Zero-point correction=                           0.340080 (Hartree/Particle)
 Thermal correction to Energy=                    0.358976
 Thermal correction to Enthalpy=                  0.359920
 Thermal correction to Gibbs Free Energy=         0.289673
 Sum of electronic and zero-point Energies=           -818.660941
 Sum of electronic and thermal Energies=              -818.642045
 Sum of electronic and thermal Enthalpies=            -818.641101
 Sum of electronic and thermal Free Energies=         -818.711348

                     E (Thermal)             CV                S
                      KCal/Mol        Cal/Mol-Kelvin    Cal/Mol-Kelvin
 Total                  225.261             68.022            147.847
 Electronic               0.000              0.000              0.000
 Translational            0.889              2.981             42.463
 Rotational               0.889              2.981             33.500
 Vibrational            223.483             62.060             71.883
 Vibration     1          0.593              1.986              6.764
 Vibration     2          0.593              1.985              6.497
 Vibration     3          0.594              1.982              5.476
 Vibration     4          0.595              1.980              5.131
 Vibration     5          0.596              1.974              4.490
 Vibration     6          0.600              1.964              3.934
 Vibration     7          0.602              1.955              3.629
 Vibration     8          0.604              1.947              3.409
 Vibration     9          0.612              1.924              2.957
 Vibration    10          0.617              1.906              2.706
 Vibration    11          0.623              1.888              2.519
 Vibration    12          0.629              1.869              2.344
 Vibration    13          0.638              1.839              2.126
 Vibration    14          0.639              1.835              2.099
 Vibration    15          0.650              1.803              1.918
 Vibration    16          0.663              1.760              1.720
 Vibration    17          0.675              1.724              1.582
 Vibration    18          0.692              1.674              1.419
 Vibration    19          0.731              1.564              1.141
 Vibration    20          0.755              1.499              1.014
 Vibration    21          0.761              1.483              0.986
 Vibration    22          0.791              1.404              0.858
 Vibration    23          0.858              1.244              0.651
 Vibration    24          0.877              1.201              0.605
 Vibration    25          0.905              1.141              0.545
 Vibration    26          0.944              1.060              0.473
 Vibration    27          0.967              1.015              0.436

                           ! Non-Optimized Parameters !
 Normal termination of Gaussian 16 at Fri Dec 11 22:08:33 2020.

 ----------------------------------------------------------------------
 # B3LYP/6-311++G(d,p) empiricaldispersion=gd3bj scf=xqc pop=npa geom=c
 heck
 ----------------------------------------------------------------------

 ---------------------------------------
 CID_127819146_JID_8743_Energie_neutraal
 ---------------------------------------
 Structure from the checkpoint file:  "JID_8743.chk"
 Charge =  0 Multiplicity = 1

 SCF Done:  E(RB3LYP) =  -819.225819404     A.U. after   14 cycles
 Normal termination of Gaussian 16 at Fri Dec 11 22:15:10 2020.

 ----------------------------------------------------------------------
 # B3LYP/6-311++G(d,p) empiricaldispersion=gd3bj scf=xqc pop=npa geom=c
 heck
 ----------------------------------------------------------------------

 -------------------------------------
 CID_127819146_JID_8743_Energie_kation
 -------------------------------------
 Structure from the checkpoint file:  "JID_8743.chk"
 Charge =  1 Multiplicity = 2

 SCF Done:  E(UB3LYP) =  -818.936499480     A.U. after   30 cycles
 Normal termination of Gaussian 16 at Fri Dec 11 22:34:11 2020.
 Gaussian 16:  ES64L-G16RevA.03 25-Dec-2016

 ----------------------------------------------------------------------
 # B3LYP/6-311++G(d,p) empiricaldispersion=gd3bj scf=xqc pop=npa geom=c
 heck
 ----------------------------------------------------------------------

 ------------------------------------
 CID_127819146_JID_8743_Energie_anion
 ------------------------------------
 Structure from the checkpoint file:  "JID_8743.chk"
 Charge = -1 Multiplicity = 2

                         Standard orientation:
 ---------------------------------------------------------------------
 Center     Atomic      Atomic             Coordinates (Angstroms)
 Number     Number       Type             X           Y           Z
 ---------------------------------------------------------------------
      1          6           0        1.378627    3.074506   -1.261545
      2          6           0        1.396989    1.803556   -0.459394
      3          7           0        0.373848    1.615277    0.386452
      4          6           0        0.437512    0.456424    1.071440
      5          7           0        1.399977   -0.475078    0.959416
      6          6           0        2.375049   -0.169140    0.086700
      7          7           0        2.415634    0.968093   -0.654985
      8          7           0        3.392620   -1.058477   -0.074984
      9          6           0        3.441050   -2.308012    0.660419
     10          6           0        4.475335   -0.826553   -1.013724
     11          7           0       -0.558558    0.186108    1.953061
     12          6           0       -1.808289    0.932535    2.007272
     13          6           0       -2.710170    0.798542    0.772011
     14          6           0       -3.216747   -0.619306    0.459789
     15          6           0       -2.184797   -1.529396   -0.243153
     16          6           0       -2.289217   -1.075435   -1.707045
     17          8           0       -3.603712   -0.527777   -1.873367
     18          6           0       -4.299313   -0.598317   -0.629684
     19          1           0        0.471460    3.114522   -1.874628
     20          1           0        1.349279    3.939711   -0.590554
     21          1           0        2.258623    3.134609   -1.903712
     22          1           0        3.398697   -3.160680   -0.031209
     23          1           0        4.378725   -2.375553    1.227835
     24          1           0        2.596975   -2.354832    1.344801
     25          1           0        4.329752    0.137412   -1.495756
     26          1           0        5.439185   -0.834200   -0.487527
     27          1           0        4.495140   -1.618938   -1.774371
     28          1           0       -0.520015   -0.739603    2.354036
     29          1           0       -2.338575    0.589110    2.902611
     30          1           0       -1.565780    1.989246    2.151657
     31          1           0       -3.577892    1.449968    0.944905
     32          1           0       -2.180929    1.212531   -0.091849
     33          1           0       -3.600801   -1.083825    1.377906
     34          1           0       -2.499812   -2.575249   -0.147399
     35          1           0       -1.168102   -1.448650    0.142186
     36          1           0       -1.552652   -0.294750   -1.939686
     37          1           0       -2.143171   -1.901762   -2.413834
     38          1           0       -4.914271   -1.512396   -0.583086
     39          1           0       -4.966971    0.267654   -0.566616
 ---------------------------------------------------------------------

 SCF Done:  E(UB3LYP) =  -819.214689660     A.U. after   33 cycles
 SCF Done:  E(UB3LYP) =  -819.214689660     a.u. after    1 cycles

 The electronic state is 2-A.
 Alpha  occ. eigenvalues --  -19.02580 -14.25309 -14.23984 -14.20557 -14.20470
 Alpha  occ. eigenvalues --  -14.20329 -10.18489 -10.18239 -10.15970 -10.12011
 Alpha  occ. eigenvalues --  -10.11898 -10.11279 -10.10377 -10.10061 -10.08397
 Alpha  occ. eigenvalues --  -10.08343 -10.07401 -10.07311  -0.94217  -0.93465
 Alpha  occ. eigenvalues --   -0.87800  -0.84375  -0.79053  -0.77190  -0.71293
 Alpha  occ. eigenvalues --   -0.65894  -0.65760  -0.64131  -0.62733  -0.61276
 Alpha  occ. eigenvalues --   -0.56351  -0.53074  -0.50073  -0.49930  -0.47790
 Alpha  occ. eigenvalues --   -0.47073  -0.43709  -0.41516  -0.40502  -0.39831
 Alpha  occ. eigenvalues --   -0.38961  -0.37715  -0.36385  -0.35523  -0.35000
 Alpha  occ. eigenvalues --   -0.34590  -0.32856  -0.32261  -0.31893  -0.31505
 Alpha  occ. eigenvalues --   -0.30855  -0.30758  -0.30088  -0.30018  -0.29235
 Alpha  occ. eigenvalues --   -0.28066  -0.27212  -0.26650  -0.24670  -0.24223
 Alpha  occ. eigenvalues --   -0.22868  -0.22427  -0.22087  -0.17264  -0.16735
 Alpha  occ. eigenvalues --   -0.16009  -0.14666  -0.13756   0.03962
 Alpha virt. eigenvalues --    0.05560   0.06489   0.06810   0.07249   0.07673
 Alpha virt. eigenvalues --    0.08066   0.08300   0.09027   0.09713   0.09762
 Alpha virt. eigenvalues --    0.10177   0.10526   0.10755   0.11174   0.11357

  Beta  occ. eigenvalues --  -19.02580 -14.25308 -14.23969 -14.20552 -14.20462
  Beta  occ. eigenvalues --  -14.20325 -10.18487 -10.18237 -10.15964 -10.11998
  Beta  occ. eigenvalues --  -10.11892 -10.11259 -10.10344 -10.10025 -10.08378
  Beta  occ. eigenvalues --  -10.08339 -10.07396 -10.07294  -0.94211  -0.93453
  Beta  occ. eigenvalues --   -0.87784  -0.84356  -0.79039  -0.77175  -0.71264
  Beta  occ. eigenvalues --   -0.65880  -0.65734  -0.64103  -0.62689  -0.61241
  Beta  occ. eigenvalues --   -0.56320  -0.53040  -0.50033  -0.49900  -0.47752
  Beta  occ. eigenvalues --   -0.47041  -0.43680  -0.41478  -0.40468  -0.39805
  Beta  occ. eigenvalues --   -0.38936  -0.37680  -0.36352  -0.35495  -0.34982
  Beta  occ. eigenvalues --   -0.34565  -0.32837  -0.32244  -0.31873  -0.31478
  Beta  occ. eigenvalues --   -0.30837  -0.30722  -0.30065  -0.29996  -0.29201
  Beta  occ. eigenvalues --   -0.28037  -0.27190  -0.26623  -0.24644  -0.24190
  Beta  occ. eigenvalues --   -0.22840  -0.22409  -0.22066  -0.17257  -0.16719
  Beta  occ. eigenvalues --   -0.15998  -0.14649  -0.13735
  Beta virt. eigenvalues --    0.06036   0.06547   0.06660   0.06982   0.07730
  Beta virt. eigenvalues --    0.08164   0.08520   0.08726   0.09111   0.09851
  Beta virt. eigenvalues --    0.10148   0.10618   0.10739   0.10886   0.11276

 Mulliken charges and spin densities:
               1          2
     1  C   -0.056782  -0.394407
     2  C   -0.146663   0.174100
     3  N   -0.103999   0.046840
     4  C   -0.124195  -0.370558
     5  N   -0.179053   0.111696
     6  C   -0.370443   0.248175
     7  N   -0.156624   0.042788
     8  N   -0.236408   0.183956
     9  C    0.877641  -1.155238
    10  C    0.636000  -0.920733
    11  N   -0.208637   0.161606
    12  C    0.581304  -1.101240
    13  C   -0.078629  -0.005822
    14  C    0.124713  -0.021670
    15  C    0.317713  -0.417768
    16  C   -0.163548  -0.288480
    17  O   -0.141717   0.002908
    18  C   -0.340450  -0.166504
    19  H    0.138660   0.013530
    20  H    0.107237   0.050605
    21  H    0.102552   0.042937
    22  H   -0.271475   0.423938
    23  H   -0.246431   0.386049
    24  H   -0.090998   0.285113
    25  H    0.105256   0.092806
    26  H   -0.217627   0.361339
    27  H   -0.243674   0.389985
    28  H   -0.043077   0.363988
    29  H   -0.423058   0.597510
    30  H    0.205378  -0.007237
    31  H    0.086684   0.043898
    32  H    0.122073   0.100237
    33  H   -0.536685   0.759115
    34  H   -0.290868   0.502526
    35  H    0.146175  -0.049274
    36  H    0.113587   0.074250
    37  H    0.043533   0.093919
    38  H   -0.031759   0.175024
    39  H   -0.005707   0.170093
 Sum of Mulliken charges =  -1.00000   1.00000

 Dipole moment (field-independent basis, Debye):
    X=             -0.5273    Y=              5.6606    Z=             -2.1319  Tot=              6.0717
 Quadrupole moment (field-independent basis, Debye-Ang):
   XX=           -201.5830   YY=           -153.4669   ZZ=           -153.8449
   XY=              5.1011   XZ=              5.1564   YZ=              3.2275

 Summary of Natural Population Analysis:

                                       Natural Population
                Natural  -----------------------------------------------
    Atom  No    Charge         Core      Valence    Rydberg      Total
 -----------------------------------------------------------------------
      C    1   -0.30287      0.99962     2.29805    0.00520     3.30287
      C    2    0.24355      0.99964     1.73997    0.01684     2.75645
      N    3   -0.31396      0.99964     2.80530    0.00902     3.81396
      C    4    0.31706      0.99960     1.66479    0.01855     2.68294
      N    5   -0.30905      0.99963     2.80045    0.00896     3.80905
      C    6    0.32143      0.99956     1.66109    0.01792     2.67857
      N    7   -0.30886      0.99964     2.80019    0.00903     3.80886
      N    8   -0.23300      0.99964     2.72334    0.01002     3.73300
      C    9   -0.17767      0.99964     2.17004    0.00799     3.17767
      C   10   -0.17705      0.99964     2.16971    0.00770     3.17705
      N   11   -0.30204      0.99966     2.79166    0.01072     3.80204
      C   12   -0.08531      0.99961     2.07374    0.01196     3.08531
      C   13   -0.19851      0.99960     2.18937    0.00954     3.19851
      C   14   -0.12646      0.99959     2.11467    0.01220     3.12646
      C   15   -0.20803      0.99962     2.19936    0.00905     3.20803
      C   16   -0.01077      0.99960     1.99955    0.01162     3.01077
      O   17   -0.30688      0.99989     3.29896    0.00803     4.30688
      C   18   -0.00511      0.99957     1.99186    0.01368     3.00511
      H   19    0.10839      0.00000     0.39066    0.00095     0.39161
      H   20    0.10738      0.00000     0.39163    0.00099     0.39262
      H   21    0.10620      0.00000     0.39292    0.00088     0.39380
      H   22    0.09399      0.00000     0.40449    0.00152     0.40601
      H   23    0.09309      0.00000     0.40539    0.00152     0.40691
      H   24    0.11779      0.00000     0.38037    0.00184     0.38221
      H   25    0.11640      0.00000     0.38206    0.00153     0.38360
      H   26    0.09264      0.00000     0.40600    0.00136     0.40736
      H   27    0.09296      0.00000     0.40570    0.00135     0.40704
      H   28    0.19921      0.00000     0.29767    0.00312     0.30079
      H   29    0.09832      0.00000     0.40022    0.00146     0.40168
      H   30    0.10179      0.00000     0.39699    0.00122     0.39821
      H   31    0.09820      0.00000     0.40081    0.00099     0.40180
      H   32    0.10733      0.00000     0.39093    0.00174     0.39267
      H   33    0.10504      0.00000     0.39174    0.00322     0.39496
      H   34    0.10039      0.00000     0.39809    0.00151     0.39961
      H   35    0.11066      0.00000     0.38772    0.00162     0.38934
      H   36    0.08236      0.00000     0.41603    0.00161     0.41764
      H   37    0.08468      0.00000     0.41408    0.00124     0.41532
      H   38    0.07938      0.00000     0.41930    0.00132     0.42062
      H   39    0.08732      0.00000     0.41139    0.00129     0.41268
 =======================================================================
   * Total *   -0.00000     17.99340    49.77629    0.23031    68.00000

 Normal termination of Gaussian 16 at Fri Dec 11 22:54:42 2020.
