 Gaussian 16, Revision A.03,

 -----------------------------------------------------------
 # opt freq B3LYP/6-31G(d) empiricaldispersion=gd3bj scf=xqc
 -----------------------------------------------------------

 -----------------------------
 CID_81014886_JID_271_neutraal
 -----------------------------
 Symbolic Z-matrix:
 Charge =  0 Multiplicity = 1

 SCF Done:  E(RB3LYP) =  -410.396211272     A.U. after   12 cycles
 SCF Done:  E(RB3LYP) =  -410.398144690     A.U. after   10 cycles
 SCF Done:  E(RB3LYP) =  -410.397420640     A.U. after   10 cycles
 SCF Done:  E(RB3LYP) =  -410.398170182     A.U. after   10 cycles
 SCF Done:  E(RB3LYP) =  -410.398927986     A.U. after   10 cycles
 SCF Done:  E(RB3LYP) =  -410.399232073     A.U. after   10 cycles
 SCF Done:  E(RB3LYP) =  -410.399393922     A.U. after   11 cycles
 SCF Done:  E(RB3LYP) =  -410.400104052     A.U. after   10 cycles
 SCF Done:  E(RB3LYP) =  -410.400398330     A.U. after   10 cycles
 SCF Done:  E(RB3LYP) =  -410.400612277     A.U. after   10 cycles
 SCF Done:  E(RB3LYP) =  -410.400766970     A.U. after    9 cycles
 SCF Done:  E(RB3LYP) =  -410.400775148     A.U. after    9 cycles
 SCF Done:  E(RB3LYP) =  -410.400776285     A.U. after    8 cycles
 SCF Done:  E(RB3LYP) =  -410.400777952     A.U. after    7 cycles
 SCF Done:  E(RB3LYP) =  -410.400777988     A.U. after    6 cycles
 SCF Done:  E(RB3LYP) =  -410.400778120     A.U. after    7 cycles
 Optimization completed.
    -- Stationary point found.

 1\1\GINC-NODE112\FOpt\RB3LYP\6-31G(d)\C9H21N1\VSC10255\08-Dec-2020\0\\
 # opt freq B3LYP/6-31G(d) empiricaldispersion=gd3bj scf=xqc\\CID_81014
 886_JID_271_neutraal\\0,1\C,0.7587323725,-0.0941240606,0.0264920383\C,
 0.052709058,-0.423897245,1.3459155841\C,0.8177620795,0.048352145,2.601
 6083877\C,0.8848659827,1.5841851594,2.6884473587\C,0.3328692467,-0.653
 7866835,3.9173759983\C,0.8172484291,-2.120933286,3.885279006\C,0.99040
 39366,0.0019647718,5.1468983409\C,-1.2090741645,-0.7070909439,4.115098
 2821\C,-2.0243354961,0.5896026578,4.2720809487\N,-2.5649944831,1.09238

 Normal termination of Gaussian 16 at Tue Dec  8 10:29:00 2020.

 --------------------------------------------------------------------
 #N Geom=AllCheck Guess=TCheck SCRF=Check GenChk RB3LYP/6-31G(d) Freq
 --------------------------------------------------------------------

 Structure from the checkpoint file:  "JID_271.chk"
 -----------------------------
 CID_81014886_JID_271_neutraal
 -----------------------------
 Charge =  0 Multiplicity = 1

 SCF Done:  E(RB3LYP) =  -410.400778120     A.U. after    1 cycles

  Exact polarizability: 108.525   0.987 104.054  -0.312  -0.376  93.136
 Approx polarizability: 141.334  -0.143 141.569  -1.287   1.058 134.952

                      1                      2                      3
                      A                      A                      A
 Frequencies --     52.2097                75.5094               124.1748
 Red. masses --      2.0150                 2.2940                 2.4763
 Frc consts  --      0.0032                 0.0077                 0.0225
 IR Inten    --      0.1656                 4.6669                 4.3600

                      4                      5                      6
                      A                      A                      A
 Frequencies --    151.7854               189.5475               208.9619
 Red. masses --      1.7283                 2.5206                 1.5133
 Frc consts  --      0.0235                 0.0534                 0.0389
 IR Inten    --      0.1820                 1.3190                 0.9672

                      7                      8                      9
                      A                      A                      A
 Frequencies --    227.5841               234.8049               253.4365
 Red. masses --      1.3899                 1.1286                 1.5894
 Frc consts  --      0.0424                 0.0367                 0.0601
 IR Inten    --      4.0874                 5.0048                 6.7544

                     10                     11                     12
                      A                      A                      A
 Frequencies --    276.2002               297.2820               318.9563
 Red. masses --      1.6410                 1.3120                 1.5897
 Frc consts  --      0.0738                 0.0683                 0.0953
 IR Inten    --     15.6734                21.7431                12.0259

                     13                     14                     15
                      A                      A                      A
 Frequencies --    333.2190               354.4852               376.6271
 Red. masses --      2.3489                 2.2297                 1.9981
 Frc consts  --      0.1537                 0.1651                 0.1670
 IR Inten    --      2.4043                 0.9501                 1.0392

                     16                     17                     18
                      A                      A                      A
 Frequencies --    410.2595               424.4690               469.3191
 Red. masses --      1.9920                 2.3744                 1.9714
 Frc consts  --      0.1975                 0.2521                 0.2558
 IR Inten    --      2.3454                 1.3946                 4.1450

                     19                     20                     21
                      A                      A                      A
 Frequencies --    486.1705               548.5055               697.2280
 Red. masses --      2.8113                 2.4978                 2.4934
 Frc consts  --      0.3915                 0.4428                 0.7141
 IR Inten    --      2.1427                 0.3697                 2.3360

                     22                     23                     24
                      A                      A                      A
 Frequencies --    782.1848               828.4757               843.4801
 Red. masses --      1.3069                 1.6417                 2.1725
 Frc consts  --      0.4711                 0.6639                 0.9107
 IR Inten    --      1.5537                 8.5144                11.3864

                     25                     26                     27
                      A                      A                      A
 Frequencies --    886.7948               895.2750               950.6635
 Red. masses --      1.8160                 1.4052                 1.5172
 Frc consts  --      0.8414                 0.6636                 0.8079
 IR Inten    --      1.9888                97.7701                 3.9714

                     28                     29                     30
                      A                      A                      A
 Frequencies --    955.2274               986.1593               993.6798
 Red. masses --      1.7331                 1.7236                 1.3099
 Frc consts  --      0.9317                 0.9876                 0.7620
 IR Inten    --      0.9232                 1.3948                 3.7761

                     31                     32                     33
                      A                      A                      A
 Frequencies --    998.8240              1011.4283              1041.1785
 Red. masses --      1.8417                 1.5562                 1.6787
 Frc consts  --      1.0825                 0.9380                 1.0722
 IR Inten    --      1.7907                 5.9289                 2.2865

                     34                     35                     36
                      A                      A                      A
 Frequencies --   1056.2259              1101.3598              1115.1242
 Red. masses --      1.9656                 1.6148                 2.4930
 Frc consts  --      1.2920                 1.1541                 1.8265
 IR Inten    --      3.9921                11.9667                 2.6415

                     37                     38                     39
                      A                      A                      A
 Frequencies --   1145.9605              1186.3657              1196.4712
 Red. masses --      2.1978                 1.6426                 1.5481
 Frc consts  --      1.7005                 1.3621                 1.3057
 IR Inten    --      4.3334                 5.7003                 5.2436

                     40                     41                     42
                      A                      A                      A
 Frequencies --   1210.2895              1223.2878              1265.0537
 Red. masses --      1.7522                 2.0238                 2.0964
 Frc consts  --      1.5122                 1.7844                 1.9767
 IR Inten    --      1.7317                 3.4413                 0.9457

                     43                     44                     45
                      A                      A                      A
 Frequencies --   1309.2387              1325.0400              1349.9332
 Red. masses --      1.4802                 1.3605                 1.2403
 Frc consts  --      1.4948                 1.4073                 1.3317
 IR Inten    --      6.0081                 0.9946                 2.1545

                     46                     47                     48
                      A                      A                      A
 Frequencies --   1380.8319              1391.1764              1408.0311
 Red. masses --      1.2266                 1.2481                 1.3690
 Frc consts  --      1.3780                 1.4231                 1.5991
 IR Inten    --      0.9888                 4.3636                 0.4457

                     49                     50                     51
                      A                      A                      A
 Frequencies --   1415.1934              1429.6085              1438.2715
 Red. masses --      1.4080                 1.2324                 1.2683
 Frc consts  --      1.6614                 1.4840                 1.5458
 IR Inten    --      0.4468                 3.5397                 1.5272

                     52                     53                     54
                      A                      A                      A
 Frequencies --   1447.4894              1450.3393              1454.3884
 Red. masses --      1.2191                 1.3526                 1.2227
 Frc consts  --      1.5050                 1.6763                 1.5238
 IR Inten    --      5.9119                11.7452                 5.2284

                     55                     56                     57
                      A                      A                      A
 Frequencies --   1505.1200              1517.6114              1522.5981
 Red. masses --      1.0812                 1.0512                 1.0524
 Frc consts  --      1.4432                 1.4264                 1.4375
 IR Inten    --      3.2412                 1.4140                 0.8433

                     58                     59                     60
                      A                      A                      A
 Frequencies --   1524.5246              1527.7115              1528.8640
 Red. masses --      1.0595                 1.0464                 1.0583
 Frc consts  --      1.4509                 1.4389                 1.4575
 IR Inten    --      3.0563                 2.8553                 1.9979

                     61                     62                     63
                      A                      A                      A
 Frequencies --   1532.6438              1540.4337              1545.1292
 Red. masses --      1.0549                 1.0559                 1.0668
 Frc consts  --      1.4600                 1.4763                 1.5005
 IR Inten    --      2.4735                 4.1751                 8.7355

                     64                     65                     66
                      A                      A                      A
 Frequencies --   1547.3935              1556.9961              1701.1484
 Red. masses --      1.0722                 1.0519                 1.0874
 Frc consts  --      1.5126                 1.5025                 1.8540
 IR Inten    --      7.4745                 1.7928                26.5686

                     67                     68                     69
                      A                      A                      A
 Frequencies --   2980.5051              2991.4195              3030.0609
 Red. masses --      1.0725                 1.0826                 1.0673
 Frc consts  --      5.6132                 5.7078                 5.7734
 IR Inten    --     58.1803                25.9262                14.0182

                     70                     71                     72
                      A                      A                      A
 Frequencies --   3041.5774              3044.2386              3048.2079
 Red. masses --      1.0371                 1.0369                 1.0398
 Frc consts  --      5.6531                 5.6616                 5.6921
 IR Inten    --     21.2035                32.0802                38.7545

                     73                     74                     75
                      A                      A                      A
 Frequencies --   3063.3834              3069.5625              3072.0684
 Red. masses --      1.0604                 1.0404                 1.0866
 Frc consts  --      5.8633                 5.7759                 6.0419
 IR Inten    --     28.6118                14.0366                52.0606

                     76                     77                     78
                      A                      A                      A
 Frequencies --   3089.0181              3093.5780              3100.2916
 Red. masses --      1.0958                 1.0975                 1.1023
 Frc consts  --      6.1603                 6.1886                 6.2424
 IR Inten    --     15.8012                 1.8450                 6.3878

                     79                     80                     81
                      A                      A                      A
 Frequencies --   3109.1092              3111.8994              3115.7593
 Red. masses --      1.1016                 1.1003                 1.1021
 Frc consts  --      6.2739                 6.2779                 6.3038
 IR Inten    --     65.7350                44.6880                36.1646

                     82                     83                     84
                      A                      A                      A
 Frequencies --   3123.0973              3127.6603              3131.7642
 Red. masses --      1.0999                 1.0997                 1.0997
 Frc consts  --      6.3209                 6.3379                 6.3549
 IR Inten    --     52.6290                59.8812                44.8847

                     85                     86                     87
                      A                      A                      A
 Frequencies --   3135.1458              3478.8982              3569.4798
 Red. masses --      1.0994                 1.0518                 1.0893
 Frc consts  --      6.3668                 7.5001                 8.1771
 IR Inten    --     17.8637                 3.6964                 0.1476

 - Thermochemistry -
 -------------------
 Temperature   298.150 Kelvin.  Pressure   1.00000 Atm.
 Atom     1 has atomic number  6 and mass  12.00000

 Molecular mass:   143.16740 amu.
 Principal axes and moments of inertia in atomic units:
                           1         2         3
     Eigenvalues --  1396.709141695.085622222.19959
           X            0.99918   0.04000   0.00650
           Y           -0.03985   0.99897  -0.02184
           Z           -0.00737   0.02156   0.99974
 This molecule is an asymmetric top.
 Rotational symmetry number  1.
 Warning -- assumption of classical behavior for rotation
           may cause significant error
 Rotational temperatures (Kelvin)      0.06201     0.05110     0.03898
 Rotational constants (GHZ):           1.29214     1.06469     0.81214
 Zero-point vibrational energy     771954.3 (Joules/Mol)
                                  184.50151 (Kcal/Mol)
 Warning -- explicit consideration of  20 degrees of freedom as
           vibrations may cause significant error
 Vibrational temperatures:     75.12   108.64   178.66   218.39   272.72
          (Kelvin)            300.65   327.44   337.83   364.64   397.39
                              427.72   458.91   479.43   510.03   541.88
                              590.27   610.72   675.25   699.49   789.18
                             1003.16  1125.39  1191.99  1213.58  1275.90
                             1288.10  1367.79  1374.36  1418.86  1429.68
                             1437.09  1455.22  1498.02  1519.67  1584.61
                             1604.41  1648.78  1706.92  1721.46  1741.34
                             1760.04  1820.13  1883.70  1906.44  1942.25
                             1986.71  2001.59  2025.84  2036.15  2056.89
                             2069.35  2082.61  2086.71  2092.54  2165.53
                             2183.50  2190.68  2193.45  2198.04  2199.69
                             2205.13  2216.34  2223.10  2226.35  2240.17
                             2447.57  4288.28  4303.99  4359.58  4376.15
                             4379.98  4385.69  4407.53  4416.42  4420.02
                             4444.41  4450.97  4460.63  4473.31  4477.33
                             4482.88  4493.44  4500.01  4505.91  4510.78
                             5005.36  5135.69

 Zero-point correction=                           0.294022 (Hartree/Particle)
 Thermal correction to Energy=                    0.307062
 Thermal correction to Enthalpy=                  0.308007
 Thermal correction to Gibbs Free Energy=         0.256142
 Sum of electronic and zero-point Energies=           -410.106756
 Sum of electronic and thermal Energies=              -410.093716
 Sum of electronic and thermal Enthalpies=            -410.092772
 Sum of electronic and thermal Free Energies=         -410.144636

                     E (Thermal)             CV                S
                      KCal/Mol        Cal/Mol-Kelvin    Cal/Mol-Kelvin
 Total                  192.685             49.685            109.158
 Electronic               0.000              0.000              0.000
 Translational            0.889              2.981             40.788
 Rotational               0.889              2.981             30.043
 Vibrational            190.907             43.724             38.327
 Vibration     1          0.596              1.977              4.732
 Vibration     2          0.599              1.965              4.004
 Vibration     3          0.610              1.929              3.034
 Vibration     4          0.619              1.901              2.650
 Vibration     5          0.633              1.854              2.232
 Vibration     6          0.642              1.827              2.053
 Vibration     7          0.651              1.799              1.898
 Vibration     8          0.655              1.788              1.842
 Vibration     9          0.665              1.757              1.707
 Vibration    10          0.678              1.717              1.557
 Vibration    11          0.691              1.679              1.432
 Vibration    12          0.705              1.637              1.315
 Vibration    13          0.715              1.609              1.244
 Vibration    14          0.730              1.566              1.146
 Vibration    15          0.747              1.520              1.053
 Vibration    16          0.774              1.448              0.926
 Vibration    17          0.786              1.417              0.877
 Vibration    18          0.826              1.318              0.739
 Vibration    19          0.842              1.281              0.694
 Vibration    20          0.904              1.143              0.547

                           ! Non-Optimized Parameters !

 1\1\GINC-NODE112\Freq\RB3LYP\6-31G(d)\C9H21N1\VSC10255\08-Dec-2020\0\\
 #N Geom=AllCheck Guess=TCheck SCRF=Check GenChk RB3LYP/6-31G(d) Freq\\
 CID_81014886_JID_271_neutraal\\0,1\C,0.7587323725,-0.0941240606,0.0264
 920383\C,0.052709058,-0.423897245,1.3459155841\C,0.8177620795,0.048352
 145,2.6016083877\C,0.8848659827,1.5841851594,2.6884473587\C,0.33286924
 67,-0.6537866835,3.9173759983\C,0.8172484291,-2.120933286,3.885279006\
 C,0.9904039366,0.0019647718,5.1468983409\C,-1.2090741645,-0.7070909439
 ,4.1150982821\C,-2.0243354961,0.5896026578,4.2720809487\N,-2.564994483

 Normal termination of Gaussian 16 at Tue Dec  8 10:37:03 2020.

 ----------------------------------------------------------------------
 # B3LYP/6-311++G(d,p) empiricaldispersion=gd3bj scf=xqc pop=npa geom=c
 heck
 ----------------------------------------------------------------------

 -------------------------------------
 CID_81014886_JID_271_Energie_neutraal
 -------------------------------------
 Structure from the checkpoint file:  "JID_271.chk"
 Charge =  0 Multiplicity = 1

 SCF Done:  E(RB3LYP) =  -410.525194815     A.U. after   13 cycles
 Normal termination of Gaussian 16 at Tue Dec  8 10:42:16 2020.

 ----------------------------------------------------------------------
 # B3LYP/6-311++G(d,p) empiricaldispersion=gd3bj scf=xqc pop=npa geom=c
 heck
 ----------------------------------------------------------------------

 -----------------------------------
 CID_81014886_JID_271_Energie_kation
 -----------------------------------
 Structure from the checkpoint file:  "JID_271.chk"
 Charge =  1 Multiplicity = 2

 SCF Done:  E(UB3LYP) =  -410.194465317     A.U. after   26 cycles
 Normal termination of Gaussian 16 at Tue Dec  8 10:56:05 2020.
 Gaussian 16:  ES64L-G16RevA.03 25-Dec-2016

 ----------------------------------
 CID_81014886_JID_271_Energie_anion
 ----------------------------------
 Structure from the checkpoint file:  "JID_271.chk"
 Charge = -1 Multiplicity = 2

                         Standard orientation:
 ---------------------------------------------------------------------
 Center     Atomic      Atomic             Coordinates (Angstroms)
 Number     Number       Type             X           Y           Z
 ---------------------------------------------------------------------
      1          6           0       -3.133062   -0.426349   -0.357649
      2          6           0       -1.637350   -0.290779   -0.661896
      3          6           0       -0.842599    0.466566    0.424331
      4          6           0       -0.795756   -0.314838    1.750242
      5          6           0        0.553702    0.974619   -0.077255
      6          6           0        0.315110    2.147790   -1.054454
      7          6           0        1.371645    1.539396    1.100066
      8          6           0        1.405195   -0.072142   -0.851061
      9          6           0        1.900883   -1.350867   -0.151158
     10          7           0        0.991079   -2.495161   -0.321751
     11          1           0       -3.322974   -1.030433    0.536217
     12          1           0       -3.657285   -0.906577   -1.191428
     13          1           0       -3.593004    0.556580   -0.196185
     14          1           0       -1.203578   -1.282855   -0.828425
     15          1           0       -1.532756    0.237088   -1.616501
     16          1           0       -1.415946    1.381422    0.642717
     17          1           0       -0.127293   -1.180699    1.711420
     18          1           0       -0.453431    0.316479    2.574775
     19          1           0       -1.791000   -0.681381    2.019595
     20          1           0       -0.241973    2.955823   -0.565689
     21          1           0        1.269232    2.562095   -1.400323
     22          1           0       -0.247408    1.840225   -1.941689
     23          1           0        1.666209    0.769863    1.818869
     24          1           0        2.288590    2.014107    0.731030
     25          1           0        0.799232    2.300763    1.644097
     26          1           0        0.877125   -0.384119   -1.759301
     27          1           0        2.295728    0.472860   -1.192572
     28          1           0        2.841453   -1.644412   -0.631247
     29          1           0        2.152159   -1.135894    0.901062
     30          1           0        1.458464   -3.343641   -0.005640
     31          1           0        0.174290   -2.391542    0.274465
 ---------------------------------------------------------------------

 SCF Done:  E(UB3LYP) =  -410.508375492     A.U. after   27 cycles

 The electronic state is 2-A.
 Alpha  occ. eigenvalues --  -14.18289 -10.08141 -10.07684 -10.06549 -10.05535
 Alpha  occ. eigenvalues --  -10.05443 -10.05390 -10.05203 -10.04864 -10.04831
 Alpha  occ. eigenvalues --   -0.77373  -0.72563  -0.67039  -0.61824  -0.60531
 Alpha  occ. eigenvalues --   -0.57901  -0.53836  -0.50449  -0.48031  -0.41615
 Alpha  occ. eigenvalues --   -0.38870  -0.36996  -0.35352  -0.34619  -0.33862
 Alpha  occ. eigenvalues --   -0.31798  -0.30611  -0.30072  -0.28700  -0.28171
 Alpha  occ. eigenvalues --   -0.26898  -0.26800  -0.25536  -0.25083  -0.24768
 Alpha  occ. eigenvalues --   -0.23578  -0.22014  -0.20265  -0.19890  -0.19503
 Alpha  occ. eigenvalues --   -0.13595   0.04712
 Alpha virt. eigenvalues --    0.06982   0.07279   0.07965   0.09126   0.09623
 Alpha virt. eigenvalues --    0.09815   0.10112   0.10617   0.12025   0.12334
 Alpha virt. eigenvalues --    0.12542   0.13180   0.13645   0.13845   0.14080

  Beta  occ. eigenvalues --  -14.18257 -10.08114 -10.07682 -10.06539 -10.05527
  Beta  occ. eigenvalues --  -10.05416 -10.05381 -10.05184 -10.04835 -10.04796
  Beta  occ. eigenvalues --   -0.77316  -0.72539  -0.67010  -0.61778  -0.60480
  Beta  occ. eigenvalues --   -0.57851  -0.53770  -0.50379  -0.47974  -0.41571
  Beta  occ. eigenvalues --   -0.38818  -0.36959  -0.35310  -0.34584  -0.33827
  Beta  occ. eigenvalues --   -0.31752  -0.30578  -0.30035  -0.28668  -0.28142
  Beta  occ. eigenvalues --   -0.26860  -0.26759  -0.25502  -0.25047  -0.24730
  Beta  occ. eigenvalues --   -0.23551  -0.21976  -0.20224  -0.19867  -0.19482
  Beta  occ. eigenvalues --   -0.13558
  Beta virt. eigenvalues --    0.06888   0.07870   0.08085   0.08616   0.09682
  Beta virt. eigenvalues --    0.10103   0.10350   0.10543   0.11078   0.12479
  Beta virt. eigenvalues --    0.12798   0.12906   0.13540   0.14091   0.14159

 Mulliken charges and spin densities:
               1          2
     1  C    1.376559  -2.047749
     2  C   -1.796392   1.550812
     3  C    0.666616  -0.523974
     4  C    1.030272  -1.733245
     5  C   -1.341976   2.062805
     6  C    0.145151  -0.686207
     7  C    0.897469  -1.533436
     8  C   -0.901680   0.598620
     9  C    1.587627  -2.148689
    10  N   -0.528510   0.167154
    11  H   -0.077325   0.209869
    12  H   -0.119718   0.256983
    13  H   -0.302176   0.436012
    14  H   -0.010316   0.154926
    15  H    0.115046  -0.006330
    16  H    0.238841  -0.065824
    17  H   -0.332356   0.461585
    18  H   -0.238759   0.389451
    19  H   -0.315633   0.446585
    20  H   -0.182562   0.323685
    21  H   -0.157842   0.292685
    22  H   -0.012407   0.137752
    23  H    0.064634   0.065271
    24  H   -0.141841   0.286689
    25  H   -0.196180   0.352635
    26  H    0.052039   0.123497
    27  H    0.010293   0.150138
    28  H   -0.373565   0.535166
    29  H   -0.192523   0.319603
    30  H   -0.207442   0.453186
    31  H    0.244658  -0.029655
 Sum of Mulliken charges =  -1.00000   1.00000

 Dipole moment (field-independent basis, Debye):
    X=             -0.6836    Y=              1.7372    Z=             -1.8382  Tot=              2.6199
 Quadrupole moment (field-independent basis, Debye-Ang):
   XX=           -121.9033   YY=           -117.8695   ZZ=           -105.5614
   XY=              3.6901   XZ=              0.2112   YZ=             -0.3889

 Summary of Natural Population Analysis:

                                       Natural Population
                Natural  -----------------------------------------------
    Atom  No    Charge         Core      Valence    Rydberg      Total
 -----------------------------------------------------------------------
      C    1   -0.28280      0.99967     2.27838    0.00476     3.28280
      C    2   -0.19497      0.99961     2.18710    0.00827     3.19497
      C    3   -0.10658      0.99956     2.09483    0.01219     3.10658
      C    4   -0.28711      0.99964     2.28086    0.00661     3.28711
      C    5   -0.03931      0.99956     2.02623    0.01352     3.03931
      C    6   -0.28176      0.99963     2.27470    0.00743     3.28176
      C    7   -0.28833      0.99962     2.28086    0.00785     3.28833
      C    8   -0.19633      0.99958     2.18570    0.01105     3.19633
      C    9   -0.09090      0.99962     2.07970    0.01158     3.09090
      N   10   -0.42362      0.99977     2.91308    0.01077     3.92362
      H   11    0.09603      0.00000     0.40299    0.00099     0.40397
      H   12    0.09725      0.00000     0.40197    0.00077     0.40275
      H   13    0.09507      0.00000     0.40381    0.00112     0.40493
      H   14    0.10082      0.00000     0.39725    0.00193     0.39918
      H   15    0.09536      0.00000     0.40327    0.00137     0.40464
      H   16    0.09247      0.00000     0.40543    0.00210     0.40753
      H   17    0.09310      0.00000     0.40507    0.00183     0.40690
      H   18    0.10259      0.00000     0.39627    0.00114     0.39741
      H   19    0.10024      0.00000     0.39866    0.00110     0.39976
      H   20    0.09862      0.00000     0.40036    0.00102     0.40138
      H   21    0.09815      0.00000     0.40097    0.00088     0.40185
      H   22    0.09848      0.00000     0.40049    0.00103     0.40152
      H   23    0.10232      0.00000     0.39640    0.00128     0.39768
      H   24    0.09915      0.00000     0.39975    0.00111     0.40085
      H   25    0.09961      0.00000     0.39936    0.00103     0.40039
      H   26    0.10356      0.00000     0.39480    0.00164     0.39644
      H   27    0.09849      0.00000     0.40021    0.00129     0.40151
      H   28    0.09106      0.00000     0.40765    0.00128     0.40894
      H   29    0.08113      0.00000     0.41657    0.00230     0.41887
      H   30    0.17623      0.00000     0.32122    0.00255     0.32377
      H   31    0.17196      0.00000     0.32562    0.00242     0.32804
 =======================================================================
   * Total *   -0.00000      9.99625    30.87955    0.12421    41.00000

 Normal termination of Gaussian 16 at Tue Dec  8 11:07:25 2020.
