 Gaussian 16, Revision A.03,

 -----------------------------------------------------------
 # opt freq B3LYP/6-31G(d) empiricaldispersion=gd3bj scf=xqc
 -----------------------------------------------------------

 -----------------------------
 CID_87868037_JID_923_neutraal
 -----------------------------
 Symbolic Z-matrix:
 Charge =  0 Multiplicity = 1

 SCF Done:  E(RB3LYP) =  -515.690028185     A.U. after   14 cycles
 SCF Done:  E(RB3LYP) =  -515.692758129     A.U. after   12 cycles
 SCF Done:  E(RB3LYP) =  -515.691426817     A.U. after   13 cycles
 SCF Done:  E(RB3LYP) =  -515.693250649     A.U. after   13 cycles
 SCF Done:  E(RB3LYP) =  -515.694167862     A.U. after   13 cycles
 SCF Done:  E(RB3LYP) =  -515.694356446     A.U. after   12 cycles
 SCF Done:  E(RB3LYP) =  -515.694489386     A.U. after   11 cycles
 SCF Done:  E(RB3LYP) =  -515.694571674     A.U. after   12 cycles
 SCF Done:  E(RB3LYP) =  -515.694635446     A.U. after   10 cycles
 SCF Done:  E(RB3LYP) =  -515.694705124     A.U. after   11 cycles
 SCF Done:  E(RB3LYP) =  -515.694731731     A.U. after    9 cycles
 SCF Done:  E(RB3LYP) =  -515.694749876     A.U. after   11 cycles
 SCF Done:  E(RB3LYP) =  -515.694751954     A.U. after    8 cycles
 SCF Done:  E(RB3LYP) =  -515.694752171     A.U. after    7 cycles
 SCF Done:  E(RB3LYP) =  -515.694752303     A.U. after    7 cycles
 Optimization completed.
    -- Stationary point found.
 Normal termination of Gaussian 16 at Tue Dec  8 13:34:16 2020.

 --------------------------------------------------------------------
 #N Geom=AllCheck Guess=TCheck SCRF=Check GenChk RB3LYP/6-31G(d) Freq
 --------------------------------------------------------------------

 Structure from the checkpoint file:  "JID_923.chk"
 -----------------------------
 CID_87868037_JID_923_neutraal
 -----------------------------
 Charge =  0 Multiplicity = 1

 SCF Done:  E(RB3LYP) =  -515.694752303     A.U. after    1 cycles

  Exact polarizability:  69.334   7.122  90.317   0.187   2.129  67.212
 Approx polarizability:  92.972  19.700 134.045   1.286   1.058 101.328

                      1                      2                      3
                      A                      A                      A
 Frequencies --     44.1079                59.2368                85.7562
 Red. masses --      4.3370                 4.9388                 8.9523
 Frc consts  --      0.0050                 0.0102                 0.0388
 IR Inten    --      1.3638                 0.3030                 0.6159

                      4                      5                      6
                      A                      A                      A
 Frequencies --    108.8884               144.5460               201.7626
 Red. masses --      3.8867                 2.6243                 2.7294
 Frc consts  --      0.0272                 0.0323                 0.0655
 IR Inten    --      1.4163                 2.7601                 8.5654

                      7                      8                      9
                      A                      A                      A
 Frequencies --    235.9037               300.5264               334.2561
 Red. masses --      5.0209                 2.2580                 2.8207
 Frc consts  --      0.1646                 0.1202                 0.1857
 IR Inten    --      0.8339                 0.8343                 0.4143

                     10                     11                     12
                      A                      A                      A
 Frequencies --    411.7380               465.2488               495.1081
 Red. masses --      2.0727                 2.1976                 1.7708
 Frc consts  --      0.2070                 0.2803                 0.2557
 IR Inten    --      1.2442                 5.4371                23.8629

                     13                     14                     15
                      A                      A                      A
 Frequencies --    530.3832               556.8954               578.0431
 Red. masses --      1.6472                 3.9139                 1.4715
 Frc consts  --      0.2730                 0.7152                 0.2897
 IR Inten    --      5.0657                32.3489               144.9968

                     16                     17                     18
                      A                      A                      A
 Frequencies --    650.8221               671.8233               776.4944
 Red. masses --      1.6699                 1.7324                10.0729
 Frc consts  --      0.4167                 0.4607                 3.5783
 IR Inten    --    100.3621                 8.8828                68.2030

                     19                     20                     21
                      A                      A                      A
 Frequencies --    842.6530               862.4130               935.4615
 Red. masses --      2.4608                 3.4523                 1.6114
 Frc consts  --      1.0295                 1.5128                 0.8308
 IR Inten    --      4.1735                 2.9542                 3.6356

                     22                     23                     24
                      A                      A                      A
 Frequencies --    962.3858               977.4280               987.5221
 Red. masses --      2.4907                 1.3670                 2.9216
 Frc consts  --      1.3591                 0.7695                 1.6787
 IR Inten    --     19.6184                24.8713                39.5911

                     25                     26                     27
                      A                      A                      A
 Frequencies --   1004.4533              1047.8271              1108.1675
 Red. masses --      1.9223                 1.1028                 2.2356
 Frc consts  --      1.1427                 0.7134                 1.6175
 IR Inten    --      4.3258                23.5481               144.1978

                     28                     29                     30
                      A                      A                      A
 Frequencies --   1135.4798              1168.1641              1186.5890
 Red. masses --      3.4510                 3.2742                 1.9657
 Frc consts  --      2.6215                 2.6325                 1.6307
 IR Inten    --     53.4669                38.2024                19.9843

                     31                     32                     33
                      A                      A                      A
 Frequencies --   1221.6910              1293.6046              1316.7532
 Red. masses --      1.5885                 1.1943                 1.2248
 Frc consts  --      1.3969                 1.1775                 1.2511
 IR Inten    --    167.0800                 6.4407                14.8245

                     34                     35                     36
                      A                      A                      A
 Frequencies --   1329.2890              1335.5551              1393.8579
 Red. masses --      1.2774                 1.1611                 1.2688
 Frc consts  --      1.3299                 1.2202                 1.4523
 IR Inten    --      0.2756                 2.4178                10.6737

                     37                     38                     39
                      A                      A                      A
 Frequencies --   1410.1279              1432.6509              1462.2373
 Red. masses --      1.3254                 1.2972                 1.7997
 Frc consts  --      1.5528                 1.5687                 2.2671
 IR Inten    --     30.0167                11.2915                57.1445

                     40                     41                     42
                      A                      A                      A
 Frequencies --   1482.0634              1484.5448              1515.8141
 Red. masses --      1.2395                 1.4165                 1.2506
 Frc consts  --      1.6041                 1.8393                 1.6931
 IR Inten    --      7.6927                25.5676                35.2553

                     43                     44                     45
                      A                      A                      A
 Frequencies --   1527.7781              1531.2954              1728.4927
 Red. masses --      1.1783                 1.1148                 4.3035
 Frc consts  --      1.6204                 1.5401                 7.5755
 IR Inten    --     14.0169                 5.7788                 1.5267

                     46                     47                     48
                      A                      A                      A
 Frequencies --   1838.8381              3044.9987              3054.9105
 Red. masses --      7.4158                 1.0575                 1.0589
 Frc consts  --     14.7739                 5.7770                 5.8222
 IR Inten    --    454.1370                62.0850                12.6644

                     49                     50                     51
                      A                      A                      A
 Frequencies --   3079.3529              3087.1063              3102.5964
 Red. masses --      1.0622                 1.1048                 1.1052
 Frc consts  --      5.9343                 6.2037                 6.2683
 IR Inten    --     26.0076                27.1560                30.8963

                     52                     53                     54
                      A                      A                      A
 Frequencies --   3131.0592              3152.2877              3163.5608
 Red. masses --      1.1067                 1.0625                 1.0882
 Frc consts  --      6.3923                 6.2208                 6.4170
 IR Inten    --     21.1447                 9.6176                15.5397

                     55                     56                     57
                      A                      A                      A
 Frequencies --   3239.1389              3640.9457              3740.6229
 Red. masses --      1.1166                 1.0768                 1.0647
 Frc consts  --      6.9028                 8.4102                 8.7775
 IR Inten    --     10.8640                33.4091                74.3452

 - Thermochemistry -
 -------------------
 Temperature   298.150 Kelvin.  Pressure   1.00000 Atm.
 Atom     1 has atomic number  6 and mass  12.00000

 Molecular mass:   145.07389 amu.
 Principal axes and moments of inertia in atomic units:
                           1         2         3
     Eigenvalues --  1137.573161589.186242189.34281
           X            0.99771  -0.06754   0.00266
           Y            0.06751   0.99767   0.01005
           Z           -0.00333  -0.00985   0.99995
 This molecule is an asymmetric top.
 Rotational symmetry number  1.
 Warning -- assumption of classical behavior for rotation
           may cause significant error
 Rotational temperatures (Kelvin)      0.07614     0.05450     0.03956
 Rotational constants (GHZ):           1.58648     1.13564     0.82433
 Zero-point vibrational energy     464218.4 (Joules/Mol)
                                  110.95086 (Kcal/Mol)
 Warning -- explicit consideration of  15 degrees of freedom as
           vibrations may cause significant error
 Vibrational temperatures:     63.46    85.23   123.38   156.67   207.97
          (Kelvin)            290.29   339.41   432.39   480.92   592.40
                              669.39   712.35   763.10   801.25   831.68
                              936.39   966.60  1117.20  1212.39  1240.82
                             1345.92  1384.66  1406.30  1420.82  1445.18
                             1507.59  1594.41  1633.70  1680.73  1707.24
                             1757.74  1861.21  1894.51  1912.55  1921.57
                             2005.45  2028.86  2061.27  2103.83  2132.36
                             2135.93  2180.92  2198.13  2203.19  2486.92
                             2645.68  4381.07  4395.33  4430.50  4441.66
                             4463.94  4504.90  4535.44  4551.66  4660.40
                             5238.51  5381.92

 Zero-point correction=                           0.176811 (Hartree/Particle)
 Thermal correction to Energy=                    0.187542
 Thermal correction to Enthalpy=                  0.188486
 Thermal correction to Gibbs Free Energy=         0.139632
 Sum of electronic and zero-point Energies=           -515.517941
 Sum of electronic and thermal Energies=              -515.507210
 Sum of electronic and thermal Enthalpies=            -515.506266
 Sum of electronic and thermal Free Energies=         -515.555120

                     E (Thermal)             CV                S
                      KCal/Mol        Cal/Mol-Kelvin    Cal/Mol-Kelvin
 Total                  117.684             38.575            102.822
 Electronic               0.000              0.000              0.000
 Translational            0.889              2.981             40.827
 Rotational               0.889              2.981             29.760
 Vibrational            115.907             32.613             32.235
 Vibration     1          0.595              1.980              5.065
 Vibration     2          0.597              1.974              4.482
 Vibration     3          0.601              1.959              3.755
 Vibration     4          0.606              1.942              3.289
 Vibration     5          0.616              1.909              2.743
 Vibration     6          0.639              1.837              2.117
 Vibration     7          0.655              1.786              1.834
 Vibration     8          0.693              1.673              1.414
 Vibration     9          0.716              1.607              1.239
 Vibration    10          0.776              1.445              0.920
 Vibration    11          0.823              1.327              0.751
 Vibration    12          0.851              1.261              0.670
 Vibration    13          0.885              1.183              0.586
 Vibration    14          0.912              1.125              0.530
 Vibration    15          0.935              1.079              0.489

 Optimization completed.
    -- Stationary point found.
 Normal termination of Gaussian 16 at Tue Dec  8 13:38:36 2020.

 ----------------------------------------------------------------------
 # B3LYP/6-311++G(d,p) empiricaldispersion=gd3bj scf=xqc pop=npa geom=c
 heck
 ----------------------------------------------------------------------

 -------------------------------------
 CID_87868037_JID_923_Energie_neutraal
 -------------------------------------
 Structure from the checkpoint file:  "JID_923.chk"
 Charge =  0 Multiplicity = 1

 SCF Done:  E(RB3LYP) =  -515.863573527     A.U. after   13 cycles
 Normal termination of Gaussian 16 at Tue Dec  8 13:41:16 2020.

 ----------------------------------------------------------------------
 # B3LYP/6-311++G(d,p) empiricaldispersion=gd3bj scf=xqc pop=npa geom=c
 heck
 ----------------------------------------------------------------------

 -----------------------------------
 CID_87868037_JID_923_Energie_kation
 -----------------------------------
 Structure from the checkpoint file:  "JID_923.chk"
 Charge =  1 Multiplicity = 2

 SCF Done:  E(UB3LYP) =  -515.532945257     A.U. after   22 cycles
 Normal termination of Gaussian 16 at Tue Dec  8 13:46:25 2020.
 Gaussian 16:  ES64L-G16RevA.03 25-Dec-2016

 ----------------------------------------------------------------------
 # B3LYP/6-311++G(d,p) empiricaldispersion=gd3bj scf=xqc pop=npa geom=c
 heck
 ----------------------------------------------------------------------

 ----------------------------------
 CID_87868037_JID_923_Energie_anion
 ----------------------------------
 Structure from the checkpoint file:  "JID_923.chk"
 Charge = -1 Multiplicity = 2

                         Standard orientation:
 ---------------------------------------------------------------------
 Center     Atomic      Atomic             Coordinates (Angstroms)
 Number     Number       Type             X           Y           Z
 ---------------------------------------------------------------------
      1          6           0       -1.395109    2.147185    0.418211
      2          6           0       -2.114619    1.040501    0.226813
      3          6           0       -1.786891    0.005874   -0.812955
      4          8           0       -1.633197   -1.314866   -0.280966
      5          6           0       -0.647481   -1.475875    0.730269
      6          6           0        0.731133   -1.835001    0.170335
      7          7           0        1.323911   -0.792016   -0.664310
      8          6           0        1.694753    0.436444   -0.210639
      9          8           0        1.869502    1.421833   -0.908758
     10          8           0        1.865340    0.445718    1.141852
     11          1           0       -0.502723    2.351719   -0.170168
     12          1           0       -1.674481    2.888586    1.162419
     13          1           0       -2.996539    0.839665    0.835174
     14          1           0       -2.616059   -0.092945   -1.523179
     15          1           0       -0.901480    0.324537   -1.377826
     16          1           0       -0.571264   -0.579087    1.355708
     17          1           0       -0.990414   -2.303261    1.363039
     18          1           0        1.411933   -2.055308    0.998821
     19          1           0        0.654020   -2.733234   -0.448934
     20          1           0        1.091552   -0.791747   -1.646960
     21          1           0        2.124201    1.358933    1.352840
 ---------------------------------------------------------------------

 SCF Done:  E(UB3LYP) =  -515.847285686     A.U. after   31 cycles

 The electronic state is 2-A.
 Alpha  occ. eigenvalues --  -19.05720 -19.02313 -18.99303 -14.23567 -10.21629
 Alpha  occ. eigenvalues --  -10.11859 -10.10957 -10.10303 -10.07677 -10.06882
 Alpha  occ. eigenvalues --   -1.00368  -0.93191  -0.90806  -0.82824  -0.69185
 Alpha  occ. eigenvalues --   -0.65007  -0.58503  -0.54143  -0.51145  -0.46248
 Alpha  occ. eigenvalues --   -0.42062  -0.40788  -0.39285  -0.37761  -0.36583
 Alpha  occ. eigenvalues --   -0.35956  -0.34670  -0.33288  -0.31338  -0.30482
 Alpha  occ. eigenvalues --   -0.28708  -0.27282  -0.26041  -0.22085  -0.21331
 Alpha  occ. eigenvalues --   -0.18583  -0.17877  -0.17208  -0.14588   0.04860
 Alpha virt. eigenvalues --    0.07063   0.07625   0.08144   0.09005   0.09455
 Alpha virt. eigenvalues --    0.10792   0.10909   0.11226   0.12808   0.13177
 Alpha virt. eigenvalues --    0.14523   0.15077   0.16005   0.16414   0.16894

  Beta  occ. eigenvalues --  -19.05663 -19.02302 -18.99290 -14.23541 -10.21626
  Beta  occ. eigenvalues --  -10.11843 -10.10940 -10.10269 -10.07665 -10.06861
  Beta  occ. eigenvalues --   -1.00296  -0.93168  -0.90747  -0.82769  -0.69158
  Beta  occ. eigenvalues --   -0.64955  -0.58452  -0.54064  -0.51061  -0.46194
  Beta  occ. eigenvalues --   -0.42007  -0.40732  -0.39240  -0.37722  -0.36542
  Beta  occ. eigenvalues --   -0.35900  -0.34633  -0.33241  -0.31293  -0.30432
  Beta  occ. eigenvalues --   -0.28663  -0.27240  -0.26005  -0.22034  -0.21298
  Beta  occ. eigenvalues --   -0.18553  -0.17836  -0.17176  -0.14554
  Beta virt. eigenvalues --    0.07346   0.08202   0.08364   0.09096   0.09308
  Beta virt. eigenvalues --    0.10345   0.11280   0.11376   0.12019   0.13006
  Beta virt. eigenvalues --    0.13488   0.14627   0.15310   0.16136   0.16601

 Mulliken charges and spin densities:
               1          2
     1  C    0.032140  -0.564675
     2  C    0.100081   0.238782
     3  C    0.280491  -0.761481
     4  O   -0.096096   0.027893
     5  C   -0.230574  -0.017181
     6  C    1.211492  -1.582581
     7  N   -0.329417   0.108387
     8  C    0.925778  -0.987839
     9  O   -0.399121   0.087111
    10  O   -0.244597   0.086823
    11  H    0.045905   0.110270
    12  H   -0.369831   0.489308
    13  H   -0.126448   0.292905
    14  H   -0.276642   0.450676
    15  H    0.053297   0.088644
    16  H    0.325986  -0.168581
    17  H   -0.697910   0.869592
    18  H   -0.226326   0.410655
    19  H   -0.498031   0.698447
    20  H   -0.100332   0.435352
    21  H   -0.379846   0.687493
 Sum of Mulliken charges =  -1.00000   1.00000

 Dipole moment (field-independent basis, Debye):
    X=             -1.5531    Y=              0.5071    Z=             -1.5960  Tot=              2.2840
 Quadrupole moment (field-independent basis, Debye-Ang):
   XX=           -103.1318   YY=           -109.4162   ZZ=            -94.5818
   XY=             -4.0006   XZ=             -1.6927   YZ=             -2.8633

 Summary of Natural Population Analysis:

                                       Natural Population
                Natural  -----------------------------------------------
    Atom  No    Charge         Core      Valence    Rydberg      Total
 -----------------------------------------------------------------------
      C    1   -0.18027      0.99956     2.17243    0.00828     3.18027
      C    2   -0.10819      0.99956     2.09859    0.01005     3.10819
      C    3   -0.02654      0.99954     2.01460    0.01239     3.02654
      O    4   -0.30208      0.99989     3.29186    0.01033     4.30208
      C    5   -0.02065      0.99956     2.00790    0.01319     3.02065
      C    6   -0.10031      0.99961     2.08875    0.01195     3.10031
      N    7   -0.32886      0.99967     2.81737    0.01182     3.82886
      C    8    0.45590      0.99972     1.51845    0.02594     2.54410
      O    9   -0.33800      0.99987     3.33233    0.00579     4.33800
      O   10   -0.35201      0.99988     3.34521    0.00692     4.35201
      H   11    0.10005      0.00000     0.39827    0.00167     0.39995
      H   12    0.09468      0.00000     0.40408    0.00124     0.40532
      H   13    0.09434      0.00000     0.40445    0.00121     0.40566
      H   14    0.09321      0.00000     0.40530    0.00149     0.40679
      H   15    0.08197      0.00000     0.41570    0.00233     0.41803
      H   16    0.09155      0.00000     0.40617    0.00228     0.40845
      H   17    0.09166      0.00000     0.40643    0.00192     0.40834
      H   18    0.10461      0.00000     0.39342    0.00196     0.39539
      H   19    0.10142      0.00000     0.39591    0.00267     0.39858
      H   20    0.19858      0.00000     0.29842    0.00301     0.30142
      H   21    0.24895      0.00000     0.23864    0.01241     0.25105
 =======================================================================
   * Total *    0.00000      9.99685    28.85429    0.14886    39.00000

 Normal termination of Gaussian 16 at Tue Dec  8 13:56:42 2020.
