 Gaussian 16, Revision A.03,

 ----------------------------------------------------------------------
 # opt=(cartesian,calcfc) freq B3LYP/6-31G(d) empiricaldispersion=gd3bj
  scf=xqc
 ----------------------------------------------------------------------

 ----------------------------
 CID_676864_JID_4403_neutraal
 ----------------------------
 Symbolic Z-matrix:
 Charge =  0 Multiplicity = 1

 SCF Done:  E(RB3LYP) =  -588.861957307     A.U. after   14 cycles
 SCF Done:  E(RB3LYP) =  -588.863682916     A.U. after   12 cycles
 SCF Done:  E(RB3LYP) =  -588.865139979     A.U. after   12 cycles
 SCF Done:  E(RB3LYP) =  -588.865393030     A.U. after   12 cycles
 SCF Done:  E(RB3LYP) =  -588.865576405     A.U. after   12 cycles
 SCF Done:  E(RB3LYP) =  -588.865371835     A.U. after   13 cycles
 SCF Done:  E(RB3LYP) =  -588.865556728     A.U. after   12 cycles
 SCF Done:  E(RB3LYP) =  -588.849872561     A.U. after   13 cycles
 SCF Done:  E(RB3LYP) =  -588.865578359     A.U. after    7 cycles
 SCF Done:  E(RB3LYP) =  -588.865711683     A.U. after   12 cycles
 SCF Done:  E(RB3LYP) =  -588.866200871     A.U. after    8 cycles
 SCF Done:  E(RB3LYP) =  -588.866201379     A.U. after    9 cycles
 SCF Done:  E(RB3LYP) =  -588.861512703     A.U. after   13 cycles
 SCF Done:  E(RB3LYP) =  -588.866201772     A.U. after    6 cycles
 SCF Done:  E(RB3LYP) =  -588.866199941     A.U. after    9 cycles
 SCF Done:  E(RB3LYP) =  -588.866201825     A.U. after    8 cycles
 Optimization completed.
    -- Stationary point found.

 1\1\GINC-NODE318\FOpt\RB3LYP\6-31G(d)\C11H9N3\VSC10255\17-Dec-2020\0\\
 # opt=(cartesian,calcfc) freq B3LYP/6-31G(d) empiricaldispersion=gd3bj
  scf=xqc\\CID_676864_JID_4403_neutraal\\0,1\C,1.3309712404,0.249966868
 1,0.1336839302\C,0.8680544711,0.5615840995,1.4148237083\C,-0.035840111
 8,-0.3147522135,2.0101991855\N,-0.4790411631,-1.4423618087,1.437088328
 4\C,-0.0203447643,-1.7305874113,0.2112206167\C,0.8785102329,-0.9062787
 558,-0.4878279578\N,-0.5448407403,-2.86513655,-0.4238718463\C,-0.03916
 97786,-4.0319284777,-0.34184952\C,1.151048532,-4.5282067125,0.37683904

 Normal termination of Gaussian 16 at Thu Dec 17 20:36:38 2020.

 --------------------------------------------------------------------
 #N Geom=AllCheck Guess=TCheck SCRF=Check GenChk RB3LYP/6-31G(d) Freq
 --------------------------------------------------------------------

 Structure from the checkpoint file:  "JID_4403.chk"
 ----------------------------
 CID_676864_JID_4403_neutraal
 ----------------------------
 Charge =  0 Multiplicity = 1

 SCF Done:  E(RB3LYP) =  -588.866201825     A.U. after    1 cycles

  Exact polarizability: 168.485  15.923 126.199   4.264   3.648  86.070
 Approx polarizability: 248.486  27.370 226.736  12.720   5.553 151.927

                      1                      2                      3
                      A                      A                      A
 Frequencies --      6.5434                40.2360                67.2290
 Red. masses --      4.9194                 4.4832                 5.1775
 Frc consts  --      0.0001                 0.0043                 0.0138
 IR Inten    --      0.8582                 2.3076                 0.6264

                      4                      5                      6
                      A                      A                      A
 Frequencies --    126.4814               190.0138               239.9903
 Red. masses --      4.9504                 5.1297                 4.9745
 Frc consts  --      0.0467                 0.1091                 0.1688
 IR Inten    --      2.0242                 4.7005                 1.6573

                      7                      8                      9
                      A                      A                      A
 Frequencies --    297.6920               397.5935               412.4931
 Red. masses --      3.3212                 3.0147                 3.6587
 Frc consts  --      0.1734                 0.2808                 0.3668
 IR Inten    --      1.9911                 1.3630                 3.1662

                     10                     11                     12
                      A                      A                      A
 Frequencies --    437.7887               456.9139               538.1953
 Red. masses --      5.3774                 5.0342                 6.3894
 Frc consts  --      0.6072                 0.6192                 1.0904
 IR Inten    --      4.5208                 1.1947                 5.6086

                     13                     14                     15
                      A                      A                      A
 Frequencies --    553.2257               609.7520               640.3499
 Red. masses --      3.6617                 5.1144                 7.3893
 Frc consts  --      0.6603                 1.1203                 1.7852
 IR Inten    --      3.5136                 1.0080                 9.8869

                     16                     17                     18
                      A                      A                      A
 Frequencies --    646.5637               706.1987               721.7432
 Red. masses --      6.6926                 5.3420                 2.0136
 Frc consts  --      1.6484                 1.5697                 0.6180
 IR Inten    --      5.2681                 6.2902                21.8585

                     19                     20                     21
                      A                      A                      A
 Frequencies --    759.3064               808.3217               815.1385
 Red. masses --      1.6349                 3.7180                 2.7210
 Frc consts  --      0.5553                 1.4313                 1.0652
 IR Inten    --     12.6189                 8.9177                12.6040

                     22                     23                     24
                      A                      A                      A
 Frequencies --    824.1994               868.8637               893.1799
 Red. masses --      2.0127                 3.0772                 1.6473
 Frc consts  --      0.8055                 1.3687                 0.7743
 IR Inten    --     13.3870                33.3778                14.7414

                     25                     26                     27
                      A                      A                      A
 Frequencies --    945.4299               969.7602               974.2081
 Red. masses --      1.3366                 1.3538                 1.4020
 Frc consts  --      0.7039                 0.7501                 0.7840
 IR Inten    --      0.0711                 0.4036                 0.7403

                     28                     29                     30
                      A                      A                      A
 Frequencies --    997.4243               999.0327              1003.5019
 Red. masses --      1.2836                 1.5569                 1.3963
 Frc consts  --      0.7524                 0.9155                 0.8284
 IR Inten    --      0.0084                 1.4788                 0.1944

                     31                     32                     33
                      A                      A                      A
 Frequencies --   1006.5954              1044.0341              1075.6311
 Red. masses --      6.3073                 4.1607                 2.3159
 Frc consts  --      3.7654                 2.6720                 1.5787
 IR Inten    --      6.9932                18.3503                 2.9543

                     34                     35                     36
                      A                      A                      A
 Frequencies --   1077.9113              1127.0770              1162.4101
 Red. masses --      2.6289                 1.5350                 1.5676
 Frc consts  --      1.7997                 1.1489                 1.2480
 IR Inten    --      2.8784                 1.2100                 2.6029

                     37                     38                     39
                      A                      A                      A
 Frequencies --   1182.2346              1219.4380              1254.4954
 Red. masses --      1.1238                 2.3560                 1.6843
 Frc consts  --      0.9254                 2.0642                 1.5618
 IR Inten    --      8.0723                 4.4157                55.8211

                     40                     41                     42
                      A                      A                      A
 Frequencies --   1269.2630              1308.4291              1320.4940
 Red. masses --      2.5860                 6.3494                 7.1510
 Frc consts  --      2.4546                 6.4044                 7.3467
 IR Inten    --     46.3054                 1.4408                 8.4549

                     43                     44                     45
                      A                      A                      A
 Frequencies --   1331.5113              1380.4265              1446.1338
 Red. masses --      1.6166                 1.3371                 1.5910
 Frc consts  --      1.6886                 1.5012                 1.9603
 IR Inten    --      4.1383                13.6311                20.9371

                     46                     47                     48
                      A                      A                      A
 Frequencies --   1466.3598              1487.5957              1515.2122
 Red. masses --      2.0560                 1.7067                 2.2119
 Frc consts  --      2.6046                 2.2253                 2.9920
 IR Inten    --     67.0365                11.0892                70.2633

                     49                     50                     51
                      A                      A                      A
 Frequencies --   1532.4185              1619.2822              1625.8406
 Red. masses --      2.1113                 5.6645                 4.8304
 Frc consts  --      2.9211                 8.7511                 7.5229
 IR Inten    --      3.2117                33.3730                21.8153

                     52                     53                     54
                      A                      A                      A
 Frequencies --   1645.4889              1648.1104              1754.7070
 Red. masses --      5.3046                 5.4397                11.1720
 Frc consts  --      8.4624                 8.7055                20.2671
 IR Inten    --    124.6652                44.1406               273.6929

                     55                     56                     57
                      A                      A                      A
 Frequencies --   3101.0488              3161.2745              3171.1429
 Red. masses --      1.0869                 1.0896                 1.0893
 Frc consts  --      6.1580                 6.4158                 6.4543
 IR Inten    --     40.0277                26.6200                26.1203

                     58                     59                     60
                      A                      A                      A
 Frequencies --   3179.2931              3194.5836              3213.2253
 Red. masses --      1.0898                 1.0883                 1.0936
 Frc consts  --      6.4901                 6.5436                 6.6524
 IR Inten    --     17.7391                 9.6650                13.8067

                     61                     62                     63
                      A                      A                      A
 Frequencies --   3217.2402              3222.8892              3267.0891
 Red. masses --      1.0926                 1.0972                 1.0921
 Frc consts  --      6.6634                 6.7148                 6.8683
 IR Inten    --     18.8211                 8.3007                 2.6415

 - Thermochemistry -
 -------------------
 Temperature   298.150 Kelvin.  Pressure   1.00000 Atm.
 Atom     1 has atomic number  6 and mass  12.00000

 Molecular mass:   183.07965 amu.
 Principal axes and moments of inertia in atomic units:
                           1         2         3
     Eigenvalues --  1172.732704172.146514697.81073
           X            0.99994   0.01033  -0.00377
           Y           -0.01027   0.99980   0.01707
           Z            0.00395  -0.01703   0.99985
 This molecule is an asymmetric top.
 Rotational symmetry number  1.
 Warning -- assumption of classical behavior for rotation
           may cause significant error
 Rotational temperatures (Kelvin)      0.07386     0.02076     0.01844
 Rotational constants (GHZ):           1.53892     0.43257     0.38417
 Zero-point vibrational energy     473579.2 (Joules/Mol)
                                  113.18814 (Kcal/Mol)
 Warning -- explicit consideration of  14 degrees of freedom as
           vibrations may cause significant error
 Vibrational temperatures:      9.41    57.89    96.73   181.98   273.39
          (Kelvin)            345.29   428.31   572.05   593.49   629.88
                              657.40   774.34   795.97   877.30   921.32
                              930.26  1016.06  1038.43  1092.47  1162.99
                             1172.80  1185.84  1250.10  1285.09  1360.26
                             1395.27  1401.67  1435.07  1437.39  1443.82
                             1448.27  1502.13  1547.59  1550.87  1621.61
                             1672.45  1700.97  1754.50  1804.94  1826.19
                             1882.54  1899.90  1915.75  1986.13  2080.66
                             2109.76  2140.32  2180.05  2204.81  2329.79
                             2339.22  2367.49  2371.26  2524.63  4461.72
                             4548.37  4562.57  4574.29  4596.29  4623.11
                             4628.89  4637.02  4700.61

 Zero-point correction=                           0.180377 (Hartree/Particle)
 Thermal correction to Energy=                    0.191118
 Thermal correction to Enthalpy=                  0.192062
 Thermal correction to Gibbs Free Energy=         0.140423
 Sum of electronic and zero-point Energies=           -588.685825
 Sum of electronic and thermal Energies=              -588.675084
 Sum of electronic and thermal Enthalpies=            -588.674140
 Sum of electronic and thermal Free Energies=         -588.725779

                     E (Thermal)             CV                S
                      KCal/Mol        Cal/Mol-Kelvin    Cal/Mol-Kelvin
 Total                  119.928             41.297            108.682
 Electronic               0.000              0.000              0.000
 Translational            0.889              2.981             41.521
 Rotational               0.889              2.981             31.508
 Vibrational            118.151             35.335             35.653
 Vibration     1          0.593              1.987              8.854
 Vibration     2          0.594              1.981              5.247
 Vibration     3          0.598              1.970              4.233
 Vibration     4          0.611              1.927              2.999
 Vibration     5          0.633              1.854              2.228
 Vibration     6          0.657              1.779              1.803
 Vibration     7          0.691              1.678              1.430
 Vibration     8          0.764              1.475              0.972
 Vibration     9          0.776              1.443              0.918
 Vibration    10          0.798              1.388              0.834
 Vibration    11          0.815              1.346              0.775
 Vibration    12          0.893              1.166              0.569
 Vibration    13          0.909              1.133              0.538
 Vibration    14          0.969              1.011              0.433

 1\1\GINC-NODE318\Freq\RB3LYP\6-31G(d)\C11H9N3\VSC10255\17-Dec-2020\0\\
 #N Geom=AllCheck Guess=TCheck SCRF=Check GenChk RB3LYP/6-31G(d) Freq\\
 CID_676864_JID_4403_neutraal\\0,1\C,1.3309712404,0.2499668681,0.133683
 9302\C,0.8680544711,0.5615840995,1.4148237083\C,-0.0358401118,-0.31475
 22135,2.0101991855\N,-0.4790411631,-1.4423618087,1.4370883284\C,-0.020
 3447643,-1.7305874113,0.2112206167\C,0.8785102329,-0.9062787558,-0.487
 8279578\N,-0.5448407403,-2.86513655,-0.4238718463\C,-0.0391697786,-4.0
 319284777,-0.34184952\C,1.151048532,-4.5282067125,0.3768390463\C,1.629

 Normal termination of Gaussian 16 at Thu Dec 17 20:42:23 2020.

 ----------------------------------------------------------------------
 # B3LYP/6-311++G(d,p) empiricaldispersion=gd3bj scf=xqc pop=npa geom=c
 heck
 ----------------------------------------------------------------------

 ------------------------------------
 CID_676864_JID_4403_Energie_neutraal
 ------------------------------------
 Structure from the checkpoint file:  "JID_4403.chk"
 Charge =  0 Multiplicity = 1

 SCF Done:  E(RB3LYP) =  -589.015617974     A.U. after   15 cycles
 Normal termination of Gaussian 16 at Thu Dec 17 20:44:23 2020.

 ----------------------------------------------------------------------
 # B3LYP/6-311++G(d,p) empiricaldispersion=gd3bj scf=xqc pop=npa geom=c
 heck
 ----------------------------------------------------------------------

 ----------------------------------
 CID_676864_JID_4403_Energie_kation
 ----------------------------------
 Structure from the checkpoint file:  "JID_4403.chk"
 Charge =  1 Multiplicity = 2

 SCF Done:  E(UB3LYP) =  -588.711371596     A.U. after   23 cycles
 Normal termination of Gaussian 16 at Thu Dec 17 20:48:27 2020.
 Gaussian 16:  ES64L-G16RevA.03 25-Dec-2016

 ---------------------------------
 CID_676864_JID_4403_Energie_anion
 ---------------------------------
 Structure from the checkpoint file:  "JID_4403.chk"
 Charge = -1 Multiplicity = 2

                         Standard orientation:
 ---------------------------------------------------------------------
 Center     Atomic      Atomic             Coordinates (Angstroms)
 Number     Number       Type             X           Y           Z
 ---------------------------------------------------------------------
      1          6           0       -2.907021   -0.577082    1.295392
      2          6           0       -3.369356   -1.177799    0.121466
      3          6           0       -2.867305   -0.708690   -1.089874
      4          7           0       -1.961031    0.272710   -1.198990
      5          6           0       -1.522474    0.833848   -0.063640
      6          6           0       -1.976802    0.450208    1.210134
      7          7           0       -0.637610    1.915308   -0.178098
      8          6           0        0.631673    1.804906   -0.201880
      9          6           0        1.506790    0.618596   -0.122727
     10          6           0        2.866114    0.850155    0.148742
     11          7           0        3.789382   -0.103921    0.279498
     12          6           0        3.377960   -1.368915    0.126237
     13          6           0        2.058314   -1.720748   -0.164067
     14          6           0        1.105170   -0.716969   -0.292183
     15          1           0       -3.269184   -0.905213    2.265825
     16          1           0       -4.099365   -1.980134    0.144005
     17          1           0       -3.202222   -1.142908   -2.030421
     18          1           0       -1.595492    0.953102    2.092236
     19          1           0        1.182652    2.749162   -0.261302
     20          1           0        3.218707    1.874006    0.271791
     21          1           0        4.142602   -2.136026    0.232881
     22          1           0        1.786381   -2.763490   -0.294234
     23          1           0        0.082358   -0.962246   -0.543253
 ---------------------------------------------------------------------

 SCF Done:  E(UB3LYP) =  -589.034338176     A.U. after   24 cycles

 The electronic state is 2-A.
 Alpha  occ. eigenvalues --  -14.17946 -14.15338 -14.13736 -10.10911 -10.09108
 Alpha  occ. eigenvalues --  -10.07718 -10.06266 -10.05661 -10.05236 -10.04835
 Alpha  occ. eigenvalues --  -10.03746 -10.03042 -10.02284 -10.02057  -0.83321
 Alpha  occ. eigenvalues --   -0.78839  -0.76087  -0.68741  -0.65293  -0.63449
 Alpha  occ. eigenvalues --   -0.61167  -0.52941  -0.51508  -0.48816  -0.47722
 Alpha  occ. eigenvalues --   -0.43935  -0.39439  -0.37361  -0.36946  -0.34711
 Alpha  occ. eigenvalues --   -0.33632  -0.32463  -0.30060  -0.29531  -0.28927
 Alpha  occ. eigenvalues --   -0.27112  -0.25939  -0.25309  -0.24252  -0.22100
 Alpha  occ. eigenvalues --   -0.19233  -0.17569  -0.16373  -0.14094  -0.13643
 Alpha  occ. eigenvalues --   -0.11443  -0.11158  -0.08720   0.04221
 Alpha virt. eigenvalues --    0.07564   0.08389   0.09290   0.09813   0.10365
 Alpha virt. eigenvalues --    0.10878   0.11201   0.11991   0.12180   0.12808
 Alpha virt. eigenvalues --    0.13883   0.15120   0.15386   0.15935   0.16704

  Beta  occ. eigenvalues --  -14.17920 -14.15323 -14.13179 -10.10934 -10.09090
  Beta  occ. eigenvalues --  -10.07712 -10.06271 -10.05628 -10.05161 -10.04585
  Beta  occ. eigenvalues --  -10.03339 -10.03166 -10.02181 -10.01723  -0.83126
  Beta  occ. eigenvalues --   -0.78530  -0.75327  -0.68704  -0.64862  -0.63230
  Beta  occ. eigenvalues --   -0.60745  -0.52524  -0.51410  -0.48193  -0.47568
  Beta  occ. eigenvalues --   -0.43635  -0.39248  -0.37189  -0.36802  -0.34427
  Beta  occ. eigenvalues --   -0.33324  -0.32311  -0.29955  -0.29381  -0.28834
  Beta  occ. eigenvalues --   -0.26970  -0.25762  -0.24306  -0.24062  -0.21879
  Beta  occ. eigenvalues --   -0.17497  -0.16988  -0.16146  -0.13936  -0.12663
  Beta  occ. eigenvalues --   -0.11315  -0.09201  -0.08271
  Beta virt. eigenvalues --    0.07538   0.08454   0.09264   0.09771   0.10312
  Beta virt. eigenvalues --    0.10714   0.11120   0.11242   0.12140   0.12378
  Beta virt. eigenvalues --    0.12825   0.13877   0.15115   0.15437   0.16343

 Mulliken charges and spin densities:
               1          2
     1  C   -0.239850   0.009065
     2  C   -0.227247  -0.003865
     3  C   -0.158301   0.012675
     4  N   -0.090691  -0.005635
     5  C   -0.510593  -0.001197
     6  C    0.257720   0.008616
     7  N    0.085112   0.251849
     8  C   -1.176194   0.187384
     9  C    0.888842   0.048246
    10  C   -0.728156   0.052102
    11  N   -0.078605  -0.010592
    12  C   -0.430140   0.308129
    13  C   -0.105120  -0.081563
    14  C    0.326049   0.276233
    15  H    0.137973   0.005063
    16  H    0.119634   0.000594
    17  H    0.153623  -0.000267
    18  H    0.170284  -0.002935
    19  H    0.104545  -0.014069
    20  H    0.135009   0.000274
    21  H    0.106047  -0.025731
    22  H    0.128306   0.008769
    23  H    0.131754  -0.023145
 Sum of Mulliken charges =  -1.00000   1.00000

 Dipole moment (field-independent basis, Debye):
    X=             -5.0693    Y=             -2.7820    Z=              1.6113  Tot=              6.0028
 Quadrupole moment (field-independent basis, Debye-Ang):
   XX=           -125.5217   YY=            -94.8456   ZZ=            -90.7621
   XY=              7.9723   XZ=             -4.8868   YZ=              2.8731

 Summary of Natural Population Analysis:

                                       Natural Population
                Natural  -----------------------------------------------
    Atom  No    Charge         Core      Valence    Rydberg      Total
 -----------------------------------------------------------------------
      C    1   -0.08721      0.99958     2.07858    0.00905     3.08721
      C    2   -0.15861      0.99957     2.14943    0.00962     3.15861
      C    3    0.02859      0.99960     1.95793    0.01388     2.97141
      N    4   -0.24950      0.99967     2.73637    0.01345     3.74950
      C    5    0.19591      0.99951     1.78869    0.01589     2.80409
      C    6   -0.12648      0.99950     2.11806    0.00892     3.12648
      N    7   -0.16099      0.99960     2.64740    0.01399     3.66099
      C    8    0.11204      0.99958     1.87446    0.01392     2.88796
      C    9   -0.06550      0.99949     2.05831    0.00770     3.06550
      C   10    0.05181      0.99957     1.93388    0.01475     2.94819
      N   11   -0.25438      0.99972     2.74127    0.01339     3.75438
      C   12    0.09425      0.99961     1.89031    0.01584     2.90575
      C   13   -0.15797      0.99957     2.14968    0.00872     3.15797
      C   14   -0.01141      0.99953     2.00398    0.00790     3.01141
      H   15    0.09442      0.00000     0.40453    0.00105     0.40558
      H   16    0.09626      0.00000     0.40265    0.00109     0.40374
      H   17    0.08357      0.00000     0.41514    0.00129     0.41643
      H   18    0.10451      0.00000     0.39405    0.00144     0.39549
      H   19    0.07001      0.00000     0.42803    0.00196     0.42999
      H   20    0.07773      0.00000     0.42048    0.00178     0.42227
      H   21    0.07258      0.00000     0.42605    0.00137     0.42742
      H   22    0.09245      0.00000     0.40635    0.00120     0.40755
      H   23    0.09792      0.00000     0.39983    0.00225     0.40208
 =======================================================================
   * Total *    0.00000     13.99407    33.82546    0.18047    48.00000

 Normal termination of Gaussian 16 at Thu Dec 17 20:52:41 2020.
