 Gaussian 16, Revision A.03,

 -----------------------------------------------------------
 # opt freq B3LYP/6-31G(d) empiricaldispersion=gd3bj scf=xqc
 -----------------------------------------------------------

 -------------------------------
 CID_102639786_JID_4658_neutraal
 -------------------------------
 Symbolic Z-matrix:
 Charge =  0 Multiplicity = 1

 SCF Done:  E(RB3LYP) =  -992.317640195     A.U. after   15 cycles
 SCF Done:  E(RB3LYP) =  -992.321980152     A.U. after   12 cycles
 SCF Done:  E(RB3LYP) =  -992.321832679     A.U. after   13 cycles
 SCF Done:  E(RB3LYP) =  -992.322585224     A.U. after   12 cycles
 SCF Done:  E(RB3LYP) =  -992.323204547     A.U. after   12 cycles
 SCF Done:  E(RB3LYP) =  -992.323369257     A.U. after   12 cycles
 SCF Done:  E(RB3LYP) =  -992.323422760     A.U. after   12 cycles
 SCF Done:  E(RB3LYP) =  -992.323438279     A.U. after   11 cycles
 SCF Done:  E(RB3LYP) =  -992.323447322     A.U. after   10 cycles
 SCF Done:  E(RB3LYP) =  -992.323449633     A.U. after    9 cycles
 SCF Done:  E(RB3LYP) =  -992.323452704     A.U. after    7 cycles
 SCF Done:  E(RB3LYP) =  -992.323453337     A.U. after    8 cycles
 SCF Done:  E(RB3LYP) =  -992.323453593     A.U. after    8 cycles
 SCF Done:  E(RB3LYP) =  -992.323453753     A.U. after    8 cycles
 SCF Done:  E(RB3LYP) =  -992.323453773     A.U. after    7 cycles
 Optimization completed.
    -- Stationary point found.
 Normal termination of Gaussian 16 at Thu Dec 10 10:22:24 2020.

 --------------------------------------------------------------------
 #N Geom=AllCheck Guess=TCheck SCRF=Check GenChk RB3LYP/6-31G(d) Freq
 --------------------------------------------------------------------

 Structure from the checkpoint file:  "JID_4658.chk"
 -------------------------------
 CID_102639786_JID_4658_neutraal
 -------------------------------
 Charge =  0 Multiplicity = 1

 SCF Done:  E(RB3LYP) =  -992.323453773     A.U. after    1 cycles

  Exact polarizability: 167.986  -3.247 122.413 -16.969  -7.431  93.678
 Approx polarizability: 220.730  -2.450 220.875 -28.896 -25.184 153.062

                      1                      2                      3
                      A                      A                      A
 Frequencies --     29.8183                44.5485                54.7026
 Red. masses --      5.1330                 5.5835                 3.2263
 Frc consts  --      0.0027                 0.0065                 0.0057
 IR Inten    --      0.4498                 1.0865                 0.4008

                      4                      5                      6
                      A                      A                      A
 Frequencies --     74.0799                83.4691                85.8287
 Red. masses --      1.5498                 2.1221                 3.9839
 Frc consts  --      0.0050                 0.0087                 0.0173
 IR Inten    --      0.3231                 0.2257                 1.2420

                      7                      8                      9
                      A                      A                      A
 Frequencies --    161.4768               192.5677               208.3285
 Red. masses --      5.8252                 3.2786                 4.2926
 Frc consts  --      0.0895                 0.0716                 0.1098
 IR Inten    --      0.5075                 0.3026                 0.9793

                     10                     11                     12
                      A                      A                      A
 Frequencies --    245.8086               280.5457               291.4236
 Red. masses --      2.6303                 1.0982                 2.9256
 Frc consts  --      0.0936                 0.0509                 0.1464
 IR Inten    --      0.3256                 0.7421                 2.2110

                     13                     14                     15
                      A                      A                      A
 Frequencies --    323.9814               332.5239               366.3758
 Red. masses --      3.1656                 3.0979                 3.3554
 Frc consts  --      0.1958                 0.2018                 0.2654
 IR Inten    --      0.9075                 3.5271                 1.9667

                     16                     17                     18
                      A                      A                      A
 Frequencies --    383.5413               458.6775               493.3669
 Red. masses --      2.2255                 3.0797                 4.3813
 Frc consts  --      0.1929                 0.3817                 0.6283
 IR Inten    --      1.1797                 3.3519                 2.1626

                     19                     20                     21
                      A                      A                      A
 Frequencies --    522.6009               569.0468               587.0007
 Red. masses --      3.8723                 4.1280                 4.3683
 Frc consts  --      0.6231                 0.7876                 0.8868
 IR Inten    --      4.2668                13.0490                 7.1333

                     22                     23                     24
                      A                      A                      A
 Frequencies --    618.3505               634.0881               644.4814
 Red. masses --      4.2517                 4.6436                 1.5919
 Frc consts  --      0.9578                 1.1000                 0.3896
 IR Inten    --      7.2369                24.4527                44.8907

                     25                     26                     27
                      A                      A                      A
 Frequencies --    673.7189               723.6013               735.4048
 Red. masses --      1.9935                 3.7130                 3.6030
 Frc consts  --      0.5331                 1.1455                 1.1481
 IR Inten    --     67.0894                 0.5769                16.4527

                     28                     29                     30
                      A                      A                      A
 Frequencies --    777.7360               787.9758               873.4049
 Red. masses --      5.7405                 4.3664                 1.9544
 Frc consts  --      2.0458                 1.5973                 0.8784
 IR Inten    --      2.8768                27.2959                 4.1125

                     31                     32                     33
                      A                      A                      A
 Frequencies --    889.6484               943.2426               957.8968
 Red. masses --      1.3994                 2.1483                 1.4304
 Frc consts  --      0.6526                 1.1261                 0.7733
 IR Inten    --     12.2789                 6.5309                25.0232

                     34                     35                     36
                      A                      A                      A
 Frequencies --    963.7815               993.8914              1031.0454
 Red. masses --      1.7573                 1.7998                 1.1109
 Frc consts  --      0.9617                 1.0475                 0.6958
 IR Inten    --      9.4037                20.5389                12.5422

                     37                     38                     39
                      A                      A                      A
 Frequencies --   1062.3081              1064.4088              1115.0271
 Red. masses --      1.3847                 1.4059                 2.2325
 Frc consts  --      0.9207                 0.9385                 1.6354
 IR Inten    --      7.2727                 0.3881                 1.4843

                     40                     41                     42
                      A                      A                      A
 Frequencies --   1150.8906              1176.0900              1186.0713
 Red. masses --      3.5654                 2.9375                 2.3664
 Frc consts  --      2.7825                 2.3939                 1.9614
 IR Inten    --    151.7391                48.8226                46.3418

                     43                     44                     45
                      A                      A                      A
 Frequencies --   1206.3015              1219.9802              1240.9292
 Red. masses --      2.8339                 2.8364                 2.2405
 Frc consts  --      2.4296                 2.4873                 2.0328
 IR Inten    --     41.6120                 4.6625                65.5885

                     46                     47                     48
                      A                      A                      A
 Frequencies --   1290.1347              1342.5982              1355.5891
 Red. masses --      1.6972                 1.3316                 1.6623
 Frc consts  --      1.6644                 1.4142                 1.7998
 IR Inten    --      1.2064                 2.5498                 3.7523

                     49                     50                     51
                      A                      A                      A
 Frequencies --   1359.7599              1400.0213              1433.4172
 Red. masses --      1.4270                 2.0991                 1.2614
 Frc consts  --      1.5545                 2.4241                 1.5270
 IR Inten    --      2.6863                29.0773                 0.2456

                     52                     53                     54
                      A                      A                      A
 Frequencies --   1443.8206              1467.6625              1501.7579
 Red. masses --      1.2540                 1.2037                 1.0925
 Frc consts  --      1.5401                 1.5276                 1.4517
 IR Inten    --      7.9363                 5.0426                 8.0828

                     55                     56                     57
                      A                      A                      A
 Frequencies --   1504.3234              1507.9704              1522.6711
 Red. masses --      1.2425                 1.0433                 1.0487
 Frc consts  --      1.6567                 1.3978                 1.4326
 IR Inten    --     16.9210                 8.6709                 6.2475

                     58                     59                     60
                      A                      A                      A
 Frequencies --   1533.3735              1546.3654              1598.1062
 Red. masses --      1.0676                 4.1378                 5.6841
 Frc consts  --      1.4790                 5.8297                 8.5531
 IR Inten    --     20.3445                 9.6886                20.7273

                     61                     62                     63
                      A                      A                      A
 Frequencies --   1721.9577              1820.8362              3054.8615
 Red. masses --      4.4352                 9.6883                 1.0372
 Frc consts  --      7.7484                18.9252                 5.7027
 IR Inten    --      9.5534               195.2700                22.4901

                     64                     65                     66
                      A                      A                      A
 Frequencies --   3063.8669              3075.9139              3109.0859
 Red. masses --      1.0410                 1.0635                 1.1016
 Frc consts  --      5.7577                 5.9285                 6.2740
 IR Inten    --     14.1352                15.8881                11.9931

                     67                     68                     69
                      A                      A                      A
 Frequencies --   3132.9486              3137.7725              3148.1626
 Red. masses --      1.0998                 1.0968                 1.0840
 Frc consts  --      6.3601                 6.3623                 6.3300
 IR Inten    --      2.5704                14.2652                13.3410

                     70                     71                     72
                      A                      A                      A
 Frequencies --   3157.7064              3161.9077              3174.1447
 Red. masses --      1.1007                 1.1033                 1.0658
 Frc consts  --      6.4661                 6.4989                 6.3267
 IR Inten    --      5.0549                18.8957                 7.6129

                     73                     74                     75
                      A                      A                      A
 Frequencies --   3244.9754              3252.8401              3680.3721
 Red. masses --      1.0937                 1.1165                 1.0639
 Frc consts  --      6.7853                 6.9602                 8.4906
 IR Inten    --      2.6196                 9.5854                53.1412

 - Thermochemistry -
 -------------------
 Temperature   298.150 Kelvin.  Pressure   1.00000 Atm.
 Atom     1 has atomic number  6 and mass  12.00000

 Molecular mass:   211.06670 amu.
 Principal axes and moments of inertia in atomic units:
                           1         2         3
     Eigenvalues --  1388.642415036.877145438.56922
           X            0.99987  -0.01312  -0.00886
           Y            0.01301   0.99984  -0.01258
           Z            0.00903   0.01246   0.99988
 This molecule is an asymmetric top.
 Rotational symmetry number  1.
 Warning -- assumption of classical behavior for rotation
           may cause significant error
 Rotational temperatures (Kelvin)      0.06237     0.01720     0.01593
 Rotational constants (GHZ):           1.29964     0.35831     0.33184
 Zero-point vibrational energy     569451.8 (Joules/Mol)
                                  136.10225 (Kcal/Mol)
 Warning -- explicit consideration of  22 degrees of freedom as
           vibrations may cause significant error
 Vibrational temperatures:     42.90    64.10    78.70   106.58   120.09
          (Kelvin)            123.49   232.33   277.06   299.74   353.66
                              403.64   419.29   466.14   478.43   527.13
                              551.83   659.93   709.84   751.91   818.73
                              844.56   889.67   912.31   927.26   969.33
                             1041.10  1058.08  1118.99  1133.72  1256.63
                             1280.01  1357.12  1378.20  1386.67  1429.99
                             1483.44  1528.42  1531.45  1604.28  1655.87
                             1692.13  1706.49  1735.60  1755.28  1785.42
                             1856.22  1931.70  1950.39  1956.39  2014.32
                             2062.37  2077.34  2111.64  2160.69  2164.39
                             2169.63  2190.78  2206.18  2224.87  2299.32
                             2477.51  2619.78  4395.26  4408.22  4425.55
                             4473.28  4507.61  4514.55  4529.50  4543.24
                             4549.28  4566.89  4668.80  4680.11  5295.23

 Zero-point correction=                           0.216893 (Hartree/Particle)
 Thermal correction to Energy=                    0.231703
 Thermal correction to Enthalpy=                  0.232648
 Thermal correction to Gibbs Free Energy=         0.173565
 Sum of electronic and zero-point Energies=           -992.106561
 Sum of electronic and thermal Energies=              -992.091750
 Sum of electronic and thermal Enthalpies=            -992.090806
 Sum of electronic and thermal Free Energies=         -992.149888

                     E (Thermal)             CV                S
                      KCal/Mol        Cal/Mol-Kelvin    Cal/Mol-Kelvin
 Total                  145.396             54.093            124.349
 Electronic               0.000              0.000              0.000
 Translational            0.889              2.981             41.945
 Rotational               0.889              2.981             32.009
 Vibrational            143.619             48.131             50.395
 Vibration     1          0.594              1.984              5.841
 Vibration     2          0.595              1.980              5.046
 Vibration     3          0.596              1.976              4.640
 Vibration     4          0.599              1.966              4.042
 Vibration     5          0.600              1.961              3.808
 Vibration     6          0.601              1.959              3.753
 Vibration     7          0.622              1.890              2.532
 Vibration     8          0.635              1.850              2.203
 Vibration     9          0.642              1.828              2.058
 Vibration    10          0.660              1.770              1.760
 Vibration    11          0.680              1.710              1.530
 Vibration    12          0.687              1.690              1.466
 Vibration    13          0.709              1.627              1.290
 Vibration    14          0.714              1.611              1.248
 Vibration    15          0.739              1.541              1.095
 Vibration    16          0.753              1.505              1.025
 Vibration    17          0.817              1.342              0.770
 Vibration    18          0.849              1.265              0.675
 Vibration    19          0.878              1.200              0.604
 Vibration    20          0.925              1.098              0.506
 Vibration    21          0.944              1.060              0.473
 Vibration    22          0.978              0.993              0.419

 Optimization completed.
    -- Stationary point found.
 Normal termination of Gaussian 16 at Thu Dec 10 10:29:48 2020.

 ----------------------------------------------------------------------
 # B3LYP/6-311++G(d,p) empiricaldispersion=gd3bj scf=xqc pop=npa geom=c
 heck
 ----------------------------------------------------------------------

 ---------------------------------------
 CID_102639786_JID_4658_Energie_neutraal
 ---------------------------------------
 Structure from the checkpoint file:  "JID_4658.chk"
 Charge =  0 Multiplicity = 1

 SCF Done:  E(RB3LYP) =  -992.525028956     A.U. after   16 cycles
 Normal termination of Gaussian 16 at Thu Dec 10 10:32:51 2020.

 ----------------------------------------------------------------------
 # B3LYP/6-311++G(d,p) empiricaldispersion=gd3bj scf=xqc pop=npa geom=c
 heck
 ----------------------------------------------------------------------

 -------------------------------------
 CID_102639786_JID_4658_Energie_kation
 -------------------------------------
 Structure from the checkpoint file:  "JID_4658.chk"
 Charge =  1 Multiplicity = 2

 SCF Done:  E(UB3LYP) =  -992.219070028     A.U. after   25 cycles
 Normal termination of Gaussian 16 at Thu Dec 10 10:39:36 2020.
 Gaussian 16:  ES64L-G16RevA.03 25-Dec-2016

 ----------------------------------------------------------------------
 # B3LYP/6-311++G(d,p) empiricaldispersion=gd3bj scf=xqc pop=npa geom=c
 heck
 ----------------------------------------------------------------------

 ------------------------------------
 CID_102639786_JID_4658_Energie_anion
 ------------------------------------
 Structure from the checkpoint file:  "JID_4658.chk"
 Charge = -1 Multiplicity = 2

                         Standard orientation:
 ---------------------------------------------------------------------
 Center     Atomic      Atomic             Coordinates (Angstroms)
 Number     Number       Type             X           Y           Z
 ---------------------------------------------------------------------
      1          6           0       -4.542949    0.119237    0.465539
      2          6           0       -3.125536    0.213651   -0.005218
      3          7           0       -2.561496    1.305917   -0.432898
      4          6           0       -1.251916    1.088312   -0.801998
      5          6           0       -0.776022   -0.186675   -0.664180
      6         16           0       -2.058644   -1.192095   -0.025920
      7          6           0        0.598226   -0.710193   -0.962206
      8          6           0        1.639197   -0.496180    0.181714
      9          6           0        1.154823   -1.111219    1.505460
     10          6           0        2.936497   -1.176512   -0.241337
     11          6           0        3.963995   -0.618292   -0.878939
     12          6           0        1.894989    1.003341    0.312570
     13          8           0        1.900410    1.789282   -0.612954
     14          8           0        2.166977    1.389706    1.578189
     15          1           0       -5.121501   -0.589492   -0.137990
     16          1           0       -4.600342   -0.208933    1.509744
     17          1           0       -4.999712    1.107921    0.381626
     18          1           0       -0.660649    1.913586   -1.180025
     19          1           0        0.559482   -1.782033   -1.182901
     20          1           0        0.984903   -0.210124   -1.853306
     21          1           0        0.915420   -2.169605    1.352288
     22          1           0        1.927612   -1.038820    2.273990
     23          1           0        0.256899   -0.609273    1.872101
     24          1           0        2.966674   -2.240009   -0.003138
     25          1           0        4.833226   -1.207239   -1.156770
     26          1           0        3.976095    0.432965   -1.151232
     27          1           0        2.343747    2.348424    1.530304
 ---------------------------------------------------------------------

 SCF Done:  E(UB3LYP) =  -992.511297468     A.U. after   33 cycles
 SCF Done:  E(UB3LYP) =  -992.511297468     a.u. after    1 cycles

 The electronic state is 2-A.
 Alpha  occ. eigenvalues --  -88.75231 -19.06253 -19.00914 -14.18640 -10.20010
 Alpha  occ. eigenvalues --  -10.10712 -10.10351 -10.08178 -10.08054 -10.07682
 Alpha  occ. eigenvalues --  -10.07054 -10.06806 -10.06732 -10.06205  -7.83897
 Alpha  occ. eigenvalues --   -5.80160  -5.79833  -5.79509  -1.00537  -0.91473
 Alpha  occ. eigenvalues --   -0.83699  -0.74144  -0.68429  -0.65765  -0.64533
 Alpha  occ. eigenvalues --   -0.60544  -0.56528  -0.55560  -0.50757  -0.45849
 Alpha  occ. eigenvalues --   -0.44420  -0.42107  -0.38877  -0.38567  -0.38147
 Alpha  occ. eigenvalues --   -0.36234  -0.34438  -0.32973  -0.32804  -0.31833
 Alpha  occ. eigenvalues --   -0.31346  -0.30243  -0.28660  -0.28490  -0.27595
 Alpha  occ. eigenvalues --   -0.27183  -0.26400  -0.25020  -0.23952  -0.23075
 Alpha  occ. eigenvalues --   -0.21822  -0.18036  -0.17178  -0.15931  -0.15265
 Alpha  occ. eigenvalues --   -0.11868   0.05145
 Alpha virt. eigenvalues --    0.06896   0.07146   0.07810   0.08515   0.08980
 Alpha virt. eigenvalues --    0.09558   0.10324   0.10741   0.11232   0.11411
 Alpha virt. eigenvalues --    0.12081   0.12241   0.12361   0.13535   0.13946

  Beta  occ. eigenvalues --  -88.75214 -19.06198 -19.00893 -14.18643 -10.19994
  Beta  occ. eigenvalues --  -10.10485 -10.10333 -10.08101 -10.08059 -10.07500
  Beta  occ. eigenvalues --  -10.07036 -10.06803 -10.06693 -10.06200  -7.83881
  Beta  occ. eigenvalues --   -5.80157  -5.79829  -5.79445  -1.00461  -0.91406
  Beta  occ. eigenvalues --   -0.83541  -0.74029  -0.68223  -0.65567  -0.64425
  Beta  occ. eigenvalues --   -0.60472  -0.56454  -0.55467  -0.50589  -0.45706
  Beta  occ. eigenvalues --   -0.44211  -0.41917  -0.38808  -0.38518  -0.38065
  Beta  occ. eigenvalues --   -0.36136  -0.34346  -0.32869  -0.32492  -0.31731
  Beta  occ. eigenvalues --   -0.31275  -0.30185  -0.28610  -0.28381  -0.27512
  Beta  occ. eigenvalues --   -0.27048  -0.26207  -0.24880  -0.23836  -0.22970
  Beta  occ. eigenvalues --   -0.21753  -0.17861  -0.16858  -0.15560  -0.15211
  Beta  occ. eigenvalues --   -0.11033
  Beta virt. eigenvalues --    0.07136   0.07699   0.08348   0.08847   0.09046
  Beta virt. eigenvalues --    0.09105   0.09759   0.10479   0.10810   0.11631
  Beta virt. eigenvalues --    0.11846   0.12099   0.12256   0.12388   0.13618

 Mulliken charges and spin densities:
               1          2
     1  C    0.913858  -1.262514
     2  C   -0.773389   0.848325
     3  N   -0.018282   0.015658
     4  C   -0.665052   0.379745
     5  C    1.184062   0.036680
     6  S    0.160660  -0.294186
     7  C   -1.841531  -0.080738
     8  C    1.948347  -0.159721
     9  C   -0.283125  -0.530680
    10  C   -0.556878   0.261687
    11  C   -0.367143   0.002734
    12  C   -0.554298  -0.314812
    13  O   -0.271125   0.033928
    14  O   -0.125961   0.034223
    15  H    0.115363   0.028500
    16  H   -0.429555   0.608969
    17  H    0.038006   0.110748
    18  H    0.187080   0.004131
    19  H    0.172632   0.002825
    20  H    0.232171  -0.000066
    21  H    0.116635   0.013537
    22  H    0.039056   0.141305
    23  H    0.028765   0.150943
    24  H    0.153477   0.004015
    25  H    0.102362   0.014300
    26  H    0.116177   0.048958
    27  H   -0.622311   0.901506
 Sum of Mulliken charges =  -1.00000   1.00000

 Dipole moment (field-independent basis, Debye):
    X=              1.2579    Y=             -5.7051    Z=             -4.2566  Tot=              7.2284
 Quadrupole moment (field-independent basis, Debye-Ang):
   XX=           -152.7759   YY=           -121.3291   ZZ=           -122.5984
   XY=             -9.8814   XZ=              1.9472   YZ=             -4.2447

 Summary of Natural Population Analysis:

                                       Natural Population
                Natural  -----------------------------------------------
    Atom  No    Charge         Core      Valence    Rydberg      Total
 -----------------------------------------------------------------------
      C    1   -0.30831      0.99961     2.30232    0.00638     3.30831
      C    2    0.07096      0.99964     1.91194    0.01746     2.92904
      N    3   -0.25102      0.99965     2.74047    0.01090     3.75102
      C    4   -0.02144      0.99944     2.00729    0.01471     3.02144
      C    5   -0.09030      0.99949     2.07928    0.01153     3.09030
      S    6    0.17169      4.99939     2.81075    0.01817     7.82831
      C    7   -0.19660      0.99956     2.18654    0.01050     3.19660
      C    8   -0.09206      0.99949     2.07960    0.01297     3.09206
      C    9   -0.28470      0.99964     2.27727    0.00779     3.28470
      C   10   -0.06748      0.99954     2.05668    0.01126     3.06748
      C   11   -0.18715      0.99955     2.18080    0.00680     3.18715
      C   12    0.42285      0.99963     1.54885    0.02867     2.57715
      O   13   -0.31516      0.99987     3.30938    0.00591     4.31516
      O   14   -0.34071      0.99987     3.33329    0.00755     4.34071
      H   15    0.10145      0.00000     0.39775    0.00081     0.39855
      H   16    0.11096      0.00000     0.38553    0.00351     0.38904
      H   17    0.11053      0.00000     0.38814    0.00132     0.38947
      H   18    0.10482      0.00000     0.39404    0.00115     0.39518
      H   19    0.10219      0.00000     0.39687    0.00094     0.39781
      H   20    0.11796      0.00000     0.38105    0.00099     0.38204
      H   21    0.09582      0.00000     0.40341    0.00076     0.40418
      H   22    0.10720      0.00000     0.39173    0.00107     0.39280
      H   23    0.11289      0.00000     0.38616    0.00095     0.38711
      H   24    0.09033      0.00000     0.40828    0.00140     0.40967
      H   25    0.09077      0.00000     0.40839    0.00085     0.40923
      H   26    0.10005      0.00000     0.39894    0.00101     0.39995
      H   27    0.24448      0.00000     0.22843    0.02709     0.25552
 =======================================================================
   * Total *   -0.00000     17.99439    37.79316    0.21246    56.00000

 Normal termination of Gaussian 16 at Thu Dec 10 10:48:23 2020.
