 Gaussian 16, Revision A.03,

 -----------------------------------------------------------
 # opt freq B3LYP/6-31G(d) empiricaldispersion=gd3bj scf=xqc
 -----------------------------------------------------------

 ------------------------------
 CID_22162053_JID_9432_neutraal
 ------------------------------
 Symbolic Z-matrix:
 Charge =  0 Multiplicity = 1

 SCF Done:  E(RB3LYP) =  -844.828177484     A.U. after   14 cycles
 SCF Done:  E(RB3LYP) =  -844.826382218     A.U. after   14 cycles
 SCF Done:  E(RB3LYP) =  -844.834509890     A.U. after   12 cycles
 SCF Done:  E(RB3LYP) =  -844.837548318     A.U. after   14 cycles
 SCF Done:  E(RB3LYP) =  -844.840743489     A.U. after   14 cycles
 SCF Done:  E(RB3LYP) =  -844.842484579     A.U. after   14 cycles
 SCF Done:  E(RB3LYP) =  -844.844085551     A.U. after   13 cycles
 SCF Done:  E(RB3LYP) =  -844.844407253     A.U. after   13 cycles
 SCF Done:  E(RB3LYP) =  -844.845335803     A.U. after   13 cycles
 SCF Done:  E(RB3LYP) =  -844.846010167     A.U. after   12 cycles
 SCF Done:  E(RB3LYP) =  -844.854684216     A.U. after    7 cycles
 SCF Done:  E(RB3LYP) =  -844.854684467     A.U. after    7 cycles
 SCF Done:  E(RB3LYP) =  -844.854684664     A.U. after    7 cycles
 SCF Done:  E(RB3LYP) =  -844.854684787     A.U. after    6 cycles
 SCF Done:  E(RB3LYP) =  -844.854684833     A.U. after    6 cycles
 Optimization completed.
    -- Stationary point found.
 Normal termination of Gaussian 16 at Sat Dec 12 10:49:08 2020.

 --------------------------------------------------------------------
 #N Geom=AllCheck Guess=TCheck SCRF=Check GenChk RB3LYP/6-31G(d) Freq
 --------------------------------------------------------------------

 Structure from the checkpoint file:  "JID_9432.chk"
 ------------------------------
 CID_22162053_JID_9432_neutraal
 ------------------------------
 Charge =  0 Multiplicity = 1

 SCF Done:  E(RB3LYP) =  -844.854684833     A.U. after    1 cycles

  Exact polarizability: 208.105 -23.553 167.465  -0.996 -10.566 141.465
 Approx polarizability: 290.884 -45.977 250.800  -5.119 -24.776 242.339

                      1                      2                      3
                      A                      A                      A
 Frequencies --     22.2034                27.1178                37.3187
 Red. masses --      4.8866                 4.6838                 4.0809
 Frc consts  --      0.0014                 0.0020                 0.0033
 IR Inten    --      1.5459                 0.3765                 0.3888

                      4                      5                      6
                      A                      A                      A
 Frequencies --     44.7935                56.8795                61.1696
 Red. masses --      4.7121                 4.3600                 3.9495
 Frc consts  --      0.0056                 0.0083                 0.0087
 IR Inten    --      1.1163                 0.1773                 0.3981

                      7                      8                      9
                      A                      A                      A
 Frequencies --     71.4169                86.0142                86.6136
 Red. masses --      3.1463                 4.0688                 1.1540
 Frc consts  --      0.0095                 0.0177                 0.0051
 IR Inten    --      0.6679                 0.9553                 2.0941

                     10                     11                     12
                      A                      A                      A
 Frequencies --     99.2092               103.4885               110.7085
 Red. masses --      3.2383                 3.5776                 3.4267
 Frc consts  --      0.0188                 0.0226                 0.0247
 IR Inten    --      3.0055                 2.9214                 1.7593

                     13                     14                     15
                      A                      A                      A
 Frequencies --    136.9011               144.4236               160.2560
 Red. masses --      1.7240                 2.0097                 1.7587
 Frc consts  --      0.0190                 0.0247                 0.0266
 IR Inten    --     15.5465                 1.1891                 5.0458

                     16                     17                     18
                      A                      A                      A
 Frequencies --    177.1287               181.8547               199.4931
 Red. masses --      1.0612                 1.1498                 2.8384
 Frc consts  --      0.0196                 0.0224                 0.0666
 IR Inten    --     56.9831                53.8118                 2.0816

                     19                     20                     21
                      A                      A                      A
 Frequencies --    219.7291               225.7354               256.4611
 Red. masses --      1.0171                 2.0223                 1.8678
 Frc consts  --      0.0289                 0.0607                 0.0724
 IR Inten    --     46.4014                 2.8567                 1.2186

                     22                     23                     24
                      A                      A                      A
 Frequencies --    277.7110               304.1816               309.0603
 Red. masses --      4.6427                 1.0599                 4.2108
 Frc consts  --      0.2110                 0.0578                 0.2370
 IR Inten    --      2.3173                62.1022                 4.5566

                     25                     26                     27
                      A                      A                      A
 Frequencies --    402.2132               419.9494               426.2786
 Red. masses --      3.1484                 4.2603                 3.3071
 Frc consts  --      0.3001                 0.4427                 0.3541
 IR Inten    --      2.4226                 2.1667                 0.6290

                     28                     29                     30
                      A                      A                      A
 Frequencies --    428.2124               478.8353               523.5330
 Red. masses --      3.2709                 4.8656                 3.6011
 Frc consts  --      0.3534                 0.6573                 0.5815
 IR Inten    --      0.2994                 7.8877                 1.3239

                     31                     32                     33
                      A                      A                      A
 Frequencies --    523.9484               540.2493               617.3024
 Red. masses --      4.3063                 4.5794                 5.0251
 Frc consts  --      0.6965                 0.7875                 1.1282
 IR Inten    --      7.1176                 2.6351                 3.2753

                     34                     35                     36
                      A                      A                      A
 Frequencies --    630.1314               634.1447               676.7350
 Red. masses --      6.2343                 6.2960                 4.9463
 Frc consts  --      1.4585                 1.4917                 1.3346
 IR Inten    --      1.5700                 0.3922                 3.6521

                     37                     38                     39
                      A                      A                      A
 Frequencies --    705.6676               715.4771               769.1606
 Red. masses --      2.4933                 1.6919                 1.5804
 Frc consts  --      0.7315                 0.5103                 0.5509
 IR Inten    --      8.1739                32.8107                53.4071

                     40                     41                     42
                      A                      A                      A
 Frequencies --    780.9478               795.2470               809.0958
 Red. masses --      1.8748                 2.7671                 2.5274
 Frc consts  --      0.6737                 1.0311                 0.9748
 IR Inten    --      6.4971                 6.0094                14.7262

                     43                     44                     45
                      A                      A                      A
 Frequencies --    845.6703               852.2765               857.3696
 Red. masses --      1.2610                 1.2949                 2.2993
 Frc consts  --      0.5313                 0.5542                 0.9958
 IR Inten    --      0.6430                 1.8247                 8.0339

                     46                     47                     48
                      A                      A                      A
 Frequencies --    910.3889               925.2827               931.4686
 Red. masses --      1.4427                 1.5651                 1.5872
 Frc consts  --      0.7045                 0.7895                 0.8114
 IR Inten    --      2.2606                26.3729                38.3532

                     49                     50                     51
                      A                      A                      A
 Frequencies --    966.6122               969.7286               988.7786
 Red. masses --      1.3265                 1.3322                 2.0064
 Frc consts  --      0.7302                 0.7381                 1.1558
 IR Inten    --      0.8108                 0.5394               141.3884

                     52                     53                     54
                      A                      A                      A
 Frequencies --    989.6145               993.5625              1021.2011
 Red. masses --      1.2363                 1.6403                 5.7247
 Frc consts  --      0.7134                 0.9540                 3.5174
 IR Inten    --      1.1298                91.1493                 0.3731

                     55                     56                     57
                      A                      A                      A
 Frequencies --   1022.5837              1030.1688              1055.4114
 Red. masses --      4.6577                 5.2073                 2.0903
 Frc consts  --      2.8696                 3.2559                 1.3718
 IR Inten    --     49.7734                98.6290                16.5937

                     58                     59                     60
                      A                      A                      A
 Frequencies --   1059.6986              1095.1099              1106.7413
 Red. masses --      2.0650                 2.5707                 1.2156
 Frc consts  --      1.3663                 1.8164                 0.8772
 IR Inten    --     16.2277               110.1805               207.9692

                     61                     62                     63
                      A                      A                      A
 Frequencies --   1108.3795              1115.4438              1134.2051
 Red. masses --      1.5101                 1.5696                 2.0151
 Frc consts  --      1.0930                 1.1507                 1.5273
 IR Inten    --      3.1165                13.2065                68.9777

                     64                     65                     66
                      A                      A                      A
 Frequencies --   1142.1459              1190.3637              1192.2263
 Red. masses --      1.2000                 1.7487                 1.1040
 Frc consts  --      0.9223                 1.4599                 0.9246
 IR Inten    --    164.3145                11.3301                 2.0329

                     67                     68                     69
                      A                      A                      A
 Frequencies --   1192.4605              1201.1456              1210.2188
 Red. masses --      1.2359                 1.1971                 1.1678
 Frc consts  --      1.0354                 1.0176                 1.0078
 IR Inten    --      2.3914                 9.8663                10.1641

                     70                     71                     72
                      A                      A                      A
 Frequencies --   1234.6685              1277.0078              1316.7918
 Red. masses --      2.9692                 4.4110                 1.2331
 Frc consts  --      2.6668                 4.2381                 1.2597
 IR Inten    --    192.3931               199.1027                 1.3972

                     73                     74                     75
                      A                      A                      A
 Frequencies --   1338.2105              1351.7670              1362.6283
 Red. masses --      2.0597                 2.4123                 2.2991
 Frc consts  --      2.1732                 2.5971                 2.5152
 IR Inten    --      1.1767                 4.3179                 0.3842

                     76                     77                     78
                      A                      A                      A
 Frequencies --   1367.3370              1372.8971              1413.3343
 Red. masses --      1.4698                 1.9306                 1.2334
 Frc consts  --      1.6190                 2.1439                 1.4516
 IR Inten    --      5.2985                14.1576                17.5416

                     79                     80                     81
                      A                      A                      A
 Frequencies --   1438.5382              1443.5076              1500.6747
 Red. masses --      1.3133                 1.3194                 2.2149
 Frc consts  --      1.6013                 1.6198                 2.9388
 IR Inten    --      0.4396                18.2828                 1.2556

                     82                     83                     84
                      A                      A                      A
 Frequencies --   1506.9963              1514.0360              1528.3446
 Red. masses --      2.3100                 1.0808                 1.0470
 Frc consts  --      3.0909                 1.4597                 1.4409
 IR Inten    --      1.4972                 0.7538                 8.0437

                     85                     86                     87
                      A                      A                      A
 Frequencies --   1539.7065              1543.1696              1546.4228
 Red. masses --      1.0627                 2.2456                 2.2706
 Frc consts  --      1.4844                 3.1507                 3.1992
 IR Inten    --     12.3941               109.0396                60.6535

                     88                     89                     90
                      A                      A                      A
 Frequencies --   1647.9766              1649.2856              1658.0239
 Red. masses --      5.9538                 6.0014                 5.6613
 Frc consts  --      9.5268                 9.6182                 9.1696
 IR Inten    --     22.6619                 3.8102                38.2807

                     91                     92                     93
                      A                      A                      A
 Frequencies --   1664.6890              1716.2034              1722.2244
 Red. masses --      5.6937                 1.0648                 1.0634
 Frc consts  --      9.2963                 1.8478                 1.8583
 IR Inten    --     49.7415                29.2995                15.0816

                     94                     95                     96
                      A                      A                      A
 Frequencies --   1726.2325              1737.1005              3055.5537
 Red. masses --      1.0660                 1.0649                 1.0375
 Frc consts  --      1.8715                 1.8933                 5.7073
 IR Inten    --     15.5894                22.9657                26.4592

                     97                     98                     99
                      A                      A                      A
 Frequencies --   3070.5011              3084.9953              3110.7636
 Red. masses --      1.0608                 1.0868                 1.1002
 Frc consts  --      5.8925                 6.0943                 6.2725
 IR Inten    --     18.2872                27.6094                 5.7664

                    100                    101                    102
                      A                      A                      A
 Frequencies --   3126.1467              3139.0074              3189.8118
 Red. masses --      1.1016                 1.1031                 1.0856
 Frc consts  --      6.3431                 6.4037                 6.5082
 IR Inten    --     31.1268                29.6553                 1.4526

                    103                    104                    105
                      A                      A                      A
 Frequencies --   3191.2519              3199.2854              3200.1660
 Red. masses --      1.0857                 1.0896                 1.0895
 Frc consts  --      6.5146                 6.5706                 6.5736
 IR Inten    --      1.4835                13.4267                10.9632

                    106                    107                    108
                      A                      A                      A
 Frequencies --   3212.0553              3213.0254              3219.8348
 Red. masses --      1.0933                 1.0930                 1.0955
 Frc consts  --      6.6460                 6.6479                 6.6915
 IR Inten    --     25.7824                23.3115                 9.4791

                    109                    110                    111
                      A                      A                      A
 Frequencies --   3220.6070              3231.6155              3243.5319
 Red. masses --      1.0968                 1.0941                 1.0923
 Frc consts  --      6.7025                 6.7323                 6.7706
 IR Inten    --      8.4250                 1.9503                 0.2221

                    112                    113                    114
                      A                      A                      A
 Frequencies --   3445.4024              3449.3349              3575.8966
 Red. masses --      1.0274                 1.0268                 1.0889
 Frc consts  --      7.1854                 7.1980                 8.2036
 IR Inten    --     10.9752                 2.0960                 3.5466

                    115                    116                    117
                      A                      A                      A
 Frequencies --   3580.7673              3582.0240              3587.2443
 Red. masses --      1.0889                 1.0893                 1.0888
 Frc consts  --      8.2263                 8.2349                 8.2552
 IR Inten    --     14.5501                 2.5196                 3.6869

 - Thermochemistry -
 -------------------
 Temperature   298.150 Kelvin.  Pressure   1.00000 Atm.
 Atom     1 has atomic number  6 and mass  12.00000

 Molecular mass:   262.16813 amu.
 Principal axes and moments of inertia in atomic units:
                           1         2         3
     Eigenvalues --  3478.408147050.098478338.59886
           X            0.99995   0.00146  -0.01012
           Y           -0.00140   0.99998   0.00582
           Z            0.01013  -0.00580   0.99993
 This molecule is an asymmetric top.
 Rotational symmetry number  1.
 Warning -- assumption of classical behavior for rotation
           may cause significant error
 Rotational temperatures (Kelvin)      0.02490     0.01229     0.01039
 Rotational constants (GHZ):           0.51884     0.25599     0.21643
 Zero-point vibrational energy     917726.3 (Joules/Mol)
                                  219.34184 (Kcal/Mol)
 Warning -- explicit consideration of  33 degrees of freedom as
           vibrations may cause significant error
 Vibrational temperatures:     31.95    39.02    53.69    64.45    81.84
          (Kelvin)             88.01   102.75   123.76   124.62   142.74
                              148.90   159.28   196.97   207.79   230.57
                              254.85   261.65   287.03   316.14   324.78
                              368.99   399.56   437.65   444.67   578.70
                              604.21   613.32   616.10   688.94   753.25
                              753.84   777.30   888.16   906.62   912.39
                              973.67  1015.30  1029.41  1106.65  1123.61
                             1144.18  1164.11  1216.73  1226.24  1233.56
                             1309.85  1331.28  1340.18  1390.74  1395.22
                             1422.63  1423.83  1429.51  1469.28  1471.27
                             1482.18  1518.50  1524.67  1575.62  1592.35
                             1594.71  1604.87  1631.87  1643.29  1712.67
                             1715.35  1715.68  1728.18  1741.23  1776.41
                             1837.33  1894.57  1925.39  1944.89  1960.52
                             1967.29  1975.29  2033.47  2069.74  2076.89
                             2159.14  2168.23  2178.36  2198.95  2215.29
                             2220.28  2224.96  2371.07  2372.95  2385.53
                             2395.12  2469.23  2477.90  2483.66  2499.30
                             4396.26  4417.77  4438.62  4475.70  4497.83
                             4516.33  4589.43  4591.50  4603.06  4604.33
                             4621.43  4622.83  4632.62  4633.74  4649.57
                             4666.72  4957.17  4962.82  5144.92  5151.93
                             5153.73  5161.24

 Zero-point correction=                           0.349543 (Hartree/Particle)
 Thermal correction to Energy=                    0.372676
 Thermal correction to Enthalpy=                  0.373620
 Thermal correction to Gibbs Free Energy=         0.294534
 Sum of electronic and zero-point Energies=           -844.505141
 Sum of electronic and thermal Energies=              -844.482009
 Sum of electronic and thermal Enthalpies=            -844.481064
 Sum of electronic and thermal Free Energies=         -844.560151

                     E (Thermal)             CV                S
                      KCal/Mol        Cal/Mol-Kelvin    Cal/Mol-Kelvin
 Total                  233.858             81.512            166.452
 Electronic               0.000              0.000              0.000
 Translational            0.889              2.981             42.591
 Rotational               0.889              2.981             33.680
 Vibrational            232.080             75.551             90.181
 Vibration     1          0.593              1.985              6.427
 Vibration     2          0.593              1.984              6.030
 Vibration     3          0.594              1.982              5.397
 Vibration     4          0.595              1.979              5.035
 Vibration     5          0.596              1.975              4.563
 Vibration     6          0.597              1.973              4.419
 Vibration     7          0.598              1.968              4.114
 Vibration     8          0.601              1.959              3.749
 Vibration     9          0.601              1.959              3.735
 Vibration    10          0.604              1.950              3.470
 Vibration    11          0.605              1.946              3.388
 Vibration    12          0.607              1.941              3.256
 Vibration    13          0.614              1.916              2.847
 Vibration    14          0.616              1.909              2.744
 Vibration    15          0.622              1.891              2.547
 Vibration    16          0.628              1.871              2.358
 Vibration    17          0.630              1.864              2.309
 Vibration    18          0.638              1.841              2.138
 Vibration    19          0.647              1.811              1.961
 Vibration    20          0.650              1.802              1.913
 Vibration    21          0.666              1.752              1.686
 Vibration    22          0.679              1.715              1.548
 Vibration    23          0.695              1.666              1.394
 Vibration    24          0.698              1.656              1.367
 Vibration    25          0.768              1.465              0.955
 Vibration    26          0.783              1.427              0.892
 Vibration    27          0.788              1.413              0.871
 Vibration    28          0.790              1.409              0.865
 Vibration    29          0.835              1.297              0.713
 Vibration    30          0.878              1.198              0.602
 Vibration    31          0.879              1.197              0.601
 Vibration    32          0.895              1.161              0.565
 Vibration    33          0.977              0.995              0.421

                           ! Non-Optimized Parameters !
 Normal termination of Gaussian 16 at Sat Dec 12 11:10:45 2020.

 ----------------------------------------------------------------------
 # B3LYP/6-311++G(d,p) empiricaldispersion=gd3bj scf=xqc pop=npa geom=c
 heck
 ----------------------------------------------------------------------

 --------------------------------------
 CID_22162053_JID_9432_Energie_neutraal
 --------------------------------------
 Structure from the checkpoint file:  "JID_9432.chk"
 Charge =  0 Multiplicity = 1

 SCF Done:  E(RB3LYP) =  -845.111492181     A.U. after   15 cycles
 Normal termination of Gaussian 16 at Sat Dec 12 11:20:40 2020.

 ----------------------------------------------------------------------
 # B3LYP/6-311++G(d,p) empiricaldispersion=gd3bj scf=xqc pop=npa geom=c
 heck
 ----------------------------------------------------------------------

 ------------------------------------
 CID_22162053_JID_9432_Energie_kation
 ------------------------------------
 Structure from the checkpoint file:  "JID_9432.chk"
 Charge =  1 Multiplicity = 2

 SCF Done:  E(UB3LYP) =  -844.811444534     A.U. after   26 cycles
 Normal termination of Gaussian 16 at Sat Dec 12 11:44:18 2020.
 Gaussian 16:  ES64L-G16RevA.03 25-Dec-2016

 ----------------------------------------------------------------------
 # B3LYP/6-311++G(d,p) empiricaldispersion=gd3bj scf=xqc pop=npa geom=c
 heck
 ----------------------------------------------------------------------

 -----------------------------------
 CID_22162053_JID_9432_Energie_anion
 -----------------------------------
 Structure from the checkpoint file:  "JID_9432.chk"
 Charge = -1 Multiplicity = 2

                         Standard orientation:
 ---------------------------------------------------------------------
 Center     Atomic      Atomic             Coordinates (Angstroms)
 Number     Number       Type             X           Y           Z
 ---------------------------------------------------------------------
      1          6           0        0.183715    3.360648    0.717874
      2          6           0       -0.720846    2.412815   -0.071740
      3          6           0        0.038292    1.229896   -0.655822
      4          8           0        0.563152    0.498996    0.438758
      5          6           0        1.590905   -0.393270    0.224080
      6          6           0        1.925958   -0.911668   -1.031310
      7          6           0        3.007628   -1.791683   -1.133208
      8          6           0        3.735425   -2.165951   -0.005033
      9          6           0        3.372859   -1.657213    1.245027
     10          6           0        2.305032   -0.772798    1.363804
     11          8           0       -0.755917    0.421184   -1.518217
     12          6           0       -1.843513   -0.229526   -0.950060
     13          6           0       -1.668019   -1.470950   -0.336795
     14          6           0       -2.771446   -2.128156    0.206818
     15          6           0       -4.042366   -1.553451    0.134593
     16          6           0       -4.210159   -0.319786   -0.498083
     17          6           0       -3.111684    0.344165   -1.045402
     18          7           0        3.631978    2.216961   -0.656504
     19          7           0       -1.822835    0.276147    2.699593
     20          1           0        0.631020    2.847333    1.574199
     21          1           0       -0.385941    4.216776    1.092984
     22          1           0        0.996482    3.750999    0.094110
     23          1           0       -1.516447    2.026168    0.573275
     24          1           0       -1.197441    2.938708   -0.906415
     25          1           0        0.864940    1.558955   -1.293932
     26          1           0        1.341266   -0.653601   -1.905195
     27          1           0        3.270559   -2.191473   -2.108453
     28          1           0        4.572660   -2.850851   -0.095786
     29          1           0        3.928823   -1.943671    2.132923
     30          1           0        2.014593   -0.359484    2.324290
     31          1           0       -0.676876   -1.907100   -0.288784
     32          1           0       -2.635016   -3.088620    0.694691
     33          1           0       -4.897721   -2.067051    0.563140
     34          1           0       -5.197615    0.127464   -0.568259
     35          1           0       -3.223761    1.300623   -1.545155
     36          1           0        3.150429    2.733594   -1.390728
     37          1           0        3.591398    1.233023   -0.916802
     38          1           0        3.062211    2.305688    0.182700
     39          1           0       -0.999969    0.227622    2.100660
     40          1           0       -2.607944    0.001767    2.110864
     41          1           0       -1.958219    1.261505    2.921265
 ---------------------------------------------------------------------

 SCF Done:  E(UB3LYP) =  -845.102532796     A.U. after   33 cycles
 SCF Done:  E(UB3LYP) =  -845.102532796     a.u. after    1 cycles

 The electronic state is 2-A.
 Alpha  occ. eigenvalues --  -19.07804 -19.06090 -14.19646 -14.18766 -10.19923
 Alpha  occ. eigenvalues --  -10.15884 -10.14654 -10.10084 -10.10047 -10.09589
 Alpha  occ. eigenvalues --  -10.09551 -10.09540 -10.09499 -10.09416 -10.09270
 Alpha  occ. eigenvalues --  -10.09165 -10.09098 -10.08474 -10.07422  -1.01558
 Alpha  occ. eigenvalues --   -0.95881  -0.78071  -0.77374  -0.75896  -0.75020
 Alpha  occ. eigenvalues --   -0.71274  -0.67516  -0.66928  -0.66428  -0.66262
 Alpha  occ. eigenvalues --   -0.60119  -0.54736  -0.53926  -0.53173  -0.52550
 Alpha  occ. eigenvalues --   -0.49452  -0.47514  -0.44157  -0.42264  -0.41773
 Alpha  occ. eigenvalues --   -0.40308  -0.38663  -0.37798  -0.37086  -0.36729
 Alpha  occ. eigenvalues --   -0.36553  -0.36267  -0.35924  -0.35607  -0.34997
 Alpha  occ. eigenvalues --   -0.34725  -0.34379  -0.33480  -0.31689  -0.30588
 Alpha  occ. eigenvalues --   -0.29290  -0.28849  -0.28590  -0.27813  -0.27667
 Alpha  occ. eigenvalues --   -0.26962  -0.26298  -0.25873  -0.24415  -0.20738
 Alpha  occ. eigenvalues --   -0.18373  -0.17712  -0.17572  -0.16938  -0.16427
 Alpha  occ. eigenvalues --   -0.15445   0.03737
 Alpha virt. eigenvalues --    0.05314   0.05879   0.05971   0.06498   0.06568
 Alpha virt. eigenvalues --    0.06964   0.07096   0.07262   0.07762   0.08304
 Alpha virt. eigenvalues --    0.08450   0.09551   0.09697   0.10365   0.11079

  Beta  occ. eigenvalues --  -19.07797 -19.06090 -14.19611 -14.18752 -10.19911
  Beta  occ. eigenvalues --  -10.15884 -10.14636 -10.10074 -10.10028 -10.09575
  Beta  occ. eigenvalues --  -10.09538 -10.09530 -10.09484 -10.09408 -10.09253
  Beta  occ. eigenvalues --  -10.09164 -10.09076 -10.08457 -10.07383  -1.01545
  Beta  occ. eigenvalues --   -0.95867  -0.78045  -0.77341  -0.75821  -0.74987
  Beta  occ. eigenvalues --   -0.71243  -0.67481  -0.66889  -0.66388  -0.66229
  Beta  occ. eigenvalues --   -0.60076  -0.54686  -0.53892  -0.53134  -0.52495
  Beta  occ. eigenvalues --   -0.49411  -0.47484  -0.44125  -0.42233  -0.41735
  Beta  occ. eigenvalues --   -0.40281  -0.38635  -0.37767  -0.37035  -0.36688
  Beta  occ. eigenvalues --   -0.36518  -0.36239  -0.35905  -0.35579  -0.34969
  Beta  occ. eigenvalues --   -0.34696  -0.34351  -0.33453  -0.31653  -0.30549
  Beta  occ. eigenvalues --   -0.29246  -0.28817  -0.28555  -0.27764  -0.27637
  Beta  occ. eigenvalues --   -0.26932  -0.26265  -0.25842  -0.24379  -0.20725
  Beta  occ. eigenvalues --   -0.18322  -0.17658  -0.17528  -0.16916  -0.16359
  Beta  occ. eigenvalues --   -0.15409
  Beta virt. eigenvalues --    0.05582   0.05980   0.06085   0.06526   0.06684
  Beta virt. eigenvalues --    0.06775   0.07082   0.07318   0.07761   0.08218
  Beta virt. eigenvalues --    0.08722   0.08759   0.09827   0.09966   0.10749

 Mulliken charges and spin densities:
               1          2
     1  C    0.809339  -1.600698
     2  C   -0.588100   0.624244
     3  C    0.243787  -0.912981
     4  O    0.114367   0.002457
     5  C    0.162363  -0.447864
     6  C    0.151770  -0.224169
     7  C   -0.853502   0.540222
     8  C    0.462290  -0.813098
     9  C    0.068628  -0.329152
    10  C   -0.490839   0.820746
    11  O    0.009185   0.030771
    12  C   -0.853719   0.205785
    13  C    0.219660   0.201383
    14  C   -0.290662   0.122760
    15  C    0.228469  -0.551398
    16  C    0.829277  -1.067451
    17  C   -0.084113   0.184315
    18  N   -0.488719  -0.198780
    19  N   -0.611056  -0.090014
    20  H   -0.034305   0.208610
    21  H   -0.361952   0.522745
    22  H    0.017269   0.144237
    23  H    0.405257  -0.203635
    24  H   -0.410167   0.588213
    25  H    0.131859   0.128282
    26  H    0.089024   0.109240
    27  H   -0.247011   0.440475
    28  H   -0.128671   0.281254
    29  H   -0.070819   0.250958
    30  H   -0.001945   0.191056
    31  H    0.239751  -0.059913
    32  H    0.030354   0.143354
    33  H   -0.059666   0.219529
    34  H   -0.548687   0.737663
    35  H   -0.284471   0.472127
    36  H   -0.008625   0.252613
    37  H    0.295903  -0.023034
    38  H    0.237642   0.013453
    39  H    0.364187  -0.125964
    40  H    0.229796   0.050916
    41  H    0.076852   0.160740
 Sum of Mulliken charges =  -1.00000   1.00000

 Dipole moment (field-independent basis, Debye):
    X=              0.9234    Y=             -4.2384    Z=              0.0168  Tot=              4.3379
 Quadrupole moment (field-independent basis, Debye-Ang):
   XX=           -205.5081   YY=           -172.8327   ZZ=           -158.8030
   XY=             -0.6840   XZ=              3.4169   YZ=              3.5375

 Summary of Natural Population Analysis:

                                       Natural Population
                Natural  -----------------------------------------------
    Atom  No    Charge         Core      Valence    Rydberg      Total
 -----------------------------------------------------------------------
      C    1   -0.28547      0.99966     2.28038    0.00543     3.28547
      C    2   -0.21395      0.99960     2.20417    0.01017     3.21395
      C    3    0.22003      0.99951     1.75996    0.02050     2.77997
      O    4   -0.29341      0.99985     3.28122    0.01234     4.29341
      C    5    0.15776      0.99936     1.82879    0.01409     2.84224
      C    6   -0.14623      0.99950     2.13713    0.00961     3.14623
      C    7   -0.09232      0.99957     2.08250    0.01025     3.09232
      C    8   -0.11497      0.99956     2.10595    0.00946     3.11497
      C    9   -0.09180      0.99957     2.08326    0.00898     3.09180
      C   10   -0.11877      0.99951     2.10902    0.01024     3.11877
      O   11   -0.29777      0.99986     3.28848    0.00943     4.29777
      C   12    0.14959      0.99934     1.83649    0.01458     2.85041
      C   13   -0.11873      0.99949     2.11067    0.00857     3.11873
      C   14   -0.09623      0.99957     2.08767    0.00899     3.09623
      C   15   -0.11067      0.99956     2.10096    0.01016     3.11067
      C   16   -0.09914      0.99957     2.08912    0.01046     3.09914
      C   17   -0.11523      0.99950     2.10559    0.01015     3.11523
      N   18   -0.52224      0.99981     3.01542    0.00702     4.02224
      N   19   -0.52757      0.99980     3.01997    0.00780     4.02757
      H   20    0.10042      0.00000     0.39805    0.00152     0.39958
      H   21    0.10326      0.00000     0.39566    0.00107     0.39674
      H   22    0.09765      0.00000     0.40099    0.00136     0.40235
      H   23    0.10595      0.00000     0.39166    0.00239     0.39405
      H   24    0.10546      0.00000     0.39277    0.00177     0.39454
      H   25    0.08618      0.00000     0.41068    0.00314     0.41382
      H   26    0.11638      0.00000     0.38173    0.00189     0.38362
      H   27    0.10270      0.00000     0.39642    0.00089     0.39730
      H   28    0.10220      0.00000     0.39693    0.00087     0.39780
      H   29    0.10185      0.00000     0.39738    0.00077     0.39815
      H   30    0.10889      0.00000     0.38961    0.00151     0.39111
      H   31    0.11078      0.00000     0.38781    0.00142     0.38922
      H   32    0.10238      0.00000     0.39686    0.00077     0.39762
      H   33    0.10251      0.00000     0.39667    0.00083     0.39749
      H   34    0.10470      0.00000     0.39384    0.00147     0.39530
      H   35    0.10953      0.00000     0.38851    0.00196     0.39047
      H   36    0.17354      0.00000     0.32481    0.00165     0.32646
      H   37    0.17835      0.00000     0.32008    0.00156     0.32165
      H   38    0.17545      0.00000     0.32291    0.00164     0.32455
      H   39    0.18124      0.00000     0.31675    0.00201     0.31876
      H   40    0.17682      0.00000     0.32135    0.00182     0.32318
      H   41    0.17091      0.00000     0.32764    0.00145     0.32909
 =======================================================================
   * Total *   -0.00000     18.99219    51.77583    0.23199    71.00000

 Normal termination of Gaussian 16 at Sat Dec 12 12:15:05 2020.
