 Gaussian 16, Revision A.03,

 -----------------------------------------------------------
 # opt freq B3LYP/6-31G(d) empiricaldispersion=gd3bj scf=xqc
 -----------------------------------------------------------

 -------------------------------
 CID_129075403_JID_5125_neutraal
 -------------------------------
 Symbolic Z-matrix:
 Charge =  0 Multiplicity = 1

 SCF Done:  E(RB3LYP) =  -708.691372209     A.U. after   15 cycles
 SCF Done:  E(RB3LYP) =  -708.697027684     A.U. after   12 cycles
 SCF Done:  E(RB3LYP) =  -708.695680808     A.U. after   13 cycles
 SCF Done:  E(RB3LYP) =  -708.697924839     A.U. after   12 cycles
 SCF Done:  E(RB3LYP) =  -708.698161640     A.U. after   12 cycles
 SCF Done:  E(RB3LYP) =  -708.698253017     A.U. after   11 cycles
 SCF Done:  E(RB3LYP) =  -708.698263239     A.U. after   10 cycles
 SCF Done:  E(RB3LYP) =  -708.698266118     A.U. after    9 cycles
 SCF Done:  E(RB3LYP) =  -708.698267957     A.U. after    8 cycles
 SCF Done:  E(RB3LYP) =  -708.698268437     A.U. after    8 cycles
 SCF Done:  E(RB3LYP) =  -708.698268599     A.U. after    7 cycles
 SCF Done:  E(RB3LYP) =  -708.698268651     A.U. after    7 cycles
 Optimization completed.
    -- Stationary point found.
 Normal termination of Gaussian 16 at Thu Dec 10 14:45:25 2020.

 --------------------------------------------------------------------
 #N Geom=AllCheck Guess=TCheck SCRF=Check GenChk RB3LYP/6-31G(d) Freq
 --------------------------------------------------------------------

 Structure from the checkpoint file:  "JID_5125.chk"
 -------------------------------
 CID_129075403_JID_5125_neutraal
 -------------------------------
 Charge =  0 Multiplicity = 1

 SCF Done:  E(RB3LYP) =  -708.698268651     A.U. after    1 cycles

  Exact polarizability: 169.604  -7.812 126.204   5.388   0.704  85.608
 Approx polarizability: 228.203  -7.791 201.539  14.687   5.724 137.950

                      1                      2                      3
                      A                      A                      A
 Frequencies --     25.7605                42.2342                58.2745
 Red. masses --      3.0989                 4.2734                 6.2897
 Frc consts  --      0.0012                 0.0045                 0.0126
 IR Inten    --      0.1457                 0.8237                 0.9038

                      4                      5                      6
                      A                      A                      A
 Frequencies --     73.8472               149.5287               159.8061
 Red. masses --      6.6923                 1.4484                 2.2040
 Frc consts  --      0.0215                 0.0191                 0.0332
 IR Inten    --      1.1128                 1.2162                 0.2936

                      7                      8                      9
                      A                      A                      A
 Frequencies --    196.6382               203.6138               217.7861
 Red. masses --      3.3485                 1.4189                 2.5716
 Frc consts  --      0.0763                 0.0347                 0.0719
 IR Inten    --      0.5045                 0.7834                 2.3505

                     10                     11                     12
                      A                      A                      A
 Frequencies --    230.7008               265.0100               276.7842
 Red. masses --      1.6110                 1.0514                 1.2561
 Frc consts  --      0.0505                 0.0435                 0.0567
 IR Inten    --      0.3994                 0.0834                 0.0999

                     13                     14                     15
                      A                      A                      A
 Frequencies --    295.6696               314.2849               353.6169
 Red. masses --      2.9334                 2.9022                 2.9169
 Frc consts  --      0.1511                 0.1689                 0.2149
 IR Inten    --      1.0767                 6.8037                 4.1453

                     16                     17                     18
                      A                      A                      A
 Frequencies --    356.9715               362.9853               382.0280
 Red. masses --      4.0398                 1.1174                 2.7731
 Frc consts  --      0.3033                 0.0867                 0.2385
 IR Inten    --      6.2603               117.2615                 5.0925

                     19                     20                     21
                      A                      A                      A
 Frequencies --    403.6270               447.5518               475.0122
 Red. masses --      5.6814                 3.4613                 4.2713
 Frc consts  --      0.5453                 0.4085                 0.5678
 IR Inten    --      4.9051                 3.8940                 3.2227

                     22                     23                     24
                      A                      A                      A
 Frequencies --    504.4438               549.4946               577.1103
 Red. masses --      4.1824                 6.2520                 4.0920
 Frc consts  --      0.6270                 1.1122                 0.8030
 IR Inten    --      3.8901                 7.8554                 0.0110

                     25                     26                     27
                      A                      A                      A
 Frequencies --    596.5874               610.3279               732.5356
 Red. masses --      4.5467                 3.4347                 7.9907
 Frc consts  --      0.9534                 0.7538                 2.5263
 IR Inten    --      4.0114                 1.4312                 5.9204

                     28                     29                     30
                      A                      A                      A
 Frequencies --    737.8155               766.0669               799.2208
 Red. masses --      5.7707                 6.9293                 4.6567
 Frc consts  --      1.8509                 2.3959                 1.7525
 IR Inten    --      2.4532                 4.5081                 9.5828

                     31                     32                     33
                      A                      A                      A
 Frequencies --    837.7679               879.0283               906.3008
 Red. masses --      4.4502                 1.5913                 1.5443
 Frc consts  --      1.8403                 0.7244                 0.7473
 IR Inten    --      4.4129                10.5004                 0.3019

                     34                     35                     36
                      A                      A                      A
 Frequencies --    917.4779               953.4792               961.3188
 Red. masses --      2.7277                 1.7494                 1.6144
 Frc consts  --      1.3528                 0.9371                 0.8790
 IR Inten    --     23.2897                 1.3973                 2.9902

                     37                     38                     39
                      A                      A                      A
 Frequencies --    983.7097              1004.6712              1038.5073
 Red. masses --      1.1987                 3.6639                 1.5771
 Frc consts  --      0.6835                 2.1789                 1.0022
 IR Inten    --      0.0303                 1.2672                28.2520

                     40                     41                     42
                      A                      A                      A
 Frequencies --   1062.2797              1062.9681              1079.4981
 Red. masses --      1.4660                 1.4311                 1.4964
 Frc consts  --      0.9747                 0.9527                 1.0274
 IR Inten    --     32.0637                 1.5425                 3.5792

                     43                     44                     45
                      A                      A                      A
 Frequencies --   1152.2700              1167.0902              1219.1383
 Red. masses --      3.5611                 3.2369                 1.5153
 Frc consts  --      2.7857                 2.5977                 1.3270
 IR Inten    --    474.7074               217.3271               177.6796

                     46                     47                     48
                      A                      A                      A
 Frequencies --   1246.0673              1250.0418              1269.0166
 Red. masses --      2.6608                 1.9880                 2.7735
 Frc consts  --      2.4342                 1.8303                 2.6316
 IR Inten    --      2.5264                60.5779                11.0860

                     49                     50                     51
                      A                      A                      A
 Frequencies --   1295.7770              1321.7683              1350.3610
 Red. masses --      2.8465                 3.3276                 2.9761
 Frc consts  --      2.8159                 3.4252                 3.1974
 IR Inten    --     80.1596                16.8016                 2.6617

                     52                     53                     54
                      A                      A                      A
 Frequencies --   1356.3032              1423.0141              1430.4090
 Red. masses --      3.6192                 1.2089                 1.2368
 Frc consts  --      3.9226                 1.4423                 1.4910
 IR Inten    --    116.5569                 4.2119                 5.6237

                     55                     56                     57
                      A                      A                      A
 Frequencies --   1440.6378              1458.6923              1479.7487
 Red. masses --      1.2427                 1.2332                 3.8483
 Frc consts  --      1.5196                 1.5460                 4.9647
 IR Inten    --      5.1291                27.6807               178.5951

                     58                     59                     60
                      A                      A                      A
 Frequencies --   1505.0756              1507.7991              1511.4529
 Red. masses --      1.5239                 1.0505                 1.1898
 Frc consts  --      2.0339                 1.4072                 1.6014
 IR Inten    --      3.1390                 0.4021                 9.2450

                     61                     62                     63
                      A                      A                      A
 Frequencies --   1515.8778              1520.8580              1529.7709
 Red. masses --      1.0452                 1.0500                 1.0496
 Frc consts  --      1.4151                 1.4310                 1.4471
 IR Inten    --      0.3563                 1.2705                 5.5557

                     64                     65                     66
                      A                      A                      A
 Frequencies --   1532.7159              1543.4768              1551.6758
 Red. masses --      1.0574                 1.3939                 1.0857
 Frc consts  --      1.4636                 1.9565                 1.5402
 IR Inten    --      8.0669                89.6425                 7.8355

                     67                     68                     69
                      A                      A                      A
 Frequencies --   1637.7941              1672.9187              1831.4943
 Red. masses --      6.0396                 6.8212                12.5639
 Frc consts  --      9.5450                11.2476                24.8304
 IR Inten    --     25.5057                12.8276               174.1036

                     70                     71                     72
                      A                      A                      A
 Frequencies --   3051.5521              3054.6395              3058.5586
 Red. masses --      1.0358                 1.0359                 1.0356
 Frc consts  --      5.6827                 5.6951                 5.7076
 IR Inten    --     22.0134                14.2285                16.5201

                     73                     74                     75
                      A                      A                      A
 Frequencies --   3062.8103              3115.1878              3118.9651
 Red. masses --      1.0364                 1.1027                 1.1011
 Frc consts  --      5.7283                 6.3048                 6.3110
 IR Inten    --     27.1653                19.5726                 7.1180

                     76                     77                     78
                      A                      A                      A
 Frequencies --   3119.6159              3130.8247              3139.7776
 Red. masses --      1.1028                 1.1020                 1.1030
 Frc consts  --      6.3231                 6.3643                 6.4064
 IR Inten    --     18.0685                42.5213                17.9679

                     79                     80                     81
                      A                      A                      A
 Frequencies --   3141.4084              3143.4695              3148.4571
 Red. masses --      1.1026                 1.1017                 1.1008
 Frc consts  --      6.4111                 6.4138                 6.4293
 IR Inten    --     16.7747                12.4223                38.6495

                     82                     83                     84
                      A                      A                      A
 Frequencies --   3149.2695              3211.4022              3743.6581
 Red. masses --      1.0906                 1.0916                 1.0659
 Frc consts  --      6.3727                 6.6326                 8.8019
 IR Inten    --     30.3795                 5.1562                51.5865

 - Thermochemistry -
 -------------------
 Temperature   298.150 Kelvin.  Pressure   1.00000 Atm.
 Atom     1 has atomic number  6 and mass  12.00000

 Molecular mass:   209.10519 amu.
 Principal axes and moments of inertia in atomic units:
                           1         2         3
     Eigenvalues --  1218.056045682.222506139.63894
           X            0.99999   0.00261   0.00337
           Y           -0.00256   0.99985  -0.01702
           Z           -0.00341   0.01701   0.99985
 This molecule is an asymmetric top.
 Rotational symmetry number  1.
 Warning -- assumption of classical behavior for rotation
           may cause significant error
 Rotational temperatures (Kelvin)      0.07111     0.01524     0.01411
 Rotational constants (GHZ):           1.48166     0.31761     0.29395
 Zero-point vibrational energy     651744.6 (Joules/Mol)
                                  155.77069 (Kcal/Mol)
 Warning -- explicit consideration of  26 degrees of freedom as
           vibrations may cause significant error
 Vibrational temperatures:     37.06    60.77    83.84   106.25   215.14
          (Kelvin)            229.93   282.92   292.95   313.35   331.93
                              381.29   398.23   425.40   452.19   508.78
                              513.60   522.25   549.65   580.73   643.93
                              683.44   725.78   790.60   830.33   858.36
                              878.13  1053.96  1061.55  1102.20  1149.90
                             1205.36  1264.73  1303.96  1320.05  1371.84
                             1383.12  1415.34  1445.50  1494.18  1528.38
                             1529.37  1553.16  1657.86  1679.18  1754.07
                             1792.81  1798.53  1825.83  1864.33  1901.73
                             1942.87  1951.42  2047.40  2058.04  2072.76
                             2098.73  2129.03  2165.47  2169.39  2174.64
                             2181.01  2188.18  2201.00  2205.24  2220.72
                             2232.52  2356.42  2406.96  2635.11  4390.50
                             4394.94  4400.58  4406.70  4482.06  4487.50
                             4488.43  4504.56  4517.44  4519.79  4522.75
                             4529.93  4531.10  4620.49  5386.29

 Zero-point correction=                           0.248236 (Hartree/Particle)
 Thermal correction to Energy=                    0.263781
 Thermal correction to Enthalpy=                  0.264725
 Thermal correction to Gibbs Free Energy=         0.205114
 Sum of electronic and zero-point Energies=           -708.450032
 Sum of electronic and thermal Energies=              -708.434488
 Sum of electronic and thermal Enthalpies=            -708.433544
 Sum of electronic and thermal Free Energies=         -708.493155

                     E (Thermal)             CV                S
                      KCal/Mol        Cal/Mol-Kelvin    Cal/Mol-Kelvin
 Total                  165.525             58.310            125.462
 Electronic               0.000              0.000              0.000
 Translational            0.889              2.981             41.917
 Rotational               0.889              2.981             32.119
 Vibrational            163.747             52.349             51.426
 Vibration     1          0.593              1.985              6.132
 Vibration     2          0.595              1.980              5.151
 Vibration     3          0.596              1.974              4.515
 Vibration     4          0.599              1.966              4.048
 Vibration     5          0.618              1.903              2.678
 Vibration     6          0.622              1.892              2.552
 Vibration     7          0.636              1.845              2.164
 Vibration     8          0.639              1.835              2.100
 Vibration     9          0.646              1.814              1.977
 Vibration    10          0.652              1.794              1.873
 Vibration    11          0.671              1.737              1.629
 Vibration    12          0.678              1.716              1.553
 Vibration    13          0.690              1.682              1.441
 Vibration    14          0.702              1.646              1.340
 Vibration    15          0.730              1.568              1.150
 Vibration    16          0.732              1.561              1.135
 Vibration    17          0.737              1.548              1.109
 Vibration    18          0.751              1.509              1.031
 Vibration    19          0.769              1.462              0.949
 Vibration    20          0.807              1.366              0.803
 Vibration    21          0.832              1.305              0.724
 Vibration    22          0.860              1.240              0.647
 Vibration    23          0.905              1.141              0.545
 Vibration    24          0.934              1.081              0.491
 Vibration    25          0.954              1.039              0.456
 Vibration    26          0.969              1.010              0.432

 Optimization completed.
    -- Stationary point found.
 Normal termination of Gaussian 16 at Thu Dec 10 14:53:31 2020.

 ----------------------------------------------------------------------
 # B3LYP/6-311++G(d,p) empiricaldispersion=gd3bj scf=xqc pop=npa geom=c
 heck
 ----------------------------------------------------------------------

 ---------------------------------------
 CID_129075403_JID_5125_Energie_neutraal
 ---------------------------------------
 Structure from the checkpoint file:  "JID_5125.chk"
 Charge =  0 Multiplicity = 1

 SCF Done:  E(RB3LYP) =  -708.903404842     A.U. after   16 cycles
 Normal termination of Gaussian 16 at Thu Dec 10 14:56:54 2020.

 ----------------------------------------------------------------------
 # B3LYP/6-311++G(d,p) empiricaldispersion=gd3bj scf=xqc pop=npa geom=c
 heck
 ----------------------------------------------------------------------

 -------------------------------------
 CID_129075403_JID_5125_Energie_kation
 -------------------------------------
 Structure from the checkpoint file:  "JID_5125.chk"
 Charge =  1 Multiplicity = 2

 SCF Done:  E(UB3LYP) =  -708.589772182     A.U. after   23 cycles
 Normal termination of Gaussian 16 at Thu Dec 10 15:03:36 2020.
 Gaussian 16:  ES64L-G16RevA.03 25-Dec-2016

 ----------------------------------------------------------------------
 # B3LYP/6-311++G(d,p) empiricaldispersion=gd3bj scf=xqc pop=npa geom=c
 heck
 ----------------------------------------------------------------------

 ------------------------------------
 CID_129075403_JID_5125_Energie_anion
 ------------------------------------
 Structure from the checkpoint file:  "JID_5125.chk"
 Charge = -1 Multiplicity = 2

                         Standard orientation:
 ---------------------------------------------------------------------
 Center     Atomic      Atomic             Coordinates (Angstroms)
 Number     Number       Type             X           Y           Z
 ---------------------------------------------------------------------
      1          6           0        0.656709    2.304263   -0.269893
      2          6           0        1.419657    1.010481   -0.198527
      3          6           0        2.795683    0.969291    0.003788
      4          6           0        3.451382   -0.263601    0.072654
      5          6           0        2.694475   -1.426960   -0.070967
      6          7           0        1.371813   -1.404830   -0.266820
      7          6           0        0.776703   -0.231528   -0.323052
      8          8           0       -0.591654   -0.269047   -0.601014
      9          6           0       -1.458353   -0.052877    0.439264
     10          8           0       -1.088091    0.213097    1.557576
     11          6           0       -2.905028   -0.189510   -0.026226
     12          6           0       -3.123909   -1.629344   -0.535945
     13          6           0       -3.833321    0.104610    1.158808
     14          6           0       -3.160347    0.814808   -1.168985
     15          8           0        4.801020   -0.267607    0.271334
     16          1           0       -0.000775    2.326179   -1.145593
     17          1           0        1.337869    3.157769   -0.325453
     18          1           0        0.025111    2.423191    0.617372
     19          1           0        3.371246    1.883602    0.110655
     20          1           0        3.167636   -2.408458   -0.027790
     21          1           0       -2.939810   -2.359683    0.259560
     22          1           0       -4.160709   -1.745803   -0.870819
     23          1           0       -2.457969   -1.858270   -1.371714
     24          1           0       -3.680844    1.119512    1.537910
     25          1           0       -4.877580    0.003897    0.843698
     26          1           0       -3.649793   -0.588668    1.984425
     27          1           0       -2.983800    1.844335   -0.836783
     28          1           0       -2.513494    0.612281   -2.026453
     29          1           0       -4.203467    0.740783   -1.495847
     30          1           0        5.111581   -1.186198    0.305894
 ---------------------------------------------------------------------

 SCF Done:  E(UB3LYP) =  -708.893211343     A.U. after   33 cycles
 SCF Done:  E(UB3LYP) =  -708.893211417     a.u. after    2 cycles

 The electronic state is 2-A.
 Alpha  occ. eigenvalues --  -19.07354 -19.05366 -19.02228 -14.20629 -10.20950
 Alpha  occ. eigenvalues --  -10.15266 -10.13686 -10.11014 -10.09683 -10.09188
 Alpha  occ. eigenvalues --  -10.07802 -10.07734 -10.07529 -10.07464 -10.07061
 Alpha  occ. eigenvalues --   -1.01923  -0.96492  -0.93703  -0.84173  -0.73908
 Alpha  occ. eigenvalues --   -0.71808  -0.66650  -0.61517  -0.60364  -0.59986
 Alpha  occ. eigenvalues --   -0.56924  -0.53526  -0.50870  -0.47021  -0.45147
 Alpha  occ. eigenvalues --   -0.41291  -0.40410  -0.39677  -0.36962  -0.35824
 Alpha  occ. eigenvalues --   -0.34883  -0.34020  -0.33447  -0.32447  -0.31513
 Alpha  occ. eigenvalues --   -0.31300  -0.30606  -0.30361  -0.29657  -0.29205
 Alpha  occ. eigenvalues --   -0.28241  -0.28055  -0.26950  -0.25721  -0.24885
 Alpha  occ. eigenvalues --   -0.24698  -0.22532  -0.18758  -0.17652  -0.16801
 Alpha  occ. eigenvalues --   -0.13032   0.04239
 Alpha virt. eigenvalues --    0.05473   0.06298   0.07040   0.08096   0.08328
 Alpha virt. eigenvalues --    0.08864   0.09177   0.09816   0.10199   0.10517
 Alpha virt. eigenvalues --    0.10781   0.11272   0.11981   0.12626   0.13221

  Beta  occ. eigenvalues --  -19.07357 -19.05310 -19.02219 -14.20498 -10.20946
  Beta  occ. eigenvalues --  -10.15274 -10.13704 -10.11013 -10.09608 -10.09142
  Beta  occ. eigenvalues --  -10.07727 -10.07704 -10.07515 -10.07434 -10.07041
  Beta  occ. eigenvalues --   -1.01917  -0.96384  -0.93689  -0.83991  -0.73889
  Beta  occ. eigenvalues --   -0.71652  -0.66542  -0.61455  -0.60323  -0.59937
  Beta  occ. eigenvalues --   -0.56835  -0.53378  -0.50785  -0.46950  -0.45052
  Beta  occ. eigenvalues --   -0.41216  -0.40383  -0.39644  -0.36923  -0.35742
  Beta  occ. eigenvalues --   -0.34834  -0.33958  -0.33366  -0.32391  -0.31478
  Beta  occ. eigenvalues --   -0.31184  -0.30556  -0.30324  -0.29596  -0.29166
  Beta  occ. eigenvalues --   -0.28181  -0.28027  -0.26874  -0.25566  -0.24861
  Beta  occ. eigenvalues --   -0.24587  -0.22502  -0.18736  -0.17113  -0.16651
  Beta  occ. eigenvalues --   -0.12777
  Beta virt. eigenvalues --    0.06236   0.07211   0.07279   0.07768   0.08417
  Beta virt. eigenvalues --    0.08537   0.09169   0.09404   0.09845   0.10557
  Beta virt. eigenvalues --    0.10821   0.10965   0.11370   0.12102   0.12723

 Mulliken charges and spin densities:
               1          2
     1  C    0.537455  -0.872892
     2  C    0.573003   0.955256
     3  C    0.295987  -0.662688
     4  C    0.151166  -0.598575
     5  C    0.376765  -0.073174
     6  N   -0.124321   0.115393
     7  C   -1.193552  -0.080492
     8  O    0.151099   0.005308
     9  C    0.260461  -0.988398
    10  O   -0.187156   0.016159
    11  C   -1.116049   1.886928
    12  C   -0.086368  -0.419409
    13  C   -0.015787  -0.579183
    14  C    0.570570  -1.208833
    15  O   -0.266972   0.022341
    16  H    0.061449   0.097663
    17  H   -0.059944   0.223401
    18  H    0.200951  -0.018517
    19  H    0.109060   0.053575
    20  H   -0.468106   0.655854
    21  H    0.071677   0.076770
    22  H   -0.062356   0.220011
    23  H    0.104086   0.061506
    24  H    0.039713   0.116482
    25  H   -0.223088   0.374176
    26  H    0.084386   0.072429
    27  H   -0.066365   0.212174
    28  H    0.053974   0.113722
    29  H   -0.326792   0.495085
    30  H   -0.444948   0.727929
 Sum of Mulliken charges =  -1.00000   1.00000

 Dipole moment (field-independent basis, Debye):
    X=             -3.3566    Y=              2.6709    Z=             -0.4016  Tot=              4.3084
 Quadrupole moment (field-independent basis, Debye-Ang):
   XX=           -195.8479   YY=           -121.9638   ZZ=           -116.4078
   XY=             17.7131   XZ=             -7.5274   YZ=              3.0271

 Summary of Natural Population Analysis:

                                       Natural Population
                Natural  -----------------------------------------------
    Atom  No    Charge         Core      Valence    Rydberg      Total
 -----------------------------------------------------------------------
      C    1   -0.29767      0.99964     2.29269    0.00534     3.29767
      C    2   -0.02788      0.99947     2.02070    0.00770     3.02788
      C    3   -0.08973      0.99948     2.08137    0.00887     3.08973
      C    4    0.13897      0.99938     1.84800    0.01365     2.86103
      C    5   -0.00398      0.99954     1.98927    0.01517     3.00398
      N    6   -0.21162      0.99965     2.70165    0.01033     3.71162
      C    7    0.24079      0.99934     1.74352    0.01635     2.75921
      O    8   -0.28327      0.99984     3.27484    0.00859     4.28327
      C    9    0.42184      0.99960     1.55155    0.02702     2.57816
      O   10   -0.29665      0.99987     3.29181    0.00498     4.29665
      C   11   -0.08883      0.99954     2.07847    0.01082     3.08883
      C   12   -0.28073      0.99963     2.27407    0.00703     3.28073
      C   13   -0.28253      0.99964     2.27496    0.00793     3.28253
      C   14   -0.28138      0.99963     2.27441    0.00734     3.28138
      O   15   -0.34033      0.99988     3.33282    0.00763     4.34033
      H   16    0.10734      0.00000     0.39149    0.00118     0.39266
      H   17    0.10108      0.00000     0.39814    0.00078     0.39892
      H   18    0.11107      0.00000     0.38777    0.00116     0.38893
      H   19    0.10287      0.00000     0.39615    0.00098     0.39713
      H   20    0.09143      0.00000     0.40655    0.00202     0.40857
      H   21    0.10133      0.00000     0.39778    0.00089     0.39867
      H   22    0.09996      0.00000     0.39919    0.00085     0.40004
      H   23    0.10880      0.00000     0.39015    0.00104     0.39120
      H   24    0.10401      0.00000     0.39513    0.00086     0.39599
      H   25    0.09943      0.00000     0.39959    0.00097     0.40057
      H   26    0.10440      0.00000     0.39475    0.00086     0.39560
      H   27    0.10095      0.00000     0.39793    0.00111     0.39905
      H   28    0.10684      0.00000     0.39200    0.00116     0.39316
      H   29    0.10202      0.00000     0.39663    0.00136     0.39798
      H   30    0.24149      0.00000     0.23836    0.02015     0.25851
 =======================================================================
   * Total *   -0.00000     14.99412    40.81177    0.19411    56.00000

 Normal termination of Gaussian 16 at Thu Dec 10 15:21:48 2020.
