 Gaussian 16, Revision A.03,

 -----------------------------------------------------------
 # opt freq B3LYP/6-31G(d) empiricaldispersion=gd3bj scf=xqc
 -----------------------------------------------------------

 --------------------------
 CID_87455_JID_989_neutraal
 --------------------------
 Symbolic Z-matrix:
 Charge =  0 Multiplicity = 1

 SCF Done:  E(RB3LYP) =  -461.327519975     A.U. after   14 cycles
 SCF Done:  E(RB3LYP) =  -461.330301928     A.U. after   12 cycles
 SCF Done:  E(RB3LYP) =  -461.330727965     A.U. after   11 cycles
 SCF Done:  E(RB3LYP) =  -461.331469791     A.U. after   12 cycles
 SCF Done:  E(RB3LYP) =  -461.332037843     A.U. after   11 cycles
 SCF Done:  E(RB3LYP) =  -461.332191205     A.U. after   10 cycles
 SCF Done:  E(RB3LYP) =  -461.332242345     A.U. after    9 cycles
 SCF Done:  E(RB3LYP) =  -461.332258770     A.U. after    9 cycles
 SCF Done:  E(RB3LYP) =  -461.332261983     A.U. after    9 cycles
 SCF Done:  E(RB3LYP) =  -461.332263942     A.U. after    9 cycles
 SCF Done:  E(RB3LYP) =  -461.332264653     A.U. after    7 cycles
 SCF Done:  E(RB3LYP) =  -461.332265451     A.U. after    7 cycles
 SCF Done:  E(RB3LYP) =  -461.332265576     A.U. after    7 cycles
 SCF Done:  E(RB3LYP) =  -461.332265765     A.U. after    7 cycles
 SCF Done:  E(RB3LYP) =  -461.332265850     A.U. after    7 cycles
 Optimization completed.
    -- Stationary point found.

 1\1\GINC-NODE372\FOpt\RB3LYP\6-31G(d)\C8H10O2\VSC10255\08-Dec-2020\0\\
 # opt freq B3LYP/6-31G(d) empiricaldispersion=gd3bj scf=xqc\\CID_87455
 _JID_989_neutraal\\0,1\C,2.4955606908,1.2370305227,0.036603509\C,1.181
 0233285,0.5107746075,-0.0921103465\C,-0.013955487,1.2210605942,0.07874
 77495\C,-1.2513338213,0.5630618676,-0.0211305356\C,-1.2920675151,-0.80
 21344253,-0.3090577963\C,-0.1043606592,-1.5116571883,-0.4806568808\C,1
 .1218014464,-0.8607865996,-0.3671412374\O,-2.3831866119,1.3100360905,0
 .1796088317\O,0.0563938327,2.5558074751,0.4055135869\C,-0.4401231095,3

 Normal termination of Gaussian 16 at Tue Dec  8 13:25:48 2020.

 --------------------------------------------------------------------
 #N Geom=AllCheck Guess=TCheck SCRF=Check GenChk RB3LYP/6-31G(d) Freq
 --------------------------------------------------------------------

 Structure from the checkpoint file:  "JID_989.chk"
 --------------------------
 CID_87455_JID_989_neutraal
 --------------------------
 Charge =  0 Multiplicity = 1

 SCF Done:  E(RB3LYP) =  -461.332265850     A.U. after    1 cycles

  Exact polarizability: 109.026   1.638 106.577  -4.039  -0.630  45.143
 Approx polarizability: 168.288  -1.128 164.162 -12.623  -1.504  68.633

                      1                      2                      3
                      A                      A                      A
 Frequencies --     73.3553               107.2184               119.2589
 Red. masses --      2.2435                 1.0562                 3.1858
 Frc consts  --      0.0071                 0.0072                 0.0267
 IR Inten    --      3.7806                 0.1851                 0.3242

                      4                      5                      6
                      A                      A                      A
 Frequencies --    161.5451               210.9856               247.2923
 Red. masses --      1.2389                 2.9297                 3.9068
 Frc consts  --      0.0190                 0.0768                 0.1408
 IR Inten    --      1.9765                 6.1159                 0.8336

                      7                      8                      9
                      A                      A                      A
 Frequencies --    294.1291               308.8780               341.9151
 Red. masses --      3.0818                 4.6390                 1.2306
 Frc consts  --      0.1571                 0.2608                 0.0848
 IR Inten    --      6.3832                 8.1111                98.7563

                     10                     11                     12
                      A                      A                      A
 Frequencies --    385.5827               488.4484               513.1237
 Red. masses --      3.6399                 5.3541                 4.1959
 Frc consts  --      0.3188                 0.7526                 0.6509
 IR Inten    --      5.2080                 0.6479                 5.9934

                     13                     14                     15
                      A                      A                      A
 Frequencies --    556.3631               568.1426               585.9910
 Red. masses --      3.8494                 5.4668                 4.0946
 Frc consts  --      0.7020                 1.0397                 0.8284
 IR Inten    --      0.3175                 5.5999                 1.3507

                     16                     17                     18
                      A                      A                      A
 Frequencies --    685.5230               747.0256               767.6413
 Red. masses --      4.9745                 3.1336                 1.6062
 Frc consts  --      1.3773                 1.0303                 0.5576
 IR Inten    --      2.7617                11.4660                37.5225

                     19                     20                     21
                      A                      A                      A
 Frequencies --    821.8558               856.0819               943.1196
 Red. masses --      5.1006                 1.3297                 1.2427
 Frc consts  --      2.0298                 0.5742                 0.6512
 IR Inten    --      9.3316                 0.0146                 0.2965

                     22                     23                     24
                      A                      A                      A
 Frequencies --    972.6173              1050.2385              1058.2494
 Red. masses --      2.4842                 5.1241                 2.3686
 Frc consts  --      1.3846                 3.3300                 1.5628
 IR Inten    --     41.4634                53.8177                38.3806

                     25                     26                     27
                      A                      A                      A
 Frequencies --   1074.7149              1123.3959              1187.9106
 Red. masses --      1.5125                 1.7300                 1.2539
 Frc consts  --      1.0293                 1.2864                 1.0425
 IR Inten    --      1.2806                23.3408                 2.3332

                     28                     29                     30
                      A                      A                      A
 Frequencies --   1195.6902              1207.7544              1224.8106
 Red. masses --      1.1794                 1.7515                 1.3874
 Frc consts  --      0.9934                 1.5053                 1.2262
 IR Inten    --      7.5628                17.0404                32.8063

                     31                     32                     33
                      A                      A                      A
 Frequencies --   1276.2191              1303.7760              1338.4068
 Red. masses --      3.2779                 1.8234                 3.4667
 Frc consts  --      3.1456                 1.8262                 3.6589
 IR Inten    --    120.3413                34.7649               152.6226

                     34                     35                     36
                      A                      A                      A
 Frequencies --   1374.9515              1444.9411              1493.0654
 Red. masses --      3.9584                 1.2507                 1.2337
 Frc consts  --      4.4090                 1.5385                 1.6204
 IR Inten    --     61.3586                 0.1147                 4.2958

                     37                     38                     39
                      A                      A                      A
 Frequencies --   1506.9481              1510.7641              1514.4892
 Red. masses --      1.4264                 1.0517                 1.0529
 Frc consts  --      1.9084                 1.4143                 1.4228
 IR Inten    --     11.3512                 5.7756                 5.3808

                     40                     41                     42
                      A                      A                      A
 Frequencies --   1527.0922              1542.8959              1554.5614
 Red. masses --      1.8797                 1.0511                 2.3856
 Frc consts  --      2.5827                 1.4742                 3.3968
 IR Inten    --     32.9025                 9.9042                65.4817

                     43                     44                     45
                      A                      A                      A
 Frequencies --   1650.1576              1668.4992              3033.2225
 Red. masses --      5.9966                 6.3989                 1.0399
 Frc consts  --      9.6207                10.4956                 5.6368
 IR Inten    --     22.7421                 6.4381                60.5428

                     46                     47                     48
                      A                      A                      A
 Frequencies --   3054.2948              3108.7254              3114.2837
 Red. masses --      1.0361                 1.1001                 1.0948
 Frc consts  --      5.6948                 6.2639                 6.2558
 IR Inten    --     26.6971                17.7304                38.9741

                     49                     50                     51
                      A                      A                      A
 Frequencies --   3132.9236              3153.3773              3164.4397
 Red. masses --      1.1030                 1.1058                 1.0886
 Frc consts  --      6.3788                 6.4787                 6.4225
 IR Inten    --     18.5215                25.9068                16.0398

                     52                     53                     54
                      A                      A                      A
 Frequencies --   3187.8884              3207.2791              3753.6429
 Red. masses --      1.0882                 1.0958                 1.0660
 Frc consts  --      6.5157                 6.6416                 8.8493
 IR Inten    --     13.7862                23.0405                41.0662

 - Thermochemistry -
 -------------------
 Temperature   298.150 Kelvin.  Pressure   1.00000 Atm.
 Atom     1 has atomic number  6 and mass  12.00000

 Molecular mass:   138.06808 amu.
 Principal axes and moments of inertia in atomic units:
                           1         2         3
     Eigenvalues --  1056.260821219.613232165.72022
           X            0.99938   0.03248   0.01355
           Y           -0.03246   0.99947  -0.00158
           Z           -0.01359   0.00113   0.99991
 This molecule is an asymmetric top.
 Rotational symmetry number  1.
 Warning -- assumption of classical behavior for rotation
           may cause significant error
 Rotational temperatures (Kelvin)      0.08200     0.07102     0.03999
 Rotational constants (GHZ):           1.70861     1.47977     0.83332
 Zero-point vibrational energy     433620.6 (Joules/Mol)
                                  103.63781 (Kcal/Mol)
 Warning -- explicit consideration of  15 degrees of freedom as
           vibrations may cause significant error
 Vibrational temperatures:    105.54   154.26   171.59   232.43   303.56
          (Kelvin)            355.80   423.19   444.41   491.94   554.77
                              702.77   738.27   800.48   817.43   843.11
                              986.31  1074.80  1104.46  1182.47  1231.71
                             1356.94  1399.38  1511.06  1522.58  1546.28
                             1616.32  1709.14  1720.33  1737.69  1762.23
                             1836.19  1875.84  1925.67  1978.25  2078.95
                             2148.19  2168.16  2173.65  2179.01  2197.15
                             2219.88  2236.67  2374.21  2400.60  4364.13
                             4394.45  4472.76  4480.76  4507.58  4537.01
                             4552.92  4586.66  4614.56  5400.65

 Zero-point correction=                           0.165157 (Hartree/Particle)
 Thermal correction to Energy=                    0.175148
 Thermal correction to Enthalpy=                  0.176092
 Thermal correction to Gibbs Free Energy=         0.130099
 Sum of electronic and zero-point Energies=           -461.167108
 Sum of electronic and thermal Energies=              -461.157118
 Sum of electronic and thermal Enthalpies=            -461.156173
 Sum of electronic and thermal Free Energies=         -461.202167

                     E (Thermal)             CV                S
                      KCal/Mol        Cal/Mol-Kelvin    Cal/Mol-Kelvin
 Total                  109.907             37.071             96.801
 Electronic               0.000              0.000              0.000
 Translational            0.889              2.981             40.680
 Rotational               0.889              2.981             29.413
 Vibrational            108.130             31.109             26.709
 Vibration     1          0.599              1.967              4.061
 Vibration     2          0.606              1.943              3.319
 Vibration     3          0.609              1.933              3.112
 Vibration     4          0.622              1.890              2.532
 Vibration     5          0.643              1.824              2.035
 Vibration     6          0.661              1.767              1.750
 Vibration     7          0.689              1.685              1.450
 Vibration     8          0.698              1.657              1.368
 Vibration     9          0.721              1.592              1.203
 Vibration    10          0.754              1.501              1.017
 Vibration    11          0.844              1.276              0.688
 Vibration    12          0.868              1.221              0.626
 Vibration    13          0.912              1.126              0.531
 Vibration    14          0.924              1.100              0.508
 Vibration    15          0.943              1.062              0.474

 Optimization completed.
    -- Stationary point found.

 1\1\GINC-NODE372\Freq\RB3LYP\6-31G(d)\C8H10O2\VSC10255\08-Dec-2020\0\\
 #N Geom=AllCheck Guess=TCheck SCRF=Check GenChk RB3LYP/6-31G(d) Freq\\
 CID_87455_JID_989_neutraal\\0,1\C,2.4955606908,1.2370305227,0.03660350
 9\C,1.1810233285,0.5107746075,-0.0921103465\C,-0.013955487,1.221060594
 2,0.0787477495\C,-1.2513338213,0.5630618676,-0.0211305356\C,-1.2920675
 151,-0.8021344253,-0.3090577963\C,-0.1043606592,-1.5116571883,-0.48065
 68808\C,1.1218014464,-0.8607865996,-0.3671412374\O,-2.3831866119,1.310
 0360905,0.1796088317\O,0.0563938327,2.5558074751,0.4055135869\C,-0.440

 Normal termination of Gaussian 16 at Tue Dec  8 13:31:22 2020.

 ----------------------------------------------------------------------
 # B3LYP/6-311++G(d,p) empiricaldispersion=gd3bj scf=xqc pop=npa geom=c
 heck
 ----------------------------------------------------------------------

 ----------------------------------
 CID_87455_JID_989_Energie_neutraal
 ----------------------------------
 Structure from the checkpoint file:  "JID_989.chk"
 Charge =  0 Multiplicity = 1

 SCF Done:  E(RB3LYP) =  -461.469441899     A.U. after   14 cycles
 Normal termination of Gaussian 16 at Tue Dec  8 13:34:09 2020.

 ----------------------------------------------------------------------
 # B3LYP/6-311++G(d,p) empiricaldispersion=gd3bj scf=xqc pop=npa geom=c
 heck
 ----------------------------------------------------------------------

 --------------------------------
 CID_87455_JID_989_Energie_kation
 --------------------------------
 Structure from the checkpoint file:  "JID_989.chk"
 Charge =  1 Multiplicity = 2

 SCF Done:  E(UB3LYP) =  -461.170323790     A.U. after   22 cycles
 Normal termination of Gaussian 16 at Tue Dec  8 13:40:14 2020.
 Gaussian 16:  ES64L-G16RevA.03 25-Dec-2016

 -------------------------------
 CID_87455_JID_989_Energie_anion
 -------------------------------
 Structure from the checkpoint file:  "JID_989.chk"
 Charge = -1 Multiplicity = 2

                         Standard orientation:
 ---------------------------------------------------------------------
 Center     Atomic      Atomic             Coordinates (Angstroms)
 Number     Number       Type             X           Y           Z
 ---------------------------------------------------------------------
      1          6           0       -0.274423    2.576176   -0.155747
      2          6           0       -0.658175    1.121598   -0.061079
      3          6           0        0.333947    0.141332   -0.189320
      4          6           0       -0.001367   -1.221318   -0.120090
      5          6           0       -1.327133   -1.601488    0.094705
      6          6           0       -2.316755   -0.628086    0.223754
      7          6           0       -1.984840    0.722064    0.140568
      8          8           0        1.012184   -2.131056   -0.276447
      9          8           0        1.624965    0.543031   -0.444634
     10          6           0        2.563637    0.274544    0.598448
     11          1           0        0.466253    2.845088    0.605946
     12          1           0        0.180048    2.803284   -1.126291
     13          1           0       -1.150256    3.218276   -0.024280
     14          1           0       -1.579151   -2.659056    0.150886
     15          1           0       -3.347571   -0.928980    0.385823
     16          1           0       -2.756914    1.480031    0.238502
     17          1           0        0.633881   -3.021715   -0.216664
     18          1           0        2.243693    0.740061    1.540335
     19          1           0        2.695123   -0.801024    0.749303
     20          1           0        3.508365    0.719303    0.277654
 ---------------------------------------------------------------------

 SCF Done:  E(UB3LYP) =  -461.454485291     A.U. after   33 cycles
 SCF Done:  E(UB3LYP) =  -461.454485291     a.u. after    1 cycles

 The electronic state is 2-A.
 Alpha  occ. eigenvalues --  -19.03989 -19.03214 -10.12542 -10.11346 -10.10822
 Alpha  occ. eigenvalues --  -10.07578 -10.06631 -10.06262 -10.06198 -10.06023
 Alpha  occ. eigenvalues --   -0.95903  -0.93807  -0.74636  -0.66638  -0.63895
 Alpha  occ. eigenvalues --   -0.59099  -0.57344  -0.50858  -0.48606  -0.42138
 Alpha  occ. eigenvalues --   -0.40812  -0.38823  -0.35866  -0.35549  -0.32823
 Alpha  occ. eigenvalues --   -0.31723  -0.31075  -0.30090  -0.29163  -0.27358
 Alpha  occ. eigenvalues --   -0.26153  -0.25514  -0.23355  -0.22082  -0.17692
 Alpha  occ. eigenvalues --   -0.13186  -0.11478   0.04825
 Alpha virt. eigenvalues --    0.06837   0.07471   0.08611   0.09686   0.09783
 Alpha virt. eigenvalues --    0.10383   0.10744   0.11587   0.12115   0.12575
 Alpha virt. eigenvalues --    0.14429   0.14879   0.15723   0.16740   0.17077

  Beta  occ. eigenvalues --  -19.03925 -19.03213 -10.12541 -10.11336 -10.10793
  Beta  occ. eigenvalues --  -10.07576 -10.06619 -10.06238 -10.06161 -10.06013
  Beta  occ. eigenvalues --   -0.95837  -0.93743  -0.74604  -0.66600  -0.63850
  Beta  occ. eigenvalues --   -0.59049  -0.57286  -0.50767  -0.48572  -0.42041
  Beta  occ. eigenvalues --   -0.40758  -0.38788  -0.35839  -0.35488  -0.32795
  Beta  occ. eigenvalues --   -0.31655  -0.31047  -0.30043  -0.29121  -0.27320
  Beta  occ. eigenvalues --   -0.26117  -0.25472  -0.23316  -0.22046  -0.17676
  Beta  occ. eigenvalues --   -0.13156  -0.11448
  Beta virt. eigenvalues --    0.07107   0.07989   0.08521   0.09449   0.09917
  Beta virt. eigenvalues --    0.10400   0.10539   0.10903   0.12104   0.12528
  Beta virt. eigenvalues --    0.13117   0.14588   0.15369   0.15765   0.16862

 Mulliken charges and spin densities:
               1          2
     1  C    2.286579  -2.721221
     2  C   -1.501566   2.646557
     3  C   -0.652018   0.298448
     4  C    1.122214  -1.458248
     5  C    1.117055  -0.905852
     6  C    0.763958  -1.053420
     7  C   -1.244306   0.369815
     8  O   -0.317492   0.073812
     9  O   -0.193574   0.026343
    10  C    0.502469  -0.792013
    11  H   -0.002532   0.155950
    12  H    0.104750   0.064972
    13  H   -0.507798   0.659969
    14  H   -1.184887   1.343774
    15  H   -0.197047   0.360685
    16  H   -0.218431   0.331406
    17  H   -0.517355   0.811944
    18  H   -0.118379   0.236867
    19  H   -0.121587   0.294154
    20  H   -0.120056   0.256060
 Sum of Mulliken charges =  -1.00000   1.00000

 Dipole moment (field-independent basis, Debye):
    X=              0.9112    Y=              4.8811    Z=             -0.2452  Tot=              4.9714
 Quadrupole moment (field-independent basis, Debye-Ang):
   XX=            -97.0256   YY=           -125.0461   ZZ=            -83.0178
   XY=              0.2714   XZ=              1.4043   YZ=             -1.1232

 Summary of Natural Population Analysis:

                                       Natural Population
                Natural  -----------------------------------------------
    Atom  No    Charge         Core      Valence    Rydberg      Total
 -----------------------------------------------------------------------
      C    1   -0.29210      0.99964     2.28594    0.00652     3.29210
      C    2   -0.02646      0.99949     2.01659    0.01039     3.02646
      C    3    0.12891      0.99929     1.85694    0.01486     2.87109
      C    4    0.14454      0.99935     1.84161    0.01450     2.85546
      C    5   -0.13483      0.99953     2.12440    0.01091     3.13483
      C    6   -0.09598      0.99957     2.08652    0.00989     3.09598
      C    7   -0.11543      0.99952     2.10630    0.00961     3.11543
      O    8   -0.34230      0.99988     3.33410    0.00833     4.34230
      O    9   -0.28771      0.99986     3.27850    0.00934     4.28771
      C   10   -0.09622      0.99959     2.08876    0.00787     3.09622
      H   11    0.10511      0.00000     0.39358    0.00131     0.39489
      H   12    0.10591      0.00000     0.39298    0.00110     0.39409
      H   13    0.09997      0.00000     0.39888    0.00115     0.40003
      H   14    0.10658      0.00000     0.38844    0.00498     0.39342
      H   15    0.09969      0.00000     0.39928    0.00102     0.40031
      H   16    0.09831      0.00000     0.40052    0.00116     0.40169
      H   17    0.24467      0.00000     0.23149    0.02384     0.25533
      H   18    0.07869      0.00000     0.41955    0.00176     0.42131
      H   19    0.09308      0.00000     0.40485    0.00207     0.40692
      H   20    0.08555      0.00000     0.41303    0.00141     0.41445
 =======================================================================
   * Total *   -0.00000      9.99571    26.86225    0.14204    37.00000

 Normal termination of Gaussian 16 at Tue Dec  8 13:47:24 2020.
