 Gaussian 16, Revision A.03,

 -----------------------------------------------------------
 # opt freq B3LYP/6-31G(d) empiricaldispersion=gd3bj scf=xqc
 -----------------------------------------------------------

 ------------------------------
 CID_47014823_JID_5885_neutraal
 ------------------------------
 Symbolic Z-matrix:
 Charge =  0 Multiplicity = 1

 SCF Done:  E(RB3LYP) =  -689.952383605     A.U. after   14 cycles
 SCF Done:  E(RB3LYP) =  -689.955991632     A.U. after   12 cycles
 SCF Done:  E(RB3LYP) =  -689.956509637     A.U. after   11 cycles
 SCF Done:  E(RB3LYP) =  -689.956572567     A.U. after   11 cycles
 SCF Done:  E(RB3LYP) =  -689.956661512     A.U. after   10 cycles
 SCF Done:  E(RB3LYP) =  -689.956720178     A.U. after    9 cycles
 SCF Done:  E(RB3LYP) =  -689.956884817     A.U. after   11 cycles
 SCF Done:  E(RB3LYP) =  -689.956935993     A.U. after   11 cycles
 SCF Done:  E(RB3LYP) =  -689.957095554     A.U. after   11 cycles
 SCF Done:  E(RB3LYP) =  -689.957480827     A.U. after   10 cycles
 SCF Done:  E(RB3LYP) =  -689.958033856     A.U. after   10 cycles
 SCF Done:  E(RB3LYP) =  -689.958050230     A.U. after    9 cycles
 SCF Done:  E(RB3LYP) =  -689.958050745     A.U. after    9 cycles
 SCF Done:  E(RB3LYP) =  -689.958050885     A.U. after    8 cycles
 SCF Done:  E(RB3LYP) =  -689.958050941     A.U. after    7 cycles
 Optimization completed.
    -- Stationary point found.
 Normal termination of Gaussian 16 at Thu Dec 10 18:07:47 2020.

 --------------------------------------------------------------------
 #N Geom=AllCheck Guess=TCheck SCRF=Check GenChk RB3LYP/6-31G(d) Freq
 --------------------------------------------------------------------

 Structure from the checkpoint file:  "JID_5885.chk"
 ------------------------------
 CID_47014823_JID_5885_neutraal
 ------------------------------
 Charge =  0 Multiplicity = 1

 SCF Done:  E(RB3LYP) =  -689.958050941     A.U. after    1 cycles

  Exact polarizability: 156.536   5.845 128.257 -11.373   2.231 103.284
 Approx polarizability: 190.956   8.366 204.798 -19.476   4.163 162.446

                      1                      2                      3
                      A                      A                      A
 Frequencies --     26.4484                50.1281                65.5406
 Red. masses --      4.0230                 3.9123                 4.3999
 Frc consts  --      0.0017                 0.0058                 0.0111
 IR Inten    --      2.2731                 0.5067                 2.4578

                      4                      5                      6
                      A                      A                      A
 Frequencies --    115.2593               117.9838               130.7943
 Red. masses --      3.5640                 2.6063                 1.0957
 Frc consts  --      0.0279                 0.0214                 0.0110
 IR Inten    --      0.4685                 0.2157                 0.0963

                      7                      8                      9
                      A                      A                      A
 Frequencies --    169.3586               195.5802               207.2735
 Red. masses --      2.4138                 3.8795                 1.3063
 Frc consts  --      0.0408                 0.0874                 0.0331
 IR Inten    --      2.1476                 0.8511                 0.8095

                     10                     11                     12
                      A                      A                      A
 Frequencies --    227.5173               302.7537               325.9624
 Red. masses --      2.1552                 1.1744                 4.3478
 Frc consts  --      0.0657                 0.0634                 0.2722
 IR Inten    --      0.8276                 1.6071                 1.1776

                     13                     14                     15
                      A                      A                      A
 Frequencies --    332.1398               350.2502               367.2861
 Red. masses --      2.5895                 2.0665                 3.3629
 Frc consts  --      0.1683                 0.1494                 0.2673
 IR Inten    --      3.1683                 0.0203                 1.2168

                     16                     17                     18
                      A                      A                      A
 Frequencies --    376.1780               414.0159               418.3508
 Red. masses --      3.8520                 2.1454                 1.8758
 Frc consts  --      0.3212                 0.2167                 0.1934
 IR Inten    --     11.5440                 4.7198                 0.2878

                     19                     20                     21
                      A                      A                      A
 Frequencies --    483.7088               535.5898               605.7790
 Red. masses --      2.9232                 4.3710                 5.1369
 Frc consts  --      0.4030                 0.7388                 1.1107
 IR Inten    --      3.1615                12.1496                 0.9623

                     22                     23                     24
                      A                      A                      A
 Frequencies --    613.0952               658.2072               700.9629
 Red. masses --      3.1463                 4.7621                 4.1034
 Frc consts  --      0.6968                 1.2155                 1.1879
 IR Inten    --      0.0153                 0.4872                 0.8814

                     25                     26                     27
                      A                      A                      A
 Frequencies --    736.7693               766.8439               795.6794
 Red. masses --      3.0266                 4.2282                 1.8933
 Frc consts  --      0.9680                 1.4649                 0.7062
 IR Inten    --     10.0423                13.1328                 5.2893

                     28                     29                     30
                      A                      A                      A
 Frequencies --    822.1646               836.8236               873.8115
 Red. masses --      2.1027                 2.6450                 2.4318
 Frc consts  --      0.8374                 1.0913                 1.0940
 IR Inten    --     21.7665                 1.4899                18.7066

                     31                     32                     33
                      A                      A                      A
 Frequencies --    916.1755               938.3068               940.7947
 Red. masses --      3.4959                 1.7000                 2.3650
 Frc consts  --      1.7289                 0.8818                 1.2333
 IR Inten    --     11.9932                 5.7929                 6.8813

                     34                     35                     36
                      A                      A                      A
 Frequencies --    960.3574               966.3486               992.0207
 Red. masses --      2.4610                 1.8783                 1.9539
 Frc consts  --      1.3373                 1.0334                 1.1329
 IR Inten    --      3.7284                 0.8440                 1.2894

                     37                     38                     39
                      A                      A                      A
 Frequencies --   1000.4080              1028.5314              1041.8672
 Red. masses --      1.7797                 4.4030                 1.9046
 Frc consts  --      1.0495                 2.7443                 1.2181
 IR Inten    --      4.9990                29.9704                30.6502

                     40                     41                     42
                      A                      A                      A
 Frequencies --   1054.2996              1078.7215              1091.5021
 Red. masses --      2.8669                 1.5030                 2.0196
 Frc consts  --      1.8776                 1.0305                 1.4176
 IR Inten    --      5.2599                 2.1790                 8.5316

                     43                     44                     45
                      A                      A                      A
 Frequencies --   1126.8899              1133.1188              1157.0827
 Red. masses --      2.0473                 1.9168                 1.7049
 Frc consts  --      1.5317                 1.4500                 1.3449
 IR Inten    --     67.5045                 3.1122                 0.5993

                     46                     47                     48
                      A                      A                      A
 Frequencies --   1159.7553              1166.7946              1190.1597
 Red. masses --      2.0245                 2.2838                 2.8695
 Frc consts  --      1.6044                 1.8319                 2.3948
 IR Inten    --     10.4411                 1.5885               101.1863

                     49                     50                     51
                      A                      A                      A
 Frequencies --   1206.8897              1270.0300              1290.5855
 Red. masses --      2.2825                 1.6522                 2.1890
 Frc consts  --      1.9588                 1.5702                 2.1482
 IR Inten    --     12.0784                32.8897                 9.5729

                     52                     53                     54
                      A                      A                      A
 Frequencies --   1346.1492              1351.5911              1382.4477
 Red. masses --      1.6141                 1.3396                 1.3339
 Frc consts  --      1.7233                 1.4418                 1.5020
 IR Inten    --      5.3039                 7.8162                33.7438

                     55                     56                     57
                      A                      A                      A
 Frequencies --   1385.2720              1389.3886              1396.0516
 Red. masses --      1.4335                 1.4352                 1.2328
 Frc consts  --      1.6208                 1.6323                 1.4156
 IR Inten    --     27.7527                 3.6078                 0.7950

                     58                     59                     60
                      A                      A                      A
 Frequencies --   1404.5079              1416.1679              1429.4518
 Red. masses --      1.3914                 1.2837                 1.2946
 Frc consts  --      1.6172                 1.5169                 1.5585
 IR Inten    --      2.1536                 3.6355                16.0668

                     61                     62                     63
                      A                      A                      A
 Frequencies --   1432.1448              1433.1029              1444.9305
 Red. masses --      1.3104                 1.3243                 1.3717
 Frc consts  --      1.5835                 1.6025                 1.6873
 IR Inten    --     20.9288                 3.7119                10.7232

                     64                     65                     66
                      A                      A                      A
 Frequencies --   1471.3032              1490.3788              1502.7914
 Red. masses --      2.8091                 1.0920                 1.9012
 Frc consts  --      3.5829                 1.4291                 2.5297
 IR Inten    --     48.0003                 8.9537                 7.2033

                     67                     68                     69
                      A                      A                      A
 Frequencies --   1509.3615              1512.0600              1516.9938
 Red. masses --      1.0598                 1.0437                 1.0732
 Frc consts  --      1.4225                 1.4060                 1.4552
 IR Inten    --      3.1511                 7.4439                 2.1842

                     70                     71                     72
                      A                      A                      A
 Frequencies --   1523.4702              1524.3374              1534.6501
 Red. masses --      1.0588                 1.0596                 1.0946
 Frc consts  --      1.4478                 1.4507                 1.5189
 IR Inten    --      6.1698                 6.0020                14.6661

                     73                     74                     75
                      A                      A                      A
 Frequencies --   1543.2266              1548.4621              1653.9163
 Red. masses --      2.3341                 1.0570                 6.4823
 Frc consts  --      3.2751                 1.4932                10.4473
 IR Inten    --      3.4124                 1.2897                33.4352

                     76                     77                     78
                      A                      A                      A
 Frequencies --   2964.3582              2980.2001              3054.0752
 Red. masses --      1.0705                 1.0707                 1.0507
 Frc consts  --      5.5424                 5.6031                 5.7742
 IR Inten    --     35.7279                47.6539                 7.4994

                     79                     80                     81
                      A                      A                      A
 Frequencies --   3056.6926              3058.1349              3061.5630
 Red. masses --      1.0482                 1.0373                 1.0754
 Frc consts  --      5.7704                 5.7158                 5.9390
 IR Inten    --     29.8480                18.4416                46.4154

                     82                     83                     84
                      A                      A                      A
 Frequencies --   3062.8603              3066.8380              3075.1541
 Red. masses --      1.0595                 1.0801                 1.0881
 Frc consts  --      5.8561                 5.9856                 6.0625
 IR Inten    --     21.7007                36.8992                34.0431

                     85                     86                     87
                      A                      A                      A
 Frequencies --   3093.2559              3111.3840              3113.5895
 Red. masses --      1.0908                 1.1061                 1.1015
 Frc consts  --      6.1494                 6.3087                 6.2915
 IR Inten    --     20.1601                13.1719                13.9929

                     88                     89                     90
                      A                      A                      A
 Frequencies --   3122.9548              3127.6799              3151.1813
 Red. masses --      1.0981                 1.0965                 1.1033
 Frc consts  --      6.3102                 6.3196                 6.4546
 IR Inten    --     50.8375                18.8628                 9.8150

                     91                     92                     93
                      A                      A                      A
 Frequencies --   3153.9130              3162.8724              3281.8348
 Red. masses --      1.1011                 1.1008                 1.0982
 Frc consts  --      6.4533                 6.4882                 6.9689
 IR Inten    --      7.2354                32.2026                 0.8169

 - Thermochemistry -
 -------------------
 Temperature   298.150 Kelvin.  Pressure   1.00000 Atm.
 Atom     1 has atomic number  6 and mass  12.00000

 Molecular mass:   210.13683 amu.
 Principal axes and moments of inertia in atomic units:
                           1         2         3
     Eigenvalues --  1364.808635841.399136225.52530
           X            0.99982   0.01434  -0.01228
           Y           -0.01421   0.99984   0.01070
           Z            0.01243  -0.01052   0.99987
 This molecule is an asymmetric top.
 Rotational symmetry number  1.
 Warning -- assumption of classical behavior for rotation
           may cause significant error
 Rotational temperatures (Kelvin)      0.06346     0.01483     0.01391
 Rotational constants (GHZ):           1.32234     0.30896     0.28989
 Zero-point vibrational energy     754685.7 (Joules/Mol)
                                  180.37421 (Kcal/Mol)
 Warning -- explicit consideration of  22 degrees of freedom as
           vibrations may cause significant error
 Vibrational temperatures:     38.05    72.12    94.30   165.83   169.75
          (Kelvin)            188.18   243.67   281.40   298.22   327.35
                              435.59   468.99   477.88   503.93   528.44
                              541.24   595.68   601.91   695.95   770.59
                              871.58   882.11   947.01  1008.53  1060.05
                             1103.32  1144.81  1182.91  1204.00  1257.22
                             1318.17  1350.01  1353.59  1381.74  1390.36
                             1427.30  1439.36  1479.83  1499.01  1516.90
                             1552.04  1570.43  1621.34  1630.31  1664.78
                             1668.63  1678.76  1712.37  1736.45  1827.29
                             1856.86  1936.81  1944.64  1989.03  1993.10
                             1999.02  2008.61  2020.77  2037.55  2056.66
                             2060.54  2061.92  2078.93  2116.88  2144.32
                             2162.18  2171.63  2175.52  2182.62  2191.93
                             2193.18  2208.02  2220.36  2227.89  2379.62
                             4265.05  4287.84  4394.13  4397.90  4399.97
                             4404.91  4406.77  4412.50  4424.46  4450.51
                             4476.59  4479.76  4493.24  4500.03  4533.85
                             4537.78  4550.67  4721.83

 Zero-point correction=                           0.287445 (Hartree/Particle)
 Thermal correction to Energy=                    0.302151
 Thermal correction to Enthalpy=                  0.303095
 Thermal correction to Gibbs Free Energy=         0.245038
 Sum of electronic and zero-point Energies=           -689.670606
 Sum of electronic and thermal Energies=              -689.655900
 Sum of electronic and thermal Enthalpies=            -689.654956
 Sum of electronic and thermal Free Energies=         -689.713013

                     E (Thermal)             CV                S
                      KCal/Mol        Cal/Mol-Kelvin    Cal/Mol-Kelvin
 Total                  189.603             56.137            122.193
 Electronic               0.000              0.000              0.000
 Translational            0.889              2.981             41.932
 Rotational               0.889              2.981             32.273
 Vibrational            187.825             50.175             47.988
 Vibration     1          0.593              1.985              6.079
 Vibration     2          0.595              1.978              4.812
 Vibration     3          0.597              1.971              4.283
 Vibration     4          0.608              1.937              3.178
 Vibration     5          0.608              1.934              3.133
 Vibration     6          0.612              1.923              2.934
 Vibration     7          0.625              1.880              2.443
 Vibration     8          0.636              1.846              2.174
 Vibration     9          0.641              1.829              2.068
 Vibration    10          0.651              1.799              1.898
 Vibration    11          0.694              1.668              1.402
 Vibration    12          0.710              1.624              1.280
 Vibration    13          0.714              1.611              1.250
 Vibration    14          0.727              1.575              1.165
 Vibration    15          0.740              1.540              1.091
 Vibration    16          0.747              1.521              1.054
 Vibration    17          0.778              1.440              0.913
 Vibration    18          0.781              1.430              0.898
 Vibration    19          0.840              1.286              0.700
 Vibration    20          0.891              1.171              0.575
 Vibration    21          0.964              1.020              0.440
 Vibration    22          0.972              1.004              0.428

 Optimization completed.
    -- Stationary point found.
 Normal termination of Gaussian 16 at Thu Dec 10 18:19:29 2020.

 ----------------------------------------------------------------------
 # B3LYP/6-311++G(d,p) empiricaldispersion=gd3bj scf=xqc pop=npa geom=c
 heck
 ----------------------------------------------------------------------

 --------------------------------------
 CID_47014823_JID_5885_Energie_neutraal
 --------------------------------------
 Structure from the checkpoint file:  "JID_5885.chk"
 Charge =  0 Multiplicity = 1

 SCF Done:  E(RB3LYP) =  -690.146206720     A.U. after   15 cycles
 Normal termination of Gaussian 16 at Thu Dec 10 18:25:12 2020.

 ----------------------------------------------------------------------
 # B3LYP/6-311++G(d,p) empiricaldispersion=gd3bj scf=xqc pop=npa geom=c
 heck
 ----------------------------------------------------------------------

 ------------------------------------
 CID_47014823_JID_5885_Energie_kation
 ------------------------------------
 Structure from the checkpoint file:  "JID_5885.chk"
 Charge =  1 Multiplicity = 2

 SCF Done:  E(UB3LYP) =  -689.846531526     A.U. after   24 cycles
 Normal termination of Gaussian 16 at Thu Dec 10 18:36:43 2020.
 Gaussian 16:  ES64L-G16RevA.03 25-Dec-2016

 ----------------------------------------------------------------------
 # B3LYP/6-311++G(d,p) empiricaldispersion=gd3bj scf=xqc pop=npa geom=c
 heck
 ----------------------------------------------------------------------

 -----------------------------------
 CID_47014823_JID_5885_Energie_anion
 -----------------------------------
 Structure from the checkpoint file:  "JID_5885.chk"
 Charge = -1 Multiplicity = 2

                         Standard orientation:
 ---------------------------------------------------------------------
 Center     Atomic      Atomic             Coordinates (Angstroms)
 Number     Number       Type             X           Y           Z
 ---------------------------------------------------------------------
      1          6           0       -3.394190    1.645679    0.516455
      2          6           0       -2.322104    1.359426   -0.539390
      3          6           0       -0.923516    1.216956    0.071923
      4          7           0       -0.815528   -0.075989    0.742317
      5          6           0       -0.966598   -1.143324   -0.246950
      6          6           0       -2.367394   -1.069571   -0.862380
      7          8           0       -2.630781    0.241286   -1.376370
      8          6           0       -3.453104   -1.580726    0.088934
      9          6           0        0.376578   -0.209381    1.578711
     10          6           0        1.686983   -0.156239    0.844913
     11          6           0        2.529377    0.853819    0.489034
     12          6           0        3.547698    0.213601   -0.280933
     13          7           0        3.332125   -1.080409   -0.379995
     14          8           0        2.148475   -1.320824    0.333450
     15          6           0        4.746030    0.826415   -0.934231
     16          1           0       -4.390320    1.548488    0.075183
     17          1           0       -3.281606    2.670647    0.890210
     18          1           0       -3.314082    0.965678    1.367404
     19          1           0       -2.299844    2.202002   -1.240440
     20          1           0       -0.161799    1.328491   -0.720538
     21          1           0       -0.762212    2.015764    0.805795
     22          1           0       -0.828133   -2.111571    0.246120
     23          1           0       -0.209175   -1.065615   -1.045887
     24          1           0       -2.375218   -1.698181   -1.760157
     25          1           0       -4.443755   -1.333077   -0.303344
     26          1           0       -3.381100   -2.671218    0.179361
     27          1           0       -3.348388   -1.152447    1.088301
     28          1           0        0.358985    0.595040    2.321855
     29          1           0        0.311671   -1.162736    2.114466
     30          1           0        2.446405    1.901369    0.738087
     31          1           0        5.387547    1.316350   -0.193136
     32          1           0        5.328250    0.057009   -1.446765
     33          1           0        4.446490    1.585168   -1.665939
 ---------------------------------------------------------------------

 SCF Done:  E(UB3LYP) =  -690.134700490     A.U. after   33 cycles
 SCF Done:  E(UB3LYP) =  -690.134700490     a.u. after    1 cycles

 The electronic state is 2-A.
 Alpha  occ. eigenvalues --  -19.10305 -19.02413 -14.25422 -14.21815 -10.13707
 Alpha  occ. eigenvalues --  -10.12958 -10.12449 -10.11637 -10.11512 -10.09862
 Alpha  occ. eigenvalues --  -10.09376 -10.08299 -10.07449 -10.06661 -10.05923
 Alpha  occ. eigenvalues --   -1.03847  -0.93912  -0.83754  -0.77726  -0.70510
 Alpha  occ. eigenvalues --   -0.70262  -0.65302  -0.63055  -0.61860  -0.59706
 Alpha  occ. eigenvalues --   -0.54261  -0.53602  -0.50610  -0.46267  -0.43412
 Alpha  occ. eigenvalues --   -0.42362  -0.40558  -0.39112  -0.37669  -0.37430
 Alpha  occ. eigenvalues --   -0.35771  -0.35063  -0.34109  -0.33507  -0.33043
 Alpha  occ. eigenvalues --   -0.32170  -0.31663  -0.30193  -0.29636  -0.29330
 Alpha  occ. eigenvalues --   -0.28445  -0.28391  -0.27734  -0.27322  -0.24942
 Alpha  occ. eigenvalues --   -0.23833  -0.21006  -0.20149  -0.19073  -0.16876
 Alpha  occ. eigenvalues --   -0.16294  -0.13048   0.04269
 Alpha virt. eigenvalues --    0.06278   0.06938   0.07388   0.07840   0.08306
 Alpha virt. eigenvalues --    0.09141   0.09552   0.09880   0.10070   0.10779
 Alpha virt. eigenvalues --    0.11233   0.11731   0.12280   0.12547   0.12847

  Beta  occ. eigenvalues --  -19.10267 -19.02411 -14.25385 -14.21812 -10.13663
  Beta  occ. eigenvalues --  -10.12954 -10.12440 -10.11637 -10.11493 -10.09852
  Beta  occ. eigenvalues --  -10.09349 -10.08267 -10.07419 -10.06644 -10.05898
  Beta  occ. eigenvalues --   -1.03783  -0.93901  -0.83734  -0.77673  -0.70448
  Beta  occ. eigenvalues --   -0.70226  -0.65269  -0.63002  -0.61815  -0.59666
  Beta  occ. eigenvalues --   -0.54208  -0.53567  -0.50559  -0.46199  -0.43363
  Beta  occ. eigenvalues --   -0.42305  -0.40492  -0.39094  -0.37627  -0.37305
  Beta  occ. eigenvalues --   -0.35740  -0.35008  -0.34076  -0.33471  -0.32990
  Beta  occ. eigenvalues --   -0.32121  -0.31595  -0.30161  -0.29608  -0.29301
  Beta  occ. eigenvalues --   -0.28416  -0.28353  -0.27701  -0.27288  -0.24919
  Beta  occ. eigenvalues --   -0.23806  -0.20952  -0.20120  -0.18934  -0.16850
  Beta  occ. eigenvalues --   -0.16106  -0.13033
  Beta virt. eigenvalues --    0.06359   0.06942   0.07628   0.07885   0.08230
  Beta virt. eigenvalues --    0.08641   0.09730   0.09917   0.10351   0.10431
  Beta virt. eigenvalues --    0.11040   0.11534   0.11852   0.12619   0.12801

 Mulliken charges and spin densities:
               1          2
     1  C    0.543233  -1.038964
     2  C   -1.035375   0.907228
     3  C    0.612841  -1.076342
     4  N    0.158263   0.079487
     5  C   -0.279403  -0.210651
     6  C   -0.288342   0.187845
     7  O   -0.079390  -0.022309
     8  C    0.209496  -0.703643
     9  C   -0.709910  -0.133347
    10  C    0.019764   0.026809
    11  C   -0.651216   0.827792
    12  C    0.346693  -0.035978
    13  N   -0.507458   0.174044
    14  O    0.241179  -0.038731
    15  C    2.518655  -3.065663
    16  H    0.025929   0.119580
    17  H   -0.214852   0.351714
    18  H   -0.048073   0.199296
    19  H   -0.366379   0.563028
    20  H    0.337740  -0.155142
    21  H   -0.273658   0.442124
    22  H    0.135172   0.039564
    23  H   -0.017988   0.203950
    24  H    0.072747   0.112218
    25  H    0.019041   0.129623
    26  H    0.034427   0.086316
    27  H    0.041385   0.115448
    28  H   -0.228998   0.436029
    29  H   -0.213023   0.407730
    30  H   -1.041254   1.241264
    31  H   -0.224810   0.383981
    32  H    0.002869   0.144290
    33  H   -0.139306   0.301411
 Sum of Mulliken charges =  -1.00000   1.00000

 Dipole moment (field-independent basis, Debye):
    X=             -2.6219    Y=             -4.6933    Z=             -1.3946  Tot=              5.5539
 Quadrupole moment (field-independent basis, Debye-Ang):
   XX=           -166.4409   YY=           -140.6163   ZZ=           -127.1910
   XY=             -1.1144   XZ=              0.2117   YZ=             -4.9236

 Summary of Natural Population Analysis:

                                       Natural Population
                Natural  -----------------------------------------------
    Atom  No    Charge         Core      Valence    Rydberg      Total
 -----------------------------------------------------------------------
      C    1   -0.29944      0.99964     2.29415    0.00565     3.29944
      C    2    0.06267      0.99954     1.92159    0.01619     2.93733
      C    3   -0.09997      0.99958     2.08766    0.01273     3.09997
      N    4   -0.28006      0.99972     2.76662    0.01372     3.78006
      C    5   -0.09771      0.99959     2.08828    0.00985     3.09771
      C    6    0.06404      0.99954     1.92186    0.01455     2.93596
      O    7   -0.30762      0.99988     3.29832    0.00943     4.30762
      C    8   -0.29917      0.99964     2.29477    0.00476     3.29917
      C    9   -0.10556      0.99956     2.09290    0.01310     3.10556
      C   10    0.17305      0.99949     1.81223    0.01523     2.82695
      C   11   -0.16719      0.99943     2.15864    0.00912     3.16719
      C   12    0.08249      0.99962     1.90283    0.01506     2.91751
      N   13   -0.08730      0.99967     2.57587    0.01177     3.58730
      O   14   -0.16974      0.99985     3.16133    0.00856     4.16974
      C   15   -0.29976      0.99962     2.29460    0.00554     3.29976
      H   16    0.10070      0.00000     0.39833    0.00096     0.39930
      H   17    0.10196      0.00000     0.39679    0.00125     0.39804
      H   18    0.10121      0.00000     0.39717    0.00162     0.39879
      H   19    0.09082      0.00000     0.40780    0.00137     0.40918
      H   20    0.08938      0.00000     0.40873    0.00189     0.41062
      H   21    0.10448      0.00000     0.39284    0.00268     0.39552
      H   22    0.10057      0.00000     0.39814    0.00129     0.39943
      H   23    0.09117      0.00000     0.40719    0.00164     0.40883
      H   24    0.08855      0.00000     0.41031    0.00114     0.41145
      H   25    0.10178      0.00000     0.39711    0.00111     0.39822
      H   26    0.09711      0.00000     0.40178    0.00111     0.40289
      H   27    0.10307      0.00000     0.39538    0.00154     0.39693
      H   28    0.11026      0.00000     0.38804    0.00170     0.38974
      H   29    0.10543      0.00000     0.39317    0.00140     0.39457
      H   30    0.11900      0.00000     0.37823    0.00277     0.38100
      H   31    0.10852      0.00000     0.39035    0.00114     0.39148
      H   32    0.10838      0.00000     0.39051    0.00111     0.39162
      H   33    0.10888      0.00000     0.38987    0.00125     0.39112
 =======================================================================
   * Total *    0.00000     14.99437    41.81341    0.19222    57.00000

 Normal termination of Gaussian 16 at Thu Dec 10 18:52:10 2020.
