 Gaussian 16, Revision A.03,

 -----------------------------------------------------------
 # opt freq B3LYP/6-31G(d) empiricaldispersion=gd3bj scf=xqc
 -----------------------------------------------------------

 -------------------------------
 CID_115722557_JID_6406_neutraal
 -------------------------------
 Symbolic Z-matrix:
 Charge =  0 Multiplicity = 1

 SCF Done:  E(RB3LYP) =  -1075.76265886     A.U. after   13 cycles
 SCF Done:  E(RB3LYP) =  -1075.76780426     A.U. after   11 cycles
 SCF Done:  E(RB3LYP) =  -1075.76839976     A.U. after   11 cycles
 SCF Done:  E(RB3LYP) =  -1075.76998044     A.U. after   11 cycles
 SCF Done:  E(RB3LYP) =  -1075.77034532     A.U. after   11 cycles
 SCF Done:  E(RB3LYP) =  -1075.77082890     A.U. after   10 cycles
 SCF Done:  E(RB3LYP) =  -1075.77079892     A.U. after   11 cycles
 SCF Done:  E(RB3LYP) =  -1075.77087702     A.U. after   10 cycles
 SCF Done:  E(RB3LYP) =  -1075.77093339     A.U. after   10 cycles
 SCF Done:  E(RB3LYP) =  -1075.77094042     A.U. after    9 cycles
 SCF Done:  E(RB3LYP) =  -1075.77094148     A.U. after    9 cycles
 SCF Done:  E(RB3LYP) =  -1075.77094246     A.U. after    9 cycles
 SCF Done:  E(RB3LYP) =  -1075.77094513     A.U. after    8 cycles
 SCF Done:  E(RB3LYP) =  -1075.77094558     A.U. after    8 cycles
 SCF Done:  E(RB3LYP) =  -1075.77094575     A.U. after    7 cycles
 SCF Done:  E(RB3LYP) =  -1075.77094572     A.U. after    6 cycles
 Optimization completed.
    -- Stationary point found.
 Normal termination of Gaussian 16 at Thu Dec 10 22:43:49 2020.

 --------------------------------------------------------------------
 #N Geom=AllCheck Guess=TCheck SCRF=Check GenChk RB3LYP/6-31G(d) Freq
 --------------------------------------------------------------------

 Structure from the checkpoint file:  "JID_6406.chk"
 -------------------------------
 CID_115722557_JID_6406_neutraal
 -------------------------------
 Charge =  0 Multiplicity = 1

 SCF Done:  E(RB3LYP) =  -1075.77094572     A.U. after    1 cycles

  Exact polarizability: 175.366  -5.310 142.361   2.730   0.761 145.991
 Approx polarizability: 217.307 -12.142 206.952   5.940   0.799 226.554

                      1                      2                      3
                      A                      A                      A
 Frequencies --     22.6718                30.6821                44.9378
 Red. masses --      4.0969                 3.4863                 2.0388
 Frc consts  --      0.0012                 0.0019                 0.0024
 IR Inten    --      0.8129                 0.3012                 2.3406

                      4                      5                      6
                      A                      A                      A
 Frequencies --     57.3065                87.8848               119.0484
 Red. masses --      4.8183                 2.7981                 3.8682
 Frc consts  --      0.0093                 0.0127                 0.0323
 IR Inten    --      0.6870                 0.0476                 0.1773

                      7                      8                      9
                      A                      A                      A
 Frequencies --    133.9727               146.1251               161.2694
 Red. masses --      1.8671                 2.8156                 3.1571
 Frc consts  --      0.0197                 0.0354                 0.0484
 IR Inten    --      0.5824                 2.6989                 1.3522

                     10                     11                     12
                      A                      A                      A
 Frequencies --    178.5362               209.8221               226.6240
 Red. masses --      2.5077                 2.2108                 3.0412
 Frc consts  --      0.0471                 0.0573                 0.0920
 IR Inten    --      3.1374                 2.6745                 3.1634

                     13                     14                     15
                      A                      A                      A
 Frequencies --    231.5391               249.5486               261.8280
 Red. masses --      1.6835                 1.8369                 1.2643
 Frc consts  --      0.0532                 0.0674                 0.0511
 IR Inten    --      0.5218                 0.2440                 0.2630

                     16                     17                     18
                      A                      A                      A
 Frequencies --    269.3636               290.6614               308.4570
 Red. masses --      2.0560                 2.7959                 3.4591
 Frc consts  --      0.0879                 0.1392                 0.1939
 IR Inten    --      2.1208                 0.5883                 1.1381

                     19                     20                     21
                      A                      A                      A
 Frequencies --    322.7052               356.6616               378.1468
 Red. masses --      2.7743                 3.1162                 2.2809
 Frc consts  --      0.1702                 0.2336                 0.1922
 IR Inten    --      1.0405                 2.0249                 2.6089

                     22                     23                     24
                      A                      A                      A
 Frequencies --    417.5002               431.0285               481.2717
 Red. masses --      2.7658                 2.6114                 2.8542
 Frc consts  --      0.2840                 0.2859                 0.3895
 IR Inten    --      0.7499                 0.5041                 0.1010

                     25                     26                     27
                      A                      A                      A
 Frequencies --    502.9939               518.4591               548.7681
 Red. masses --      2.5514                 3.2066                 2.1573
 Frc consts  --      0.3803                 0.5078                 0.3828
 IR Inten    --      1.7642                 1.6513                 2.2047

                     28                     29                     30
                      A                      A                      A
 Frequencies --    606.0911               666.5582               671.3444
 Red. masses --      1.8890                 2.6273                 2.5712
 Frc consts  --      0.4088                 0.6878                 0.6828
 IR Inten    --      7.5530                 7.7553                21.6134

                     31                     32                     33
                      A                      A                      A
 Frequencies --    706.8295               722.0812               763.1612
 Red. masses --      2.4365                 4.1986                 1.5804
 Frc consts  --      0.7172                 1.2898                 0.5423
 IR Inten    --     16.8909                 3.2427               145.4928

                     34                     35                     36
                      A                      A                      A
 Frequencies --    820.4888               835.1806               859.4093
 Red. masses --      2.6110                 1.5548                 2.5751
 Frc consts  --      1.0356                 0.6390                 1.1206
 IR Inten    --     22.0674                 0.5221                13.9417

                     37                     38                     39
                      A                      A                      A
 Frequencies --    872.4384               895.8641               921.4859
 Red. masses --      2.4092                 1.6279                 2.1210
 Frc consts  --      1.0804                 0.7698                 1.0611
 IR Inten    --     13.5775                 6.8101                 2.9930

                     40                     41                     42
                      A                      A                      A
 Frequencies --    931.2695               966.9977               987.1208
 Red. masses --      2.1802                 1.9659                 1.3988
 Frc consts  --      1.1140                 1.0831                 0.8031
 IR Inten    --      2.3335                 2.0476                 4.8013

                     43                     44                     45
                      A                      A                      A
 Frequencies --    998.2529              1003.0596              1013.4027
 Red. masses --      1.2135                 1.6493                 1.3622
 Frc consts  --      0.7125                 0.9777                 0.8243
 IR Inten    --      7.9773                12.4897                 7.4638

                     46                     47                     48
                      A                      A                      A
 Frequencies --   1024.3912              1026.9334              1042.4376
 Red. masses --      1.5601                 2.1531                 2.2031
 Frc consts  --      0.9646                 1.3378                 1.4105
 IR Inten    --     29.7489                10.5688                 2.8752

                     49                     50                     51
                      A                      A                      A
 Frequencies --   1051.2014              1077.0118              1100.6968
 Red. masses --      1.5429                 2.8054                 2.1234
 Frc consts  --      1.0045                 1.9173                 1.5157
 IR Inten    --      3.7164                14.8977                12.2137

                     52                     53                     54
                      A                      A                      A
 Frequencies --   1106.3519              1131.2835              1134.8536
 Red. masses --      2.8784                 3.4416                 3.4954
 Frc consts  --      2.0758                 2.5951                 2.6524
 IR Inten    --     10.1382                62.7132                79.3242

                     55                     56                     57
                      A                      A                      A
 Frequencies --   1171.5382              1180.0153              1184.9083
 Red. masses --      2.4322                 2.3704                 3.0586
 Frc consts  --      1.9668                 1.9447                 2.5301
 IR Inten    --     60.6284                37.0248                32.1644

                     58                     59                     60
                      A                      A                      A
 Frequencies --   1207.8149              1214.1291              1244.4644
 Red. masses --      1.9954                 1.3149                 1.2243
 Frc consts  --      1.7151                 1.1420                 1.1171
 IR Inten    --      1.4769                 2.2385                19.3749

                     61                     62                     63
                      A                      A                      A
 Frequencies --   1277.0465              1283.2578              1299.2288
 Red. masses --      1.3065                 1.3563                 1.3744
 Frc consts  --      1.2553                 1.3159                 1.3669
 IR Inten    --     24.2875                 4.7241                 4.4134

                     64                     65                     66
                      A                      A                      A
 Frequencies --   1311.1640              1312.9656              1326.9210
 Red. masses --      1.2947                 1.2885                 1.2536
 Frc consts  --      1.3114                 1.3087                 1.3004
 IR Inten    --      0.2825                12.2712                 8.3357

                     67                     68                     69
                      A                      A                      A
 Frequencies --   1345.2587              1355.9634              1372.6453
 Red. masses --      1.2875                 1.2581                 1.3046
 Frc consts  --      1.3728                 1.3629                 1.4483
 IR Inten    --      2.7899                 0.7053                11.9823

                     70                     71                     72
                      A                      A                      A
 Frequencies --   1378.9660              1391.2704              1400.1617
 Red. masses --      1.3155                 1.1587                 1.2287
 Frc consts  --      1.4738                 1.3214                 1.4192
 IR Inten    --      5.5814                 0.3922                 7.4248

                     73                     74                     75
                      A                      A                      A
 Frequencies --   1406.1021              1413.8593              1426.5967
 Red. masses --      1.3292                 1.2826                 1.3321
 Frc consts  --      1.5483                 1.5106                 1.5974
 IR Inten    --      0.4487                11.9798                 7.9445

                     76                     77                     78
                      A                      A                      A
 Frequencies --   1431.4655              1437.1721              1442.9020
 Red. masses --      1.3230                 1.2470                 1.2953
 Frc consts  --      1.5973                 1.5175                 1.5889
 IR Inten    --      9.7103                31.0122                10.0624

                     79                     80                     81
                      A                      A                      A
 Frequencies --   1450.2125              1456.1370              1494.2938
 Red. masses --      1.3095                 1.2334                 1.0745
 Frc consts  --      1.6226                 1.5408                 1.4137
 IR Inten    --     17.1424                29.7995                17.7572

                     82                     83                     84
                      A                      A                      A
 Frequencies --   1501.1777              1503.8279              1514.1961
 Red. masses --      1.1200                 1.1207                 1.0910
 Frc consts  --      1.4871                 1.4933                 1.4738
 IR Inten    --      6.6321                 7.7853                 3.7335

                     85                     86                     87
                      A                      A                      A
 Frequencies --   1517.1308              1522.3558              1523.6501
 Red. masses --      1.0544                 1.0828                 1.0606
 Frc consts  --      1.4299                 1.4785                 1.4507
 IR Inten    --     10.5786                 0.4562                 1.8230

                     88                     89                     90
                      A                      A                      A
 Frequencies --   1527.4160              1529.4625              1532.8461
 Red. masses --      1.0591                 1.0675                 1.0782
 Frc consts  --      1.4558                 1.4712                 1.4926
 IR Inten    --      4.4067                 7.6812                 3.0783

                     91                     92                     93
                      A                      A                      A
 Frequencies --   1534.7990              1540.8402              2965.7771
 Red. masses --      1.0899                 1.0705                 1.0724
 Frc consts  --      1.5126                 1.4974                 5.5576
 IR Inten    --      1.4491                13.8603                25.0541

                     94                     95                     96
                      A                      A                      A
 Frequencies --   2973.8926              2993.7141              3011.5220
 Red. masses --      1.0724                 1.0722                 1.0833
 Frc consts  --      5.5879                 5.6619                 5.7884
 IR Inten    --     81.6046                61.4329                14.7811

                     97                     98                     99
                      A                      A                      A
 Frequencies --   3026.6576              3039.9670              3042.9254
 Red. masses --      1.0817                 1.0745                 1.0609
 Frc consts  --      5.8383                 5.8503                 5.7877
 IR Inten    --     31.0010                 9.6970                25.2395

                    100                    101                    102
                      A                      A                      A
 Frequencies --   3044.6926              3048.9548              3058.8637
 Red. masses --      1.0556                 1.0576                 1.0411
 Frc consts  --      5.7657                 5.7924                 5.7396
 IR Inten    --     30.6304                12.2471                15.9996

                    103                    104                    105
                      A                      A                      A
 Frequencies --   3067.4022              3086.5082              3089.6978
 Red. masses --      1.0340                 1.0827                 1.1016
 Frc consts  --      5.7319                 6.0768                 6.1957
 IR Inten    --     20.0843                 7.8798                39.3242

                    106                    107                    108
                      A                      A                      A
 Frequencies --   3094.0366              3108.3464              3111.0842
 Red. masses --      1.1003                 1.0919                 1.0937
 Frc consts  --      6.2062                 6.2156                 6.2367
 IR Inten    --     57.6422                42.1092                57.2825

                    109                    110                    111
                      A                      A                      A
 Frequencies --   3118.1493              3119.9606              3122.4025
 Red. masses --      1.0926                 1.0931                 1.0997
 Frc consts  --      6.2588                 6.2692                 6.3171
 IR Inten    --     31.0741                21.6191                28.9407

                    112                    113                    114
                      A                      A                      A
 Frequencies --   3143.0545              3143.9687              3149.7117
 Red. masses --      1.1028                 1.1013                 1.1005
 Frc consts  --      6.4190                 6.4136                 6.4325
 IR Inten    --     16.9450                28.3873                33.0944

                    115                    116                    117
                      A                      A                      A
 Frequencies --   3187.6860              3503.8357              3620.8089
 Red. masses --      1.1049                 1.0737                 1.0632
 Frc consts  --      6.6147                 7.7663                 8.2129
 IR Inten    --      1.0649                 0.1320               209.0205

 - Thermochemistry -
 -------------------
 Temperature   298.150 Kelvin.  Pressure   1.00000 Atm.
 Atom     1 has atomic number  6 and mass  12.00000

 Molecular mass:   247.16060 amu.
 Principal axes and moments of inertia in atomic units:
                           1         2         3
     Eigenvalues --  2132.826948194.209258783.80757
           X            1.00000   0.00212   0.00095
           Y           -0.00212   0.99999   0.00299
           Z           -0.00095  -0.00299   1.00000
 This molecule is an asymmetric top.
 Rotational symmetry number  1.
 Warning -- assumption of classical behavior for rotation
           may cause significant error
 Rotational temperatures (Kelvin)      0.04061     0.01057     0.00986
 Rotational constants (GHZ):           0.84617     0.22025     0.20546
 Zero-point vibrational energy     973531.7 (Joules/Mol)
                                  232.67967 (Kcal/Mol)
 Warning -- explicit consideration of  28 degrees of freedom as
           vibrations may cause significant error
 Vibrational temperatures:     32.62    44.14    64.66    82.45   126.45
          (Kelvin)            171.28   192.76   210.24   232.03   256.87
                              301.89   326.06   333.13   359.04   376.71
                              387.55   418.20   443.80   464.30   513.16
                              544.07   600.69   620.15   692.44   723.70
                              745.95   789.55   872.03   959.03   965.91
                             1016.97  1038.91  1098.02  1180.50  1201.64
                             1236.50  1255.24  1288.95  1325.81  1339.89
                             1391.29  1420.25  1436.26  1443.18  1458.06
                             1473.87  1477.53  1499.84  1512.44  1549.58
                             1583.66  1591.79  1627.66  1632.80  1685.58
                             1697.78  1704.82  1737.78  1746.86  1790.51
                             1837.39  1846.32  1869.30  1886.47  1889.06
                             1909.14  1935.53  1950.93  1974.93  1984.02
                             2001.73  2014.52  2023.07  2034.23  2052.55
                             2059.56  2067.77  2076.01  2086.53  2095.06
                             2149.96  2159.86  2163.67  2178.59  2182.81
                             2190.33  2192.19  2197.61  2200.56  2205.42
                             2208.23  2216.93  4267.09  4278.77  4307.29
                             4332.91  4354.69  4373.83  4378.09  4380.63
                             4386.77  4401.02  4413.31  4440.80  4445.39
                             4451.63  4472.22  4476.16  4486.32  4488.93
                             4492.44  4522.15  4523.47  4531.73  4586.37
                             5041.24  5209.54

 Zero-point correction=                           0.370799 (Hartree/Particle)
 Thermal correction to Energy=                    0.389303
 Thermal correction to Enthalpy=                  0.390248
 Thermal correction to Gibbs Free Energy=         0.323164
 Sum of electronic and zero-point Energies=          -1075.400147
 Sum of electronic and thermal Energies=             -1075.381642
 Sum of electronic and thermal Enthalpies=           -1075.380698
 Sum of electronic and thermal Free Energies=        -1075.447781

                     E (Thermal)             CV                S
                      KCal/Mol        Cal/Mol-Kelvin    Cal/Mol-Kelvin
 Total                  244.292             69.702            141.188
 Electronic               0.000              0.000              0.000
 Translational            0.889              2.981             42.415
 Rotational               0.889              2.981             33.395
 Vibrational            242.514             63.740             65.378
 Vibration     1          0.593              1.985              6.385
 Vibration     2          0.594              1.984              5.785
 Vibration     3          0.595              1.979              5.029
 Vibration     4          0.596              1.975              4.548
 Vibration     5          0.601              1.958              3.707
 Vibration     6          0.609              1.933              3.116
 Vibration     7          0.613              1.919              2.888
 Vibration     8          0.617              1.907              2.722
 Vibration     9          0.622              1.890              2.535
 Vibration    10          0.629              1.869              2.344
 Vibration    11          0.642              1.826              2.045
 Vibration    12          0.650              1.800              1.906
 Vibration    13          0.653              1.793              1.867
 Vibration    14          0.662              1.764              1.734
 Vibration    15          0.669              1.743              1.650
 Vibration    16          0.674              1.730              1.600
 Vibration    17          0.687              1.691              1.470
 Vibration    18          0.698              1.658              1.371
 Vibration    19          0.708              1.630              1.296
 Vibration    20          0.732              1.562              1.137
 Vibration    21          0.748              1.517              1.047
 Vibration    22          0.781              1.432              0.901
 Vibration    23          0.792              1.403              0.855
 Vibration    24          0.838              1.292              0.707
 Vibration    25          0.858              1.243              0.651
 Vibration    26          0.873              1.209              0.614
 Vibration    27          0.904              1.142              0.547
 Vibration    28          0.965              1.019              0.439

 Optimization completed.
    -- Stationary point found.
 Normal termination of Gaussian 16 at Thu Dec 10 22:59:36 2020.

 ----------------------------------------------------------------------
 # B3LYP/6-311++G(d,p) empiricaldispersion=gd3bj scf=xqc pop=npa geom=c
 heck
 ----------------------------------------------------------------------

 ---------------------------------------
 CID_115722557_JID_6406_Energie_neutraal
 ---------------------------------------
 Structure from the checkpoint file:  "JID_6406.chk"
 Charge =  0 Multiplicity = 1

 SCF Done:  E(RB3LYP) =  -1076.00211215     A.U. after   14 cycles
 Normal termination of Gaussian 16 at Thu Dec 10 23:07:37 2020.

 ----------------------------------------------------------------------
 # B3LYP/6-311++G(d,p) empiricaldispersion=gd3bj scf=xqc pop=npa geom=c
 heck
 ----------------------------------------------------------------------

 -------------------------------------
 CID_115722557_JID_6406_Energie_kation
 -------------------------------------
 Structure from the checkpoint file:  "JID_6406.chk"
 Charge =  1 Multiplicity = 2

 SCF Done:  E(UB3LYP) =  -1075.71681087     A.U. after   24 cycles
 Normal termination of Gaussian 16 at Thu Dec 10 23:24:50 2020.
 Gaussian 16:  ES64L-G16RevA.03 25-Dec-2016

 ----------------------------------------------------------------------
 # B3LYP/6-311++G(d,p) empiricaldispersion=gd3bj scf=xqc pop=npa geom=c
 heck
 ----------------------------------------------------------------------

 ------------------------------------
 CID_115722557_JID_6406_Energie_anion
 ------------------------------------
 Structure from the checkpoint file:  "JID_6406.chk"
 Charge = -1 Multiplicity = 2

                         Standard orientation:
 ---------------------------------------------------------------------
 Center     Atomic      Atomic             Coordinates (Angstroms)
 Number     Number       Type             X           Y           Z
 ---------------------------------------------------------------------
      1          6           0       -1.200593    2.562019   -0.208557
      2          6           0       -0.752663    1.145312    0.167457
      3          6           0       -1.914975    0.126085    0.241402
      4          6           0       -2.663720   -0.081489   -1.083425
      5          6           0       -3.767400   -1.126304   -0.903880
      6          8           0       -4.674207   -0.764077    0.127000
      7          6           0       -4.022510   -0.628514    1.382236
      8          6           0       -2.939741    0.451894    1.341015
      9          7           0        0.358825    0.782605   -0.729994
     10          6           0        1.129034   -0.441684   -0.437690
     11          6           0        0.606837   -1.706225   -1.133398
     12          6           0        2.637201   -0.252324   -0.792424
     13          6           0        3.109189    1.213251   -0.795067
     14          8           0        2.664618    1.952773    0.327315
     15         16           0        3.702631   -1.364051    0.226442
     16          6           0        3.530540   -0.637534    1.897832
     17          1           0       -1.586401    2.597414   -1.234088
     18          1           0       -0.353679    3.252355   -0.149254
     19          1           0       -1.987774    2.927459    0.456234
     20          1           0       -0.314213    1.188153    1.175642
     21          1           0       -1.465546   -0.837316    0.521232
     22          1           0       -3.124712    0.859530   -1.407104
     23          1           0       -1.981142   -0.405657   -1.878995
     24          1           0       -4.368212   -1.231093   -1.811968
     25          1           0       -3.315616   -2.109067   -0.678258
     26          1           0       -3.576184   -1.594185    1.679525
     27          1           0       -4.806045   -0.380750    2.104173
     28          1           0       -2.447826    0.524581    2.320379
     29          1           0       -3.423097    1.415562    1.142486
     30          1           0        0.056305    0.802921   -1.701586
     31          1           0        1.057231   -0.576992    0.645892
     32          1           0        0.578849   -1.553967   -2.220572
     33          1           0        1.273327   -2.549887   -0.929513
     34          1           0       -0.398463   -1.979459   -0.804928
     35          1           0        2.810684   -0.642215   -1.804803
     36          1           0        4.201867    1.243961   -0.797369
     37          1           0        2.759783    1.683382   -1.728034
     38          1           0        1.699072    1.983008    0.179873
     39          1           0        3.764025    0.426933    1.885954
     40          1           0        2.523448   -0.781812    2.300112
     41          1           0        4.239973   -1.172769    2.534323
 ---------------------------------------------------------------------

 SCF Done:  E(UB3LYP) =  -1075.99065579     A.U. after   29 cycles

 The electronic state is 2-A.
 Alpha  occ. eigenvalues --  -88.74670 -19.03193 -19.01888 -14.21380 -10.12352
 Alpha  occ. eigenvalues --  -10.12287 -10.12276 -10.11963 -10.11559 -10.11242
 Alpha  occ. eigenvalues --  -10.09950 -10.08313 -10.07608 -10.07349 -10.07047
 Alpha  occ. eigenvalues --  -10.06779  -7.83282  -5.79687  -5.79309  -5.78643
 Alpha  occ. eigenvalues --   -0.94694  -0.92677  -0.82671  -0.73375  -0.71204
 Alpha  occ. eigenvalues --   -0.67346  -0.67046  -0.63694  -0.62321  -0.56820
 Alpha  occ. eigenvalues --   -0.55804  -0.54953  -0.53231  -0.50865  -0.47698
 Alpha  occ. eigenvalues --   -0.46687  -0.41784  -0.40742  -0.38838  -0.38754
 Alpha  occ. eigenvalues --   -0.37941  -0.37226  -0.36445  -0.36111  -0.34679
 Alpha  occ. eigenvalues --   -0.33395  -0.33136  -0.32704  -0.32169  -0.31672
 Alpha  occ. eigenvalues --   -0.30807  -0.29809  -0.29071  -0.28298  -0.28037
 Alpha  occ. eigenvalues --   -0.27595  -0.26469  -0.26052  -0.25568  -0.23742
 Alpha  occ. eigenvalues --   -0.23586  -0.22756  -0.22000  -0.21433  -0.18125
 Alpha  occ. eigenvalues --   -0.16959  -0.14715  -0.12949   0.04098
 Alpha virt. eigenvalues --    0.05795   0.06617   0.06890   0.07676   0.08292
 Alpha virt. eigenvalues --    0.08832   0.08931   0.09360   0.09998   0.10604
 Alpha virt. eigenvalues --    0.10805   0.10974   0.11169   0.12128   0.12176

  Beta  occ. eigenvalues --  -88.74668 -19.03186 -19.01883 -14.21360 -10.12334
  Beta  occ. eigenvalues --  -10.12271 -10.12263 -10.11957 -10.11548 -10.11237
  Beta  occ. eigenvalues --  -10.09935 -10.08308 -10.07590 -10.07326 -10.07023
  Beta  occ. eigenvalues --  -10.06748  -7.83280  -5.79685  -5.79303  -5.78642
  Beta  occ. eigenvalues --   -0.94677  -0.92667  -0.82639  -0.73352  -0.71178
  Beta  occ. eigenvalues --   -0.67313  -0.67020  -0.63664  -0.62277  -0.56781
  Beta  occ. eigenvalues --   -0.55768  -0.54902  -0.53186  -0.50813  -0.47672
  Beta  occ. eigenvalues --   -0.46641  -0.41751  -0.40712  -0.38810  -0.38722
  Beta  occ. eigenvalues --   -0.37905  -0.37193  -0.36406  -0.36081  -0.34648
  Beta  occ. eigenvalues --   -0.33370  -0.33112  -0.32679  -0.32139  -0.31648
  Beta  occ. eigenvalues --   -0.30780  -0.29767  -0.29046  -0.28270  -0.28012
  Beta  occ. eigenvalues --   -0.27559  -0.26433  -0.26014  -0.25534  -0.23714
  Beta  occ. eigenvalues --   -0.23565  -0.22728  -0.21981  -0.21406  -0.18110
  Beta  occ. eigenvalues --   -0.16910  -0.14697  -0.12937
  Beta virt. eigenvalues --    0.06193   0.06765   0.07056   0.07353   0.08107
  Beta virt. eigenvalues --    0.08537   0.09120   0.09421   0.09669   0.10350
  Beta virt. eigenvalues --    0.10738   0.11094   0.11123   0.11298   0.12351

 Mulliken charges and spin densities:
               1          2
     1  C    0.879637  -1.466679
     2  C   -0.566433   0.081985
     3  C    0.122195   0.400913
     4  C   -0.145308  -0.080841
     5  C    0.293326  -0.838780
     6  O   -0.158508   0.051241
     7  C    0.530663  -1.059445
     8  C   -0.687440   0.433236
     9  N    0.032265  -0.055435
    10  C   -0.841083   0.447996
    11  C    0.420541  -1.279392
    12  C    0.323115   0.561364
    13  C   -0.035838  -0.770461
    14  O   -0.254986   0.025975
    15  S   -0.071994  -0.154352
    16  C   -0.346282  -0.306919
    17  H   -0.283218   0.441808
    18  H   -0.022080   0.172803
    19  H   -0.208092   0.361787
    20  H    0.227143  -0.034931
    21  H    0.514754  -0.349668
    22  H    0.108815   0.079091
    23  H   -0.425432   0.564118
    24  H   -0.173777   0.369273
    25  H    0.061444   0.068644
    26  H   -0.162767   0.281137
    27  H   -0.206213   0.414972
    28  H   -0.425729   0.575142
    29  H    0.198790  -0.058230
    30  H    0.179811   0.123036
    31  H    0.268091  -0.070367
    32  H   -0.340085   0.504147
    33  H    0.088812   0.058788
    34  H   -0.214089   0.347618
    35  H    0.007973   0.297057
    36  H    0.161162   0.016778
    37  H   -0.184606   0.341821
    38  H    0.300314   0.002850
    39  H    0.157812   0.051920
    40  H   -0.151003   0.304119
    41  H    0.028300   0.145881
 Sum of Mulliken charges =  -1.00000   1.00000

 Dipole moment (field-independent basis, Debye):
    X=              2.7333    Y=             -0.4285    Z=              1.4572  Tot=              3.1270
 Quadrupole moment (field-independent basis, Debye-Ang):
   XX=           -189.9256   YY=           -154.2787   ZZ=           -160.7851
   XY=             -2.5412   XZ=              1.9884   YZ=             -0.0799

 Summary of Natural Population Analysis:

                                       Natural Population
                Natural  -----------------------------------------------
    Atom  No    Charge         Core      Valence    Rydberg      Total
 -----------------------------------------------------------------------
      C    1   -0.28910      0.99964     2.28291    0.00656     3.28910
      C    2   -0.00238      0.99958     1.99050    0.01231     3.00238
      C    3   -0.11919      0.99956     2.10868    0.01095     3.11919
      C    4   -0.20994      0.99960     2.20048    0.00985     3.20994
      C    5   -0.00596      0.99958     1.99384    0.01253     3.00596
      O    6   -0.30000      0.99989     3.29114    0.00897     4.30000
      C    7   -0.00665      0.99958     1.99430    0.01277     3.00665
      C    8   -0.20285      0.99961     2.19452    0.00872     3.20285
      N    9   -0.36419      0.99972     2.85161    0.01286     3.86419
      C   10   -0.01846      0.99956     2.00481    0.01409     3.01846
      C   11   -0.29227      0.99963     2.28617    0.00647     3.29227
      C   12   -0.17543      0.99954     2.16089    0.01499     3.17543
      C   13   -0.01695      0.99955     2.00214    0.01526     3.01695
      O   14   -0.38237      0.99990     3.37588    0.00659     4.38237
      S   15    0.08302      4.99962     2.90024    0.01713     7.91698
      C   16   -0.35219      0.99961     2.34717    0.00542     3.35219
      H   17    0.10016      0.00000     0.39871    0.00113     0.39984
      H   18    0.10289      0.00000     0.39599    0.00112     0.39711
      H   19    0.10201      0.00000     0.39707    0.00091     0.39799
      H   20    0.09101      0.00000     0.40686    0.00213     0.40899
      H   21    0.09664      0.00000     0.40063    0.00273     0.40336
      H   22    0.09984      0.00000     0.39862    0.00154     0.40016
      H   23    0.10553      0.00000     0.39263    0.00184     0.39447
      H   24    0.09186      0.00000     0.40694    0.00121     0.40814
      H   25    0.07528      0.00000     0.42317    0.00155     0.42472
      H   26    0.07606      0.00000     0.42248    0.00145     0.42394
      H   27    0.09125      0.00000     0.40753    0.00122     0.40875
      H   28    0.10297      0.00000     0.39549    0.00154     0.39703
      H   29    0.09822      0.00000     0.40038    0.00140     0.40178
      H   30    0.18269      0.00000     0.31289    0.00442     0.31731
      H   31    0.09580      0.00000     0.40115    0.00306     0.40420
      H   32    0.09940      0.00000     0.39894    0.00166     0.40060
      H   33    0.10621      0.00000     0.39231    0.00149     0.39379
      H   34    0.10003      0.00000     0.39855    0.00142     0.39997
      H   35    0.10764      0.00000     0.39087    0.00149     0.39236
      H   36    0.08951      0.00000     0.40921    0.00128     0.41049
      H   37    0.08401      0.00000     0.41464    0.00135     0.41599
      H   38    0.23969      0.00000     0.25640    0.00391     0.26031
      H   39    0.11342      0.00000     0.38506    0.00151     0.38658
      H   40    0.09983      0.00000     0.39869    0.00148     0.40017
      H   41    0.10297      0.00000     0.39599    0.00104     0.39703
 =======================================================================
   * Total *   -0.00000     19.99418    47.78648    0.21934    68.00000

 Normal termination of Gaussian 16 at Thu Dec 10 23:45:54 2020.
