 Gaussian 16, Revision A.03,

 -----------------------------------------------------------
 # opt freq B3LYP/6-31G(d) empiricaldispersion=gd3bj scf=xqc
 -----------------------------------------------------------

 -------------------------------
 CID_149652965_JID_3908_neutraal
 -------------------------------
 Symbolic Z-matrix:
 Charge =  0 Multiplicity = 1

 SCF Done:  E(RB3LYP) =  -703.072757068     A.U. after   15 cycles
 SCF Done:  E(RB3LYP) =  -703.080554427     A.U. after   13 cycles
 SCF Done:  E(RB3LYP) =  -703.081568707     A.U. after   12 cycles
 SCF Done:  E(RB3LYP) =  -703.081661733     A.U. after   13 cycles
 SCF Done:  E(RB3LYP) =  -703.081985501     A.U. after   12 cycles
 SCF Done:  E(RB3LYP) =  -703.082282105     A.U. after   13 cycles
 SCF Done:  E(RB3LYP) =  -703.081780468     A.U. after   16 cycles
 SCF Done:  E(RB3LYP) =  -703.083068155     A.U. after   13 cycles
 SCF Done:  E(RB3LYP) =  -703.083615968     A.U. after   13 cycles
 SCF Done:  E(RB3LYP) =  -703.084073297     A.U. after   13 cycles
 SCF Done:  E(RB3LYP) =  -703.085399476     A.U. after   10 cycles
 SCF Done:  E(RB3LYP) =  -703.085402875     A.U. after   10 cycles
 SCF Done:  E(RB3LYP) =  -703.085399203     A.U. after   10 cycles
 SCF Done:  E(RB3LYP) =  -703.085403605     A.U. after   10 cycles
 SCF Done:  E(RB3LYP) =  -703.085403830     A.U. after    8 cycles
 SCF Done:  E(RB3LYP) =  -703.085403859     A.U. after    7 cycles
 Optimization completed.
    -- Stationary point found.
 Normal termination of Gaussian 16 at Mon Dec 14 13:24:41 2020.

 --------------------------------------------------------------------
 #N Geom=AllCheck Guess=TCheck SCRF=Check GenChk RB3LYP/6-31G(d) Freq
 --------------------------------------------------------------------

 Structure from the checkpoint file:  "JID_3908.chk"
 -------------------------------
 CID_149652965_JID_3908_neutraal
 -------------------------------
 Charge =  0 Multiplicity = 1

 SCF Done:  E(RB3LYP) =  -703.085403859     A.U. after    1 cycles

  Exact polarizability: 126.247  -6.765  74.558  10.260   0.323  85.844
 Approx polarizability: 154.906 -15.290 110.001  32.666  -3.396 156.990

                      1                      2                      3
                      A                      A                      A
 Frequencies --     22.8085                37.1956                47.6405
 Red. masses --      5.8050                 6.5183                 2.1985
 Frc consts  --      0.0018                 0.0053                 0.0029
 IR Inten    --      1.1196                 1.8999                 1.5136

                      4                      5                      6
                      A                      A                      A
 Frequencies --     65.9523                88.1719               124.4864
 Red. masses --      9.1376                 7.9685                 3.0302
 Frc consts  --      0.0234                 0.0365                 0.0277
 IR Inten    --      2.0809                 0.3265                 1.5353

                      7                      8                      9
                      A                      A                      A
 Frequencies --    131.9315               153.8794               185.3500
 Red. masses --      3.4402                 3.8782                 6.3751
 Frc consts  --      0.0353                 0.0541                 0.1290
 IR Inten    --      0.0318                 1.4691                 3.4850

                     10                     11                     12
                      A                      A                      A
 Frequencies --    196.5350               231.1650               276.8639
 Red. masses --      7.0294                 3.1568                 1.3412
 Frc consts  --      0.1600                 0.0994                 0.0606
 IR Inten    --      4.4809                 3.6588                 1.4022

                     13                     14                     15
                      A                      A                      A
 Frequencies --    367.1935               404.3146               482.2542
 Red. masses --      3.6673                13.6909                 5.3900
 Frc consts  --      0.2913                 1.3186                 0.7386
 IR Inten    --      2.0721                 0.4825                32.5909

                     16                     17                     18
                      A                      A                      A
 Frequencies --    536.4004               573.9260               580.1012
 Red. masses --      1.4818                 1.6620                 3.6841
 Frc consts  --      0.2512                 0.3225                 0.7304
 IR Inten    --     54.6919                43.5678                36.5353

                     19                     20                     21
                      A                      A                      A
 Frequencies --    608.0486               627.4914               654.4675
 Red. masses --      4.2008                 2.8725                 3.3274
 Frc consts  --      0.9151                 0.6664                 0.8397
 IR Inten    --     46.0441                75.2685                32.4623

                     22                     23                     24
                      A                      A                      A
 Frequencies --    673.4617               749.1488               777.8511
 Red. masses --      3.9962                 4.9315                 8.3174
 Frc consts  --      1.0679                 1.6307                 2.9650
 IR Inten    --      8.8634                22.2592                54.1751

                     25                     26                     27
                      A                      A                      A
 Frequencies --    826.6570               871.0335               920.1541
 Red. masses --      1.1153                 8.5724                 2.2958
 Frc consts  --      0.4491                 3.8320                 1.1453
 IR Inten    --      4.0270                53.2012                 0.0544

                     28                     29                     30
                      A                      A                      A
 Frequencies --    926.1255               949.0382               987.0135
 Red. masses --      4.2999                 2.1170                 4.8584
 Frc consts  --      2.1729                 1.1234                 2.7886
 IR Inten    --      8.1651                11.4239               174.1595

                     31                     32                     33
                      A                      A                      A
 Frequencies --   1035.4380              1064.8916              1164.4720
 Red. masses --      1.0880                 2.8915                 1.6471
 Frc consts  --      0.6873                 1.9319                 1.3159
 IR Inten    --     31.9970                58.6820                71.6041

                     34                     35                     36
                      A                      A                      A
 Frequencies --   1190.9665              1201.5707              1255.9303
 Red. masses --      2.2772                 2.4658                 3.1975
 Frc consts  --      1.9030                 2.0975                 2.9716
 IR Inten    --    638.3083                19.7282               393.3812

                     37                     38                     39
                      A                      A                      A
 Frequencies --   1277.5417              1314.1346              1328.2562
 Red. masses --      1.2826                 1.1537                 1.3935
 Frc consts  --      1.2334                 1.1739                 1.4485
 IR Inten    --     19.8322                19.8360                 0.1923

                     40                     41                     42
                      A                      A                      A
 Frequencies --   1362.0995              1400.6654              1403.4039
 Red. masses --      2.5042                 2.7624                 1.7632
 Frc consts  --      2.7374                 3.1931                 2.0461
 IR Inten    --     52.2393                31.2897                55.2790

                     43                     44                     45
                      A                      A                      A
 Frequencies --   1446.1777              1496.0073              1525.1981
 Red. masses --      1.2689                 1.5220                 1.0472
 Frc consts  --      1.5636                 2.0070                 1.4353
 IR Inten    --      4.6461                36.6897                 7.9866

                     46                     47                     48
                      A                      A                      A
 Frequencies --   1533.0199              1555.7507              1708.3868
 Red. masses --      1.0657                 1.0842                 7.1280
 Frc consts  --      1.4757                 1.5461                12.2572
 IR Inten    --      1.9816                 4.0064                 0.1514

                     49                     50                     51
                      A                      A                      A
 Frequencies --   1812.6663              1830.7301              1899.5191
 Red. masses --     11.7756                 9.3647                10.6068
 Frc consts  --     22.7965                18.4923                22.5488
 IR Inten    --    327.8029               236.6448               553.4174

                     52                     53                     54
                      A                      A                      A
 Frequencies --   3054.6923              3056.9016              3110.1100
 Red. masses --      1.0433                 1.0615                 1.0973
 Frc consts  --      5.7360                 5.8443                 6.2534
 IR Inten    --     14.9990                26.9615                 1.8693

                     55                     56                     57
                      A                      A                      A
 Frequencies --   3131.0714              3140.6496              3240.0244
 Red. masses --      1.1006                 1.1034                 1.0964
 Frc consts  --      6.3572                 6.4122                 6.7813
 IR Inten    --     34.0325                22.0251                 0.0594

                     58                     59                     60
                      A                      A                      A
 Frequencies --   3246.3635              3610.9200              3700.9095
 Red. masses --      1.0872                 1.0762                 1.0643
 Frc consts  --      6.7505                 8.2673                 8.5887
 IR Inten    --      0.5447                36.1291                78.9295

 - Thermochemistry -
 -------------------
 Temperature   298.150 Kelvin.  Pressure   1.00000 Atm.
 Atom     1 has atomic number  6 and mass  12.00000

 Molecular mass:   187.04807 amu.
 Principal axes and moments of inertia in atomic units:
                           1         2         3
     Eigenvalues --  1281.365915434.794355701.22630
           X            0.99966   0.02555  -0.00506
           Y           -0.02556   0.99967  -0.00198
           Z            0.00501   0.00210   0.99999
 This molecule is an asymmetric top.
 Rotational symmetry number  1.
 Warning -- assumption of classical behavior for rotation
           may cause significant error
 Rotational temperatures (Kelvin)      0.06759     0.01594     0.01519
 Rotational constants (GHZ):           1.40845     0.33207     0.31655
 Zero-point vibrational energy     437684.5 (Joules/Mol)
                                  104.60910 (Kcal/Mol)
 Warning -- explicit consideration of  19 degrees of freedom as
           vibrations may cause significant error
 Vibrational temperatures:     32.82    53.52    68.54    94.89   126.86
          (Kelvin)            179.11   189.82   221.40   266.68   282.77
                              332.59   398.35   528.31   581.72   693.86
                              771.76   825.75   834.64   874.85   902.82
                              941.63   968.96  1077.86  1119.15  1189.38
                             1253.22  1323.90  1332.49  1365.45  1420.09
                             1489.76  1532.14  1675.42  1713.54  1728.79
                             1807.00  1838.10  1890.75  1911.06  1959.76
                             2015.25  2019.19  2080.73  2152.42  2194.42
                             2205.67  2238.38  2457.99  2608.02  2634.01
                             2732.98  4395.02  4398.20  4474.75  4504.91
                             4518.69  4661.67  4670.79  5195.31  5324.78

 Zero-point correction=                           0.166705 (Hartree/Particle)
 Thermal correction to Energy=                    0.180500
 Thermal correction to Enthalpy=                  0.181444
 Thermal correction to Gibbs Free Energy=         0.123295
 Sum of electronic and zero-point Energies=           -702.918699
 Sum of electronic and thermal Energies=              -702.904904
 Sum of electronic and thermal Enthalpies=            -702.903960
 Sum of electronic and thermal Free Energies=         -702.962109

                     E (Thermal)             CV                S
                      KCal/Mol        Cal/Mol-Kelvin    Cal/Mol-Kelvin
 Total                  113.265             47.245            122.386
 Electronic               0.000              0.000              0.000
 Translational            0.889              2.981             41.585
 Rotational               0.889              2.981             32.051
 Vibrational            111.488             41.283             48.750
 Vibration     1          0.593              1.985              6.373
 Vibration     2          0.594              1.982              5.403
 Vibration     3          0.595              1.978              4.913
 Vibration     4          0.597              1.971              4.271
 Vibration     5          0.601              1.957              3.700
 Vibration     6          0.610              1.929              3.030
 Vibration     7          0.612              1.921              2.918
 Vibration     8          0.619              1.898              2.624
 Vibration     9          0.631              1.860              2.274
 Vibration    10          0.636              1.845              2.165
 Vibration    11          0.653              1.793              1.870
 Vibration    12          0.678              1.716              1.553
 Vibration    13          0.740              1.540              1.091
 Vibration    14          0.770              1.461              0.947
 Vibration    15          0.838              1.289              0.704
 Vibration    16          0.891              1.170              0.573
 Vibration    17          0.930              1.088              0.497
 Vibration    18          0.937              1.074              0.485
 Vibration    19          0.967              1.015              0.436

                           ! Non-Optimized Parameters !
 Normal termination of Gaussian 16 at Mon Dec 14 13:28:43 2020.

 ----------------------------------------------------------------------
 # B3LYP/6-311++G(d,p) empiricaldispersion=gd3bj scf=xqc pop=npa geom=c
 heck
 ----------------------------------------------------------------------

 ---------------------------------------
 CID_149652965_JID_3908_Energie_neutraal
 ---------------------------------------
 Structure from the checkpoint file:  "JID_3908.chk"
 Charge =  0 Multiplicity = 1

 SCF Done:  E(RB3LYP) =  -703.309696446     A.U. after   15 cycles
 Normal termination of Gaussian 16 at Mon Dec 14 13:30:30 2020.

 ----------------------------------------------------------------------
 # B3LYP/6-311++G(d,p) empiricaldispersion=gd3bj scf=xqc pop=npa geom=c
 heck
 ----------------------------------------------------------------------

 -------------------------------------
 CID_149652965_JID_3908_Energie_kation
 -------------------------------------
 Structure from the checkpoint file:  "JID_3908.chk"
 Charge =  1 Multiplicity = 2

 SCF Done:  E(UB3LYP) =  -702.952064522     A.U. after   32 cycles
 Normal termination of Gaussian 16 at Mon Dec 14 13:35:45 2020.
 Gaussian 16:  ES64L-G16RevA.03 25-Dec-2016

 ----------------------------------------------------------------------
 # B3LYP/6-311++G(d,p) empiricaldispersion=gd3bj scf=xqc pop=npa geom=c
 heck
 ----------------------------------------------------------------------

 ------------------------------------
 CID_149652965_JID_3908_Energie_anion
 ------------------------------------
 Structure from the checkpoint file:  "JID_3908.chk"
 Charge = -1 Multiplicity = 2

                         Standard orientation:
 ---------------------------------------------------------------------
 Center     Atomic      Atomic             Coordinates (Angstroms)
 Number     Number       Type             X           Y           Z
 ---------------------------------------------------------------------
      1          6           0        3.814154    2.130233   -0.172636
      2          6           0        2.613327    1.245134    0.142304
      3          7           0        2.841195   -0.109894   -0.359861
      4          6           0        1.918774   -1.084330   -0.511410
      5          8           0        2.114006   -2.241299   -0.778246
      6          8           0        0.588345   -0.575085   -0.438359
      7          6           0        0.024469   -0.539044    0.802241
      8          8           0        0.638297   -0.752272    1.824170
      9          6           0       -1.413289   -0.188941    0.764759
     10          6           0       -2.106606   -0.000907   -0.365053
     11          6           0       -3.545520    0.350502   -0.399877
     12          8           0       -4.165973    0.534841   -1.425690
     13          8           0       -4.105515    0.450372    0.830461
     14          1           0        4.723990    1.750299    0.307404
     15          1           0        3.641746    3.143843    0.201572
     16          1           0        3.989922    2.184320   -1.251882
     17          1           0        2.424046    1.219800    1.222652
     18          1           0        1.716011    1.637747   -0.342836
     19          1           0        3.791929   -0.456775   -0.362010
     20          1           0       -1.878854   -0.100084    1.739961
     21          1           0       -1.641009   -0.098756   -1.339067
     22          1           0       -5.041288    0.680534    0.682573
 ---------------------------------------------------------------------

 SCF Done:  E(UB3LYP) =  -703.352031280     A.U. after   20 cycles

 The electronic state is 2-A.
 Alpha  occ. eigenvalues --  -19.02672 -19.01595 -18.99250 -18.94132 -18.93964
 Alpha  occ. eigenvalues --  -14.24535 -10.21245 -10.12946 -10.12523 -10.11827
 Alpha  occ. eigenvalues --  -10.09471 -10.00137  -9.99946  -0.99042  -0.95095
 Alpha  occ. eigenvalues --   -0.92552  -0.86450  -0.85707  -0.83456  -0.67995
 Alpha  occ. eigenvalues --   -0.63470  -0.55914  -0.54993  -0.49964  -0.45677
 Alpha  occ. eigenvalues --   -0.43265  -0.39926  -0.38535  -0.36148  -0.35023
 Alpha  occ. eigenvalues --   -0.33798  -0.33071  -0.31800  -0.30986  -0.30086
 Alpha  occ. eigenvalues --   -0.29852  -0.29394  -0.28358  -0.27435  -0.24834
 Alpha  occ. eigenvalues --   -0.23985  -0.21913  -0.19119  -0.17725  -0.16848
 Alpha  occ. eigenvalues --   -0.16456  -0.13461  -0.12789  -0.11487   0.02884
 Alpha virt. eigenvalues --    0.06149   0.08871   0.09749   0.09847   0.10559
 Alpha virt. eigenvalues --    0.12214   0.12602   0.13567   0.13864   0.14432
 Alpha virt. eigenvalues --    0.15819   0.16408   0.16824   0.17344   0.18332

  Beta  occ. eigenvalues --  -19.02618 -19.01547 -18.99246 -18.93726 -18.93594
  Beta  occ. eigenvalues --  -14.24534 -10.21246 -10.12744 -10.12357 -10.11827
  Beta  occ. eigenvalues --  -10.09471  -9.99842  -9.99602  -0.98924  -0.94835
  Beta  occ. eigenvalues --   -0.92346  -0.85934  -0.85177  -0.83415  -0.67987
  Beta  occ. eigenvalues --   -0.62593  -0.55743  -0.54672  -0.49410  -0.45527
  Beta  occ. eigenvalues --   -0.42674  -0.39902  -0.38508  -0.36023  -0.34710
  Beta  occ. eigenvalues --   -0.33430  -0.32917  -0.31661  -0.30718  -0.29887
  Beta  occ. eigenvalues --   -0.29351  -0.28379  -0.27700  -0.27256  -0.24508
  Beta  occ. eigenvalues --   -0.23645  -0.21605  -0.18391  -0.16544  -0.16390
  Beta  occ. eigenvalues --   -0.16042  -0.13056  -0.11062  -0.10047
  Beta virt. eigenvalues --    0.06132   0.08852   0.09724   0.09852   0.10191
  Beta virt. eigenvalues --    0.10564   0.12211   0.12611   0.13566   0.13862
  Beta virt. eigenvalues --    0.14432   0.15820   0.16400   0.16861   0.17811

 Mulliken charges and spin densities:
               1          2
     1  C   -0.658674   0.002643
     2  C   -0.055098  -0.007794
     3  N   -0.245949  -0.001235
     4  C    0.287158   0.002949
     5  O   -0.316183  -0.000989
     6  O    0.006824   0.007750
     7  C   -0.612493   0.197083
     8  O   -0.338724   0.130338
     9  C    0.206692   0.182996
    10  C   -0.224200   0.246021
    11  C   -0.085658   0.140583
    12  O   -0.413886   0.119778
    13  O   -0.234597   0.011917
    14  H    0.126295   0.002241
    15  H    0.142659   0.000291
    16  H    0.150694  -0.000296
    17  H    0.184543   0.003027
    18  H    0.186585  -0.000843
    19  H    0.268447   0.001644
    20  H    0.194855  -0.017083
    21  H    0.181799  -0.020420
    22  H    0.248910  -0.000602
 Sum of Mulliken charges =  -1.00000   1.00000

 Dipole moment (field-independent basis, Debye):
    X=              7.5130    Y=              4.4425    Z=              0.4611  Tot=              8.7403
 Quadrupole moment (field-independent basis, Debye-Ang):
   XX=           -104.8694   YY=            -90.1295   ZZ=            -95.4123
   XY=             11.4773   XZ=            -12.0107   YZ=              1.9380

 Summary of Natural Population Analysis:

                                       Natural Population
                Natural  -----------------------------------------------
    Atom  No    Charge         Core      Valence    Rydberg      Total
 -----------------------------------------------------------------------
      C    1   -0.28930      0.99967     2.28592    0.00371     3.28930
      C    2   -0.09328      0.99964     2.08500    0.00864     3.09328
      N    3   -0.32578      0.99964     2.81545    0.01069     3.82578
      C    4    0.47454      0.99968     1.50002    0.02576     2.52546
      O    5   -0.30950      0.99986     3.30360    0.00604     4.30950
      O    6   -0.30321      0.99985     3.29323    0.01013     4.30321
      C    7    0.40823      0.99966     1.56836    0.02375     2.59177
      O    8   -0.28150      0.99987     3.27575    0.00588     4.28150
      C    9   -0.07891      0.99949     2.06971    0.00970     3.07891
      C   10   -0.06646      0.99949     2.05746    0.00951     3.06646
      C   11    0.40251      0.99970     1.57355    0.02424     2.59749
      O   12   -0.29295      0.99987     3.28623    0.00685     4.29295
      O   13   -0.35594      0.99988     3.34778    0.00828     4.35594
      H   14    0.09268      0.00000     0.40629    0.00103     0.40732
      H   15    0.10146      0.00000     0.39785    0.00069     0.39854
      H   16    0.09777      0.00000     0.40116    0.00107     0.40223
      H   17    0.10127      0.00000     0.39742    0.00131     0.39873
      H   18    0.10690      0.00000     0.39187    0.00124     0.39310
      H   19    0.18932      0.00000     0.30876    0.00192     0.31068
      H   20    0.09848      0.00000     0.40040    0.00111     0.40152
      H   21    0.09755      0.00000     0.40143    0.00102     0.40245
      H   22    0.22612      0.00000     0.26869    0.00519     0.27388
 =======================================================================
   * Total *   -0.00000     12.99630    35.83592    0.16778    49.00000

 Normal termination of Gaussian 16 at Mon Dec 14 13:39:01 2020.
