 Gaussian 16, Revision A.03,

 -----------------------------------------------------------
 # opt freq B3LYP/6-31G(d) empiricaldispersion=gd3bj scf=xqc
 -----------------------------------------------------------

 -------------------------------
 CID_136569693_JID_9665_neutraal
 -------------------------------
 Symbolic Z-matrix:
 Charge =  0 Multiplicity = 1

 SCF Done:  E(RB3LYP) =  -842.235088778     A.U. after   15 cycles
 SCF Done:  E(RB3LYP) =  -842.235507785     A.U. after   13 cycles
 SCF Done:  E(RB3LYP) =  -842.240846067     A.U. after   13 cycles
 SCF Done:  E(RB3LYP) =  -842.241453015     A.U. after   12 cycles
 SCF Done:  E(RB3LYP) =  -842.242467753     A.U. after   12 cycles
 SCF Done:  E(RB3LYP) =  -842.243130288     A.U. after   13 cycles
 SCF Done:  E(RB3LYP) =  -842.243533102     A.U. after   11 cycles
 SCF Done:  E(RB3LYP) =  -842.243932473     A.U. after   12 cycles
 SCF Done:  E(RB3LYP) =  -842.244157458     A.U. after   11 cycles
 SCF Done:  E(RB3LYP) =  -842.244301271     A.U. after   12 cycles
 SCF Done:  E(RB3LYP) =  -842.244431509     A.U. after    9 cycles
 SCF Done:  E(RB3LYP) =  -842.244431844     A.U. after    8 cycles
 SCF Done:  E(RB3LYP) =  -842.244432036     A.U. after    8 cycles
 SCF Done:  E(RB3LYP) =  -842.244432113     A.U. after    8 cycles
 SCF Done:  E(RB3LYP) =  -842.244432119     A.U. after    7 cycles
 Optimization completed.
    -- Stationary point found.
 Normal termination of Gaussian 16 at Sat Dec 12 10:17:58 2020.

 --------------------------------------------------------------------
 #N Geom=AllCheck Guess=TCheck SCRF=Check GenChk RB3LYP/6-31G(d) Freq
 --------------------------------------------------------------------

 Structure from the checkpoint file:  "JID_9665.chk"
 -------------------------------
 CID_136569693_JID_9665_neutraal
 -------------------------------
 Charge =  0 Multiplicity = 1

 SCF Done:  E(RB3LYP) =  -842.244432120     A.U. after    1 cycles

  Exact polarizability: 197.038  -5.192 182.780 -10.452  -4.037 134.343
 Approx polarizability: 267.820   1.974 275.530 -27.410 -17.420 205.007

                      1                      2                      3
                      A                      A                      A
 Frequencies --      9.5131                23.4602                56.3046
 Red. masses --      4.4860                 3.6511                 3.6238
 Frc consts  --      0.0002                 0.0012                 0.0068
 IR Inten    --      1.4159                 0.6247                 0.9437

                      4                      5                      6
                      A                      A                      A
 Frequencies --     66.0594                69.9201               117.9650
 Red. masses --      4.1049                 4.0674                 2.7435
 Frc consts  --      0.0106                 0.0117                 0.0225
 IR Inten    --      0.7038                 1.4534                 0.1342

                      7                      8                      9
                      A                      A                      A
 Frequencies --    126.5332               155.8471               156.7820
 Red. masses --      3.6634                 2.7673                 1.9700
 Frc consts  --      0.0346                 0.0396                 0.0285
 IR Inten    --      2.0090                 0.7182                 3.0793

                     10                     11                     12
                      A                      A                      A
 Frequencies --    167.1592               188.7068               200.6529
 Red. masses --      2.8463                 1.1813                 2.7472
 Frc consts  --      0.0469                 0.0248                 0.0652
 IR Inten    --      0.5514                 0.0334                 0.4332

                     13                     14                     15
                      A                      A                      A
 Frequencies --    208.6021               260.3344               276.8959
 Red. masses --      1.9809                 1.9108                 4.3560
 Frc consts  --      0.0508                 0.0763                 0.1968
 IR Inten    --      1.5405                 0.5880                 1.7871

                     16                     17                     18
                      A                      A                      A
 Frequencies --    294.8097               306.6420               320.4263
 Red. masses --      2.6482                 2.7437                 2.8435
 Frc consts  --      0.1356                 0.1520                 0.1720
 IR Inten    --      7.6955                 9.0124                 2.1247

                     19                     20                     21
                      A                      A                      A
 Frequencies --    329.2582               362.0901               367.6344
 Red. masses --      3.9412                 2.7384                 2.6723
 Frc consts  --      0.2517                 0.2115                 0.2128
 IR Inten    --      5.6110                 3.2367                 2.6085

                     22                     23                     24
                      A                      A                      A
 Frequencies --    383.1673               398.5609               431.4114
 Red. masses --      2.6908                 2.3207                 1.6798
 Frc consts  --      0.2328                 0.2172                 0.1842
 IR Inten    --      2.9170                14.9639                43.1575

                     25                     26                     27
                      A                      A                      A
 Frequencies --    442.7439               489.0358               510.9471
 Red. masses --      3.1280                 1.5745                 1.9492
 Frc consts  --      0.3613                 0.2219                 0.2998
 IR Inten    --      1.5200                 0.7643                 0.7931

                     28                     29                     30
                      A                      A                      A
 Frequencies --    562.4135               588.4437               642.9020
 Red. masses --      3.2558                 3.0430                 1.8851
 Frc consts  --      0.6068                 0.6208                 0.4591
 IR Inten    --     11.5504                 6.5135                70.9326

                     31                     32                     33
                      A                      A                      A
 Frequencies --    669.8154               685.5344               718.1082
 Red. masses --      2.8217                 5.4917                 3.7988
 Frc consts  --      0.7459                 1.5206                 1.1542
 IR Inten    --     18.8861                 0.8858                11.2808

                     34                     35                     36
                      A                      A                      A
 Frequencies --    725.7389               792.0160               794.6677
 Red. masses --      3.0158                 2.8840                 5.5886
 Frc consts  --      0.9359                 1.0659                 2.0794
 IR Inten    --      3.7902                 7.0716                22.9840

                     37                     38                     39
                      A                      A                      A
 Frequencies --    823.7879               825.9766               859.5069
 Red. masses --      2.6680                 1.8631                 2.1271
 Frc consts  --      1.0668                 0.7489                 0.9258
 IR Inten    --      4.2323                 1.4870                 0.7802

                     40                     41                     42
                      A                      A                      A
 Frequencies --    868.7535               896.0837               920.2568
 Red. masses --      1.4371                 1.3770                 5.2136
 Frc consts  --      0.6391                 0.6515                 2.6014
 IR Inten    --      0.6633                10.8911                25.1327

                     43                     44                     45
                      A                      A                      A
 Frequencies --    930.8909               963.8232               970.6637
 Red. masses --      2.1334                 2.5170                 2.6592
 Frc consts  --      1.0892                 1.3776                 1.4762
 IR Inten    --      0.6460                19.1450                27.5617

                     46                     47                     48
                      A                      A                      A
 Frequencies --    990.3802               997.3625              1009.5960
 Red. masses --      1.8816                 1.9906                 1.9436
 Frc consts  --      1.0874                 1.1666                 1.1672
 IR Inten    --      1.5483                11.6605                 4.7034

                     49                     50                     51
                      A                      A                      A
 Frequencies --   1057.3824              1061.0832              1068.9656
 Red. masses --      2.0898                 1.6555                 2.5509
 Frc consts  --      1.3766                 1.0982                 1.7174
 IR Inten    --      3.7583                 2.2118                66.5981

                     52                     53                     54
                      A                      A                      A
 Frequencies --   1082.4188              1082.9052              1110.9032
 Red. masses --      1.7115                 2.8464                 2.0233
 Frc consts  --      1.1815                 1.9666                 1.4711
 IR Inten    --      5.5873                59.1069                 0.0390

                     55                     56                     57
                      A                      A                      A
 Frequencies --   1114.9006              1134.8441              1144.0687
 Red. masses --      2.3362                 1.2326                 1.9641
 Frc consts  --      1.7109                 0.9353                 1.5147
 IR Inten    --     22.8520                 3.4578                 1.2681

                     58                     59                     60
                      A                      A                      A
 Frequencies --   1168.9477              1188.7235              1195.7150
 Red. masses --      1.9931                 1.4237                 1.8292
 Frc consts  --      1.6046                 1.1853                 1.5408
 IR Inten    --      0.6167                16.0964                 0.8440

                     61                     62                     63
                      A                      A                      A
 Frequencies --   1222.3734              1236.1287              1243.9125
 Red. masses --      2.0759                 2.3610                 1.2228
 Frc consts  --      1.8275                 2.1256                 1.1147
 IR Inten    --     26.8857                20.8975                 0.2300

                     64                     65                     66
                      A                      A                      A
 Frequencies --   1253.6635              1268.2274              1272.7995
 Red. masses --      1.2923                 2.3386                 1.2566
 Frc consts  --      1.1967                 2.2162                 1.1994
 IR Inten    --      1.0709                21.9702                 7.0861

                     67                     68                     69
                      A                      A                      A
 Frequencies --   1299.0181              1314.9495              1334.5579
 Red. masses --      1.1836                 1.2985                 1.1742
 Frc consts  --      1.1768                 1.3228                 1.2322
 IR Inten    --      4.9838                 3.5708                 0.6801

                     70                     71                     72
                      A                      A                      A
 Frequencies --   1342.1623              1352.4134              1362.0802
 Red. masses --      1.7786                 2.9566                 1.4630
 Frc consts  --      1.8877                 3.1861                 1.5992
 IR Inten    --     35.3283                33.5607                 7.0133

                     73                     74                     75
                      A                      A                      A
 Frequencies --   1373.1568              1381.5140              1393.0744
 Red. masses --      1.4444                 1.3489                 1.4915
 Frc consts  --      1.6046                 1.5169                 1.7054
 IR Inten    --     13.0758                 8.9878                 3.0844

                     76                     77                     78
                      A                      A                      A
 Frequencies --   1401.9687              1410.5512              1413.8621
 Red. masses --      1.4642                 1.4233                 1.5064
 Frc consts  --      1.6956                 1.6684                 1.7742
 IR Inten    --      1.3317                 7.9643                 8.6779

                     79                     80                     81
                      A                      A                      A
 Frequencies --   1417.0307              1417.7850              1431.3297
 Red. masses --      1.4533                 2.0829                 1.4992
 Frc consts  --      1.7194                 2.4668                 1.8096
 IR Inten    --      1.5421                34.0205                 5.9436

                     82                     83                     84
                      A                      A                      A
 Frequencies --   1454.5140              1464.2736              1494.8451
 Red. masses --      2.2198                 1.1487                 1.2247
 Frc consts  --      2.7669                 1.4511                 1.6124
 IR Inten    --     50.8125                 0.9769                13.9533

                     85                     86                     87
                      A                      A                      A
 Frequencies --   1504.8671              1511.4669              1515.5906
 Red. masses --      1.0533                 1.0911                 1.1366
 Frc consts  --      1.4053                 1.4686                 1.5382
 IR Inten    --      3.6850                 0.1411                 2.9534

                     88                     89                     90
                      A                      A                      A
 Frequencies --   1517.6422              1519.9058              1520.1973
 Red. masses --      1.0997                 1.1018                 1.0743
 Frc consts  --      1.4923                 1.4996                 1.4628
 IR Inten    --      2.4804                 7.7623                 2.9646

                     91                     92                     93
                      A                      A                      A
 Frequencies --   1525.2293              1529.7685              1531.7113
 Red. masses --      1.4582                 1.0620                 1.1099
 Frc consts  --      1.9986                 1.4643                 1.5342
 IR Inten    --     19.0649                10.5081                27.1439

                     94                     95                     96
                      A                      A                      A
 Frequencies --   1539.4020              1552.2411              1553.2955
 Red. masses --      1.2483                 1.0890                 1.0973
 Frc consts  --      1.7429                 1.5459                 1.5598
 IR Inten    --     27.8992                 5.7305                43.4587

                     97                     98                     99
                      A                      A                      A
 Frequencies --   1599.9706              1648.2595              1754.5208
 Red. masses --      3.5850                 4.2644                11.3935
 Frc consts  --      5.4070                 6.8259                20.6645
 IR Inten    --    194.3791               368.5773               318.2484

                    100                    101                    102
                      A                      A                      A
 Frequencies --   2993.0484              3016.2941              3019.0421
 Red. masses --      1.0633                 1.0538                 1.0693
 Frc consts  --      5.6122                 5.6485                 5.7424
 IR Inten    --     41.9257                51.1289                12.5573

                    103                    104                    105
                      A                      A                      A
 Frequencies --   3021.2528              3024.4400              3028.2561
 Red. masses --      1.0621                 1.0793                 1.0707
 Frc consts  --      5.7119                 5.8167                 5.7851
 IR Inten    --     22.4582                24.6289                 9.9917

                    106                    107                    108
                      A                      A                      A
 Frequencies --   3030.4639              3030.9173              3033.9837
 Red. masses --      1.0655                 1.0476                 1.0832
 Frc consts  --      5.7652                 5.6701                 5.8747
 IR Inten    --     10.9171                69.7481                19.8370

                    109                    110                    111
                      A                      A                      A
 Frequencies --   3039.1047              3046.7294              3062.8884
 Red. masses --      1.0694                 1.0711                 1.0935
 Frc consts  --      5.8196                 5.8577                 6.0443
 IR Inten    --     31.8615                36.2747                78.6966

                    112                    113                    114
                      A                      A                      A
 Frequencies --   3065.8827              3069.0614              3073.9605
 Red. masses --      1.1013                 1.1031                 1.0963
 Frc consts  --      6.0991                 6.1216                 6.1037
 IR Inten    --     15.7174                48.0289                78.7126

                    115                    116                    117
                      A                      A                      A
 Frequencies --   3077.6390              3083.1340              3101.6144
 Red. masses --      1.0981                 1.1012                 1.0940
 Frc consts  --      6.1283                 6.1676                 6.2005
 IR Inten    --     21.7433               139.4587                23.7324

                    118                    119                    120
                      A                      A                      A
 Frequencies --   3106.8249              3174.2996              3191.3389
 Red. masses --      1.0867                 1.0992                 1.0966
 Frc consts  --      6.1799                 6.5254                 6.5806
 IR Inten    --     25.4481                 8.2552                 9.1131

                    121                    122                    123
                      A                      A                      A
 Frequencies --   3269.2051              3543.3483              3678.2727
 Red. masses --      1.0964                 1.0757                 1.0806
 Frc consts  --      6.9037                 7.9570                 8.6143
 IR Inten    --      3.8037                52.1310                58.1814

 - Thermochemistry -
 -------------------
 Temperature   298.150 Kelvin.  Pressure   1.00000 Atm.
 Atom     1 has atomic number  6 and mass  12.00000

 Molecular mass:   264.19501 amu.
 Principal axes and moments of inertia in atomic units:
                           1         2         3
     Eigenvalues --  3316.457136997.827698715.54275
           X            0.99997   0.00388   0.00707
           Y           -0.00400   0.99985   0.01660
           Z           -0.00701  -0.01662   0.99984
 This molecule is an asymmetric top.
 Rotational symmetry number  1.
 Warning -- assumption of classical behavior for rotation
           may cause significant error
 Rotational temperatures (Kelvin)      0.02612     0.01238     0.00994
 Rotational constants (GHZ):           0.54418     0.25790     0.20707
 Zero-point vibrational energy    1005044.4 (Joules/Mol)
                                  240.21138 (Kcal/Mol)
 Warning -- explicit consideration of  29 degrees of freedom as
           vibrations may cause significant error
 Vibrational temperatures:     13.69    33.75    81.01    95.04   100.60
          (Kelvin)            169.73   182.05   224.23   225.57   240.50
                              271.51   288.69   300.13   374.56   398.39
                              424.17   441.19   461.02   473.73   520.97
                              528.94   551.29   573.44   620.70   637.01
                              703.61   735.14   809.19   846.64   924.99
                              963.72   986.33  1033.20  1044.18  1139.53
                             1143.35  1185.25  1188.40  1236.64  1249.94
                             1289.26  1324.04  1339.34  1386.73  1396.57
                             1424.94  1434.98  1452.58  1521.34  1526.66
                             1538.00  1557.36  1558.06  1598.34  1604.09
                             1632.79  1646.06  1681.86  1710.31  1720.37
                             1758.72  1778.51  1789.71  1803.74  1824.70
                             1831.27  1869.00  1891.92  1920.13  1931.07
                             1945.82  1959.73  1975.67  1987.69  2004.32
                             2017.12  2029.47  2034.23  2038.79  2039.88
                             2059.36  2092.72  2106.76  2150.75  2165.17
                             2174.66  2180.60  2183.55  2186.81  2187.22
                             2194.46  2201.00  2203.79  2214.86  2233.33
                             2234.85  2302.00  2371.48  2524.36  4306.33
                             4339.77  4343.73  4346.91  4351.49  4356.99
                             4360.16  4360.81  4365.23  4372.59  4383.56
                             4406.81  4411.12  4415.69  4422.74  4428.04
                             4435.94  4462.53  4470.03  4567.11  4591.62
                             4703.66  5098.09  5292.21

 Zero-point correction=                           0.382801 (Hartree/Particle)
 Thermal correction to Energy=                    0.401963
 Thermal correction to Enthalpy=                  0.402908
 Thermal correction to Gibbs Free Energy=         0.333664
 Sum of electronic and zero-point Energies=           -841.861631
 Sum of electronic and thermal Energies=              -841.842469
 Sum of electronic and thermal Enthalpies=            -841.841525
 Sum of electronic and thermal Free Energies=         -841.910768

                     E (Thermal)             CV                S
                      KCal/Mol        Cal/Mol-Kelvin    Cal/Mol-Kelvin
 Total                  252.236             72.983            145.735
 Electronic               0.000              0.000              0.000
 Translational            0.889              2.981             42.614
 Rotational               0.889              2.981             33.669
 Vibrational            250.458             67.022             69.451
 Vibration     1          0.593              1.987              8.110
 Vibration     2          0.593              1.985              6.317
 Vibration     3          0.596              1.975              4.583
 Vibration     4          0.597              1.970              4.267
 Vibration     5          0.598              1.968              4.156
 Vibration     6          0.608              1.934              3.133
 Vibration     7          0.611              1.927              2.998
 Vibration     8          0.620              1.896              2.600
 Vibration     9          0.620              1.895              2.588
 Vibration    10          0.624              1.883              2.467
 Vibration    11          0.633              1.855              2.240
 Vibration    12          0.638              1.839              2.127
 Vibration    13          0.642              1.828              2.056
 Vibration    14          0.668              1.745              1.660
 Vibration    15          0.678              1.716              1.553
 Vibration    16          0.689              1.683              1.446
 Vibration    17          0.697              1.661              1.380
 Vibration    18          0.706              1.634              1.308
 Vibration    19          0.712              1.617              1.264
 Vibration    20          0.736              1.550              1.113
 Vibration    21          0.740              1.539              1.090
 Vibration    22          0.752              1.506              1.027
 Vibration    23          0.765              1.473              0.968
 Vibration    24          0.792              1.402              0.854
 Vibration    25          0.802              1.377              0.818
 Vibration    26          0.845              1.274              0.686
 Vibration    27          0.866              1.226              0.631
 Vibration    28          0.918              1.113              0.519
 Vibration    29          0.946              1.056              0.470

 Optimization completed.
    -- Stationary point found.
 Normal termination of Gaussian 16 at Sat Dec 12 10:41:27 2020.

 ----------------------------------------------------------------------
 # B3LYP/6-311++G(d,p) empiricaldispersion=gd3bj scf=xqc pop=npa geom=c
 heck
 ----------------------------------------------------------------------

 ---------------------------------------
 CID_136569693_JID_9665_Energie_neutraal
 ---------------------------------------
 Structure from the checkpoint file:  "JID_9665.chk"
 Charge =  0 Multiplicity = 1

 SCF Done:  E(RB3LYP) =  -842.479001732     A.U. after   15 cycles
 Normal termination of Gaussian 16 at Sat Dec 12 10:51:04 2020.

 ----------------------------------------------------------------------
 # B3LYP/6-311++G(d,p) empiricaldispersion=gd3bj scf=xqc pop=npa geom=c
 heck
 ----------------------------------------------------------------------

 -------------------------------------
 CID_136569693_JID_9665_Energie_kation
 -------------------------------------
 Structure from the checkpoint file:  "JID_9665.chk"
 Charge =  1 Multiplicity = 2

 SCF Done:  E(UB3LYP) =  -842.196648968     A.U. after   25 cycles
 Normal termination of Gaussian 16 at Sat Dec 12 11:12:12 2020.
 Gaussian 16:  ES64L-G16RevA.03 25-Dec-2016

 ----------------------------------------------------------------------
 # B3LYP/6-311++G(d,p) empiricaldispersion=gd3bj scf=xqc pop=npa geom=c
 heck
 ----------------------------------------------------------------------

 ------------------------------------
 CID_136569693_JID_9665_Energie_anion
 ------------------------------------
 Structure from the checkpoint file:  "JID_9665.chk"
 Charge = -1 Multiplicity = 2

                         Standard orientation:
 ---------------------------------------------------------------------
 Center     Atomic      Atomic             Coordinates (Angstroms)
 Number     Number       Type             X           Y           Z
 ---------------------------------------------------------------------
      1          6           0        0.695207    3.167438   -0.232300
      2          7           0        1.145067    1.859651    0.238070
      3          6           0        1.127265    1.751187    1.701791
      4          6           0        2.280379    1.352759   -0.441326
      5          8           0        2.877353    2.025931   -1.273822
      6          6           0        2.617746   -0.041526   -0.155212
      7          6           0        1.736844   -1.079919    0.185736
      8          7           0        2.476596   -2.216053    0.171518
      9          7           0        3.796841   -2.001512   -0.158084
     10          6           0        3.860854   -0.698510   -0.368812
     11          7           0        0.396720   -1.033532    0.468605
     12          6           0       -0.461829   -2.188399    0.212032
     13          6           0       -1.933454   -1.772778    0.053939
     14          6           0       -2.454388   -1.015737    1.306792
     15          6           0       -2.524631    0.522196    1.245053
     16          6           0       -3.769147    1.065882    0.527269
     17          6           0       -3.761799    0.927999   -0.998577
     18          6           0       -3.556769   -0.495066   -1.536254
     19          6           0       -2.145610   -1.056897   -1.294256
     20          1           0       -0.312487    3.349610    0.155028
     21          1           0        0.677621    3.174693   -1.322219
     22          1           0        1.358083    3.977947    0.102494
     23          1           0        1.514337    0.783895    2.017852
     24          1           0        1.738003    2.543196    2.161223
     25          1           0        0.100540    1.852325    2.066258
     26          1           0        2.173662   -3.152857    0.385935
     27          1           0        4.793911   -0.238018   -0.663959
     28          1           0        0.013719   -0.131573    0.204509
     29          1           0       -0.132904   -2.721288   -0.694725
     30          1           0       -0.374002   -2.890107    1.053426
     31          1           0       -2.490366   -2.717689   -0.002167
     32          1           0       -3.464567   -1.375232    1.539685
     33          1           0       -1.831029   -1.307322    2.160425
     34          1           0       -1.624041    0.948846    0.785129
     35          1           0       -2.535878    0.894401    2.277355
     36          1           0       -3.887872    2.128655    0.776009
     37          1           0       -4.654693    0.556464    0.934746
     38          1           0       -2.968967    1.568875   -1.411814
     39          1           0       -4.708179    1.325136   -1.388220
     40          1           0       -3.742369   -0.478535   -2.617163
     41          1           0       -4.310071   -1.173093   -1.109596
     42          1           0       -1.421707   -0.238605   -1.412259
     43          1           0       -1.900139   -1.778817   -2.083389
 ---------------------------------------------------------------------

 SCF Done:  E(UB3LYP) =  -842.473494857     A.U. after   33 cycles
 SCF Done:  E(UB3LYP) =  -842.473494857     a.u. after    1 cycles

 The electronic state is 2-A.
 Alpha  occ. eigenvalues --  -19.00476 -14.29408 -14.25234 -14.24731 -14.24200
 Alpha  occ. eigenvalues --  -10.18614 -10.16846 -10.11645 -10.11532 -10.11036
 Alpha  occ. eigenvalues --  -10.10767 -10.08876 -10.08143 -10.07761 -10.07662
 Alpha  occ. eigenvalues --  -10.07610 -10.07581 -10.07357 -10.07310  -0.96108
 Alpha  occ. eigenvalues --   -0.95148  -0.86052  -0.84285  -0.74502  -0.73219
 Alpha  occ. eigenvalues --   -0.70622  -0.67862  -0.67216  -0.63483  -0.61198
 Alpha  occ. eigenvalues --   -0.60357  -0.56335  -0.54433  -0.53982  -0.51714
 Alpha  occ. eigenvalues --   -0.48490  -0.47082  -0.45987  -0.44332  -0.41676
 Alpha  occ. eigenvalues --   -0.40116  -0.39202  -0.39041  -0.38755  -0.37486
 Alpha  occ. eigenvalues --   -0.36400  -0.36113  -0.35229  -0.34247  -0.33602
 Alpha  occ. eigenvalues --   -0.33430  -0.32297  -0.31794  -0.31572  -0.31168
 Alpha  occ. eigenvalues --   -0.30503  -0.29506  -0.29068  -0.28874  -0.27981
 Alpha  occ. eigenvalues --   -0.24647  -0.24197  -0.23748  -0.22949  -0.21963
 Alpha  occ. eigenvalues --   -0.21887  -0.21681  -0.21146  -0.18868  -0.17391
 Alpha  occ. eigenvalues --   -0.16135  -0.12613   0.03564
 Alpha virt. eigenvalues --    0.05503   0.06044   0.06804   0.07017   0.07746
 Alpha virt. eigenvalues --    0.08268   0.08448   0.08862   0.09115   0.09927
 Alpha virt. eigenvalues --    0.10262   0.10473   0.10858   0.11178   0.11338

  Beta  occ. eigenvalues --  -19.00463 -14.29384 -14.25231 -14.24732 -14.24199
  Beta  occ. eigenvalues --  -10.18601 -10.16838 -10.11607 -10.11512 -10.11024
  Beta  occ. eigenvalues --  -10.10765 -10.08864 -10.08143 -10.07749 -10.07647
  Beta  occ. eigenvalues --  -10.07597 -10.07572 -10.07339 -10.07289  -0.96089
  Beta  occ. eigenvalues --   -0.95125  -0.86040  -0.84272  -0.74470  -0.73186
  Beta  occ. eigenvalues --   -0.70597  -0.67835  -0.67183  -0.63459  -0.61154
  Beta  occ. eigenvalues --   -0.60321  -0.56288  -0.54389  -0.53948  -0.51681
  Beta  occ. eigenvalues --   -0.48453  -0.47043  -0.45940  -0.44300  -0.41642
  Beta  occ. eigenvalues --   -0.40096  -0.39175  -0.38990  -0.38731  -0.37463
  Beta  occ. eigenvalues --   -0.36370  -0.36081  -0.35197  -0.34219  -0.33572
  Beta  occ. eigenvalues --   -0.33409  -0.32280  -0.31775  -0.31537  -0.31148
  Beta  occ. eigenvalues --   -0.30456  -0.29489  -0.29018  -0.28832  -0.27941
  Beta  occ. eigenvalues --   -0.24619  -0.24165  -0.23716  -0.22907  -0.21927
  Beta  occ. eigenvalues --   -0.21851  -0.21646  -0.21132  -0.18845  -0.17374
  Beta  occ. eigenvalues --   -0.16113  -0.12601
  Beta virt. eigenvalues --    0.05631   0.06391   0.06660   0.07183   0.07376
  Beta virt. eigenvalues --    0.08197   0.08555   0.08743   0.09211   0.09362
  Beta virt. eigenvalues --    0.10338   0.10362   0.10620   0.11050   0.11458

 Mulliken charges and spin densities:
               1          2
     1  C   -0.095126  -0.240373
     2  N   -0.083134   0.030093
     3  C   -0.099319  -0.289624
     4  C   -0.998337   0.009986
     5  O   -0.292762   0.007152
     6  C    1.230124  -0.245431
     7  C   -0.232528  -0.178899
     8  N   -0.129125  -0.004316
     9  N   -0.218477   0.057711
    10  C   -0.287557   0.172808
    11  N    0.153526   0.046664
    12  C    0.350339  -1.101645
    13  C   -0.375259   0.539541
    14  C    0.459742  -0.889754
    15  C   -0.637374   0.683173
    16  C    0.194917  -0.725244
    17  C   -0.318167   0.131613
    18  C    0.632991  -1.203001
    19  C   -0.214452   0.129191
    20  H   -0.152711   0.306355
    21  H    0.166955   0.012289
    22  H    0.052296   0.100252
    23  H    0.061001   0.126690
    24  H   -0.038922   0.201400
    25  H   -0.190842   0.344858
    26  H    0.025298   0.293480
    27  H    0.158448   0.023612
    28  H    0.280821  -0.063723
    29  H   -0.047964   0.208379
    30  H   -0.686077   0.890443
    31  H   -0.367974   0.595106
    32  H   -0.192137   0.365662
    33  H    0.034656   0.162187
    34  H    1.382233  -1.451158
    35  H   -0.254193   0.445883
    36  H   -0.191290   0.341761
    37  H   -0.091857   0.239314
    38  H    0.160055  -0.037389
    39  H   -0.154690   0.323080
    40  H   -0.071750   0.239172
    41  H    0.022774   0.115952
    42  H    0.053764   0.104817
    43  H    0.002081   0.181934
 Sum of Mulliken charges =  -1.00000   1.00000

 Dipole moment (field-independent basis, Debye):
    X=              1.5430    Y=              3.2773    Z=             -0.8387  Tot=              3.7182
 Quadrupole moment (field-independent basis, Debye-Ang):
   XX=           -199.7709   YY=           -179.3944   ZZ=           -158.5935
   XY=             -0.0899   XZ=              8.9600   YZ=              3.3713

 Summary of Natural Population Analysis:

                                       Natural Population
                Natural  -----------------------------------------------
    Atom  No    Charge         Core      Valence    Rydberg      Total
 -----------------------------------------------------------------------
      C    1   -0.17901      0.99965     2.17061    0.00876     3.17901
      N    2   -0.27950      0.99969     2.77105    0.00876     3.77950
      C    3   -0.17967      0.99963     2.17226    0.00778     3.17967
      C    4    0.34375      0.99959     1.63443    0.02223     2.65625
      O    5   -0.31170      0.99988     3.30682    0.00500     4.31170
      C    6   -0.15668      0.99942     2.14721    0.01005     3.15668
      C    7    0.21022      0.99951     1.77767    0.01260     2.78978
      N    8   -0.18804      0.99965     2.67696    0.01142     3.68804
      N    9   -0.16470      0.99974     2.65210    0.01286     3.66470
      C   10    0.01841      0.99961     1.96805    0.01393     2.98159
      N   11   -0.32599      0.99966     2.81649    0.00985     3.82599
      C   12   -0.08280      0.99959     2.07045    0.01277     3.08280
      C   13   -0.11221      0.99958     2.10007    0.01256     3.11221
      C   14   -0.19349      0.99961     2.18396    0.00993     3.19349
      C   15   -0.19484      0.99962     2.18613    0.00909     3.19484
      C   16   -0.18636      0.99962     2.17862    0.00812     3.18636
      C   17   -0.18667      0.99962     2.17908    0.00796     3.18667
      C   18   -0.19071      0.99962     2.18319    0.00790     3.19071
      C   19   -0.19129      0.99961     2.18239    0.00929     3.19129
      H   20    0.09509      0.00000     0.40396    0.00095     0.40491
      H   21    0.10676      0.00000     0.39248    0.00076     0.39324
      H   22    0.09081      0.00000     0.40821    0.00099     0.40919
      H   23    0.10812      0.00000     0.39078    0.00110     0.39188
      H   24    0.08863      0.00000     0.41038    0.00100     0.41137
      H   25    0.09887      0.00000     0.39999    0.00114     0.40113
      H   26    0.20388      0.00000     0.29277    0.00335     0.29612
      H   27    0.10143      0.00000     0.39769    0.00088     0.39857
      H   28    0.20240      0.00000     0.29298    0.00461     0.29760
      H   29    0.09197      0.00000     0.40619    0.00184     0.40803
      H   30    0.09810      0.00000     0.39949    0.00241     0.40190
      H   31    0.10474      0.00000     0.39326    0.00200     0.39526
      H   32    0.09976      0.00000     0.39867    0.00157     0.40024
      H   33    0.10398      0.00000     0.39440    0.00163     0.39602
      H   34    0.08865      0.00000     0.40847    0.00289     0.41135
      H   35    0.10149      0.00000     0.39717    0.00135     0.39851
      H   36    0.09810      0.00000     0.40080    0.00110     0.40190
      H   37    0.09311      0.00000     0.40548    0.00141     0.40689
      H   38    0.09070      0.00000     0.40791    0.00139     0.40930
      H   39    0.09757      0.00000     0.40150    0.00093     0.40243
      H   40    0.09839      0.00000     0.40069    0.00092     0.40161
      H   41    0.09561      0.00000     0.40310    0.00128     0.40439
      H   42    0.09081      0.00000     0.40710    0.00209     0.40919
      H   43    0.10232      0.00000     0.39659    0.00109     0.39768
 =======================================================================
   * Total *   -0.00000     18.99288    52.76759    0.23953    72.00000

 Normal termination of Gaussian 16 at Sat Dec 12 11:40:39 2020.
