 Gaussian 16, Revision A.03,

 -----------------------------------------------------------
 # opt freq B3LYP/6-31G(d) empiricaldispersion=gd3bj scf=xqc
 -----------------------------------------------------------

 ------------------------------
 CID_17826883_JID_2820_neutraal
 ------------------------------
 Symbolic Z-matrix:
 Charge =  0 Multiplicity = 1

 SCF Done:  E(RB3LYP) =  -595.544775097     A.U. after   14 cycles
 SCF Done:  E(RB3LYP) =  -595.548719243     A.U. after   12 cycles
 SCF Done:  E(RB3LYP) =  -595.548673522     A.U. after   12 cycles
 SCF Done:  E(RB3LYP) =  -595.549143173     A.U. after   11 cycles
 SCF Done:  E(RB3LYP) =  -595.549262963     A.U. after   11 cycles
 SCF Done:  E(RB3LYP) =  -595.549320245     A.U. after   11 cycles
 SCF Done:  E(RB3LYP) =  -595.549389439     A.U. after   10 cycles
 SCF Done:  E(RB3LYP) =  -595.549431204     A.U. after   11 cycles
 SCF Done:  E(RB3LYP) =  -595.549444036     A.U. after   10 cycles
 SCF Done:  E(RB3LYP) =  -595.549449287     A.U. after    9 cycles
 SCF Done:  E(RB3LYP) =  -595.549453729     A.U. after   10 cycles
 SCF Done:  E(RB3LYP) =  -595.549454859     A.U. after    9 cycles
 SCF Done:  E(RB3LYP) =  -595.549455374     A.U. after    8 cycles
 Optimization completed.
    -- Stationary point found.
 Normal termination of Gaussian 16 at Wed Dec  9 18:05:56 2020.

 --------------------------------------------------------------------
 #N Geom=AllCheck Guess=TCheck SCRF=Check GenChk RB3LYP/6-31G(d) Freq
 --------------------------------------------------------------------

 Structure from the checkpoint file:  "JID_2820.chk"
 ------------------------------
 CID_17826883_JID_2820_neutraal
 ------------------------------
 Charge =  0 Multiplicity = 1

 SCF Done:  E(RB3LYP) =  -595.549455374     A.U. after    1 cycles

  Exact polarizability: 108.915   0.192  96.213  -1.500   4.705  92.841
 Approx polarizability: 136.273  -1.222 134.070  -6.218  10.950 137.196

                      1                      2                      3
                      A                      A                      A
 Frequencies --     29.0781                52.8539                56.8160
 Red. masses --      7.4064                 3.8136                 2.9484
 Frc consts  --      0.0037                 0.0063                 0.0056
 IR Inten    --      1.9366                 0.6598                 0.8431

                      4                      5                      6
                      A                      A                      A
 Frequencies --     82.9052                93.7347               108.4370
 Red. masses --      2.9477                 2.8769                 3.6135
 Frc consts  --      0.0119                 0.0149                 0.0250
 IR Inten    --      2.7370                 1.4384                 0.1862

                      7                      8                      9
                      A                      A                      A
 Frequencies --    178.8101               196.6775               212.6678
 Red. masses --      2.9197                 2.1338                 1.8672
 Frc consts  --      0.0550                 0.0486                 0.0498
 IR Inten    --      0.8005                 0.3728                 3.9312

                     10                     11                     12
                      A                      A                      A
 Frequencies --    227.9894               251.5371               274.6621
 Red. masses --      1.2022                 1.2750                 2.2056
 Frc consts  --      0.0368                 0.0475                 0.0980
 IR Inten    --     47.0603                 4.1544                 2.1585

                     13                     14                     15
                      A                      A                      A
 Frequencies --    309.6878               347.0746               383.4660
 Red. masses --      2.3654                 2.4940                 2.0675
 Frc consts  --      0.1337                 0.1770                 0.1791
 IR Inten    --      2.2410                 2.5630                 1.4207

                     16                     17                     18
                      A                      A                      A
 Frequencies --    401.5222               451.1598               482.6557
 Red. masses --      2.9591                 2.9695                 4.9072
 Frc consts  --      0.2811                 0.3561                 0.6735
 IR Inten    --      5.0223                 3.0563                10.0180

                     19                     20                     21
                      A                      A                      A
 Frequencies --    501.1946               572.6433               624.9202
 Red. masses --      2.4387                 3.0094                 2.2552
 Frc consts  --      0.3609                 0.5814                 0.5189
 IR Inten    --      3.4299                26.7545                11.6642

                     22                     23                     24
                      A                      A                      A
 Frequencies --    670.0000               739.9858               781.1636
 Red. masses --      1.4875                 2.7391                 2.4935
 Frc consts  --      0.3934                 0.8837                 0.8965
 IR Inten    --     99.7968                26.9140                19.7415

                     25                     26                     27
                      A                      A                      A
 Frequencies --    800.5347               858.8461               889.1945
 Red. masses --      2.3986                 1.4975                 1.8658
 Frc consts  --      0.9057                 0.6508                 0.8692
 IR Inten    --     17.1508                67.9726                57.9701

                     28                     29                     30
                      A                      A                      A
 Frequencies --    894.7275               909.8679               979.2491
 Red. masses --      2.6250                 1.9197                 1.9544
 Frc consts  --      1.2381                 0.9364                 1.1042
 IR Inten    --     13.3519                 3.1500                18.8624

                     31                     32                     33
                      A                      A                      A
 Frequencies --   1014.4184              1022.0149              1055.6287
 Red. masses --      1.8453                 2.1020                 1.7194
 Frc consts  --      1.1188                 1.2936                 1.1289
 IR Inten    --      4.6572                 9.7043                 5.7694

                     34                     35                     36
                      A                      A                      A
 Frequencies --   1077.0454              1112.5895              1130.4487
 Red. masses --      1.8609                 1.5872                 3.6183
 Frc consts  --      1.2718                 1.1576                 2.7243
 IR Inten    --      4.9805                15.5001               124.4374

                     37                     38                     39
                      A                      A                      A
 Frequencies --   1141.8181              1181.0785              1191.9179
 Red. masses --      2.5850                 2.0380                 1.3660
 Frc consts  --      1.9857                 1.6750                 1.1434
 IR Inten    --      2.0419                66.1549                23.0543

                     40                     41                     42
                      A                      A                      A
 Frequencies --   1196.8632              1211.3886              1226.5466
 Red. masses --      1.9509                 1.5434                 1.4774
 Frc consts  --      1.6466                 1.3345                 1.3096
 IR Inten    --     95.5230                81.8536                62.3640

                     43                     44                     45
                      A                      A                      A
 Frequencies --   1270.2869              1281.2772              1310.2303
 Red. masses --      1.2714                 1.4279                 1.3858
 Frc consts  --      1.2087                 1.3811                 1.4016
 IR Inten    --     17.7464                 5.5368                 9.9070

                     46                     47                     48
                      A                      A                      A
 Frequencies --   1352.5376              1368.7071              1380.7952
 Red. masses --      1.3615                 1.3675                 1.5653
 Frc consts  --      1.4675                 1.5094                 1.7583
 IR Inten    --     16.5208                 0.1940                16.5578

                     49                     50                     51
                      A                      A                      A
 Frequencies --   1393.3834              1405.3263              1413.5810
 Red. masses --      1.8060                 1.2112                 1.4000
 Frc consts  --      2.0659                 1.4093                 1.6482
 IR Inten    --     24.1064                27.2302                 1.7190

                     52                     53                     54
                      A                      A                      A
 Frequencies --   1420.6826              1438.8131              1442.0496
 Red. masses --      1.4690                 1.3188                 1.3967
 Frc consts  --      1.7469                 1.6086                 1.7113
 IR Inten    --      3.3631                 8.6273                15.1500

                     55                     56                     57
                      A                      A                      A
 Frequencies --   1500.7572              1505.5109              1513.9948
 Red. masses --      1.1274                 1.0873                 1.0560
 Frc consts  --      1.4960                 1.4521                 1.4261
 IR Inten    --      1.8530                 1.2498                 7.9454

                     58                     59                     60
                      A                      A                      A
 Frequencies --   1518.3550              1531.9612              1540.0661
 Red. masses --      1.0660                 1.0760                 1.0534
 Frc consts  --      1.4480                 1.4878                 1.4720
 IR Inten    --      1.4097                10.6166                 2.9608

                     61                     62                     63
                      A                      A                      A
 Frequencies --   1544.3744              1546.9960              1699.0142
 Red. masses --      1.0691                 1.0762                 1.0882
 Frc consts  --      1.5024                 1.5175                 1.8508
 IR Inten    --      5.6858                13.4651                30.5794

                     64                     65                     66
                      A                      A                      A
 Frequencies --   1836.9004              2964.9285              2997.7462
 Red. masses --      9.6441                 1.0828                 1.0407
 Frc consts  --     19.1727                 5.6083                 5.5104
 IR Inten    --    258.7219                50.7229                81.0592

                     67                     68                     69
                      A                      A                      A
 Frequencies --   3035.2572              3045.4392              3050.3841
 Red. masses --      1.0694                 1.0623                 1.0936
 Frc consts  --      5.8049                 5.8051                 5.9955
 IR Inten    --     40.9631                33.6543                49.4851

                     70                     71                     72
                      A                      A                      A
 Frequencies --   3061.5197              3068.0052              3073.3558
 Red. masses --      1.0433                 1.0737                 1.0783
 Frc consts  --      5.7617                 5.9544                 6.0011
 IR Inten    --     20.2427                 2.7518                 8.0568

                     73                     74                     75
                      A                      A                      A
 Frequencies --   3082.7306              3111.6475              3124.9107
 Red. masses --      1.0933                 1.0998                 1.0943
 Frc consts  --      6.1213                 6.2742                 6.2961
 IR Inten    --     38.4860                39.1604                10.4780

                     76                     77                     78
                      A                      A                      A
 Frequencies --   3125.4796              3135.5886              3137.7127
 Red. masses --      1.1011                 1.0981                 1.1018
 Frc consts  --      6.3372                 6.3612                 6.3911
 IR Inten    --     34.6848                18.2282                36.9214

                     79                     80                     81
                      A                      A                      A
 Frequencies --   3477.9470              3562.8002              3681.7586
 Red. masses --      1.0501                 1.0923                 1.0638
 Frc consts  --      7.4842                 8.1693                 8.4962
 IR Inten    --      1.4333                 0.1093                41.1069

 - Thermochemistry -
 -------------------
 Temperature   298.150 Kelvin.  Pressure   1.00000 Atm.
 Atom     1 has atomic number  6 and mass  12.00000

 Molecular mass:   175.12084 amu.
 Principal axes and moments of inertia in atomic units:
                           1         2         3
     Eigenvalues --  1396.155083437.577663675.33624
           X            0.99970  -0.01701   0.01763
           Y            0.01675   0.99976   0.01435
           Z           -0.01787  -0.01405   0.99974
 This molecule is an asymmetric top.
 Rotational symmetry number  1.
 Warning -- assumption of classical behavior for rotation
           may cause significant error
 Rotational temperatures (Kelvin)      0.06204     0.02520     0.02357
 Rotational constants (GHZ):           1.29265     0.52500     0.49104
 Zero-point vibrational energy     675164.2 (Joules/Mol)
                                  161.36811 (Kcal/Mol)
 Warning -- explicit consideration of  20 degrees of freedom as
           vibrations may cause significant error
 Vibrational temperatures:     41.84    76.05    81.75   119.28   134.86
          (Kelvin)            156.02   257.27   282.98   305.98   328.03
                              361.91   395.18   445.57   499.36   551.72
                              577.70   649.12   694.43   721.11   823.91
                              899.12   963.98  1064.67  1123.92  1151.79
                             1235.69  1279.35  1287.31  1309.10  1408.92
                             1459.52  1470.45  1518.81  1549.63  1600.77
                             1626.46  1642.82  1699.31  1714.90  1722.02
                             1742.92  1764.73  1827.66  1843.47  1885.13
                             1946.00  1969.26  1986.66  2004.77  2021.95
                             2033.83  2044.05  2070.13  2074.79  2159.25
                             2166.09  2178.30  2184.57  2204.15  2215.81
                             2222.01  2225.78  2444.50  2642.89  4265.87
                             4313.09  4367.06  4381.71  4388.82  4404.84
                             4414.18  4421.87  4435.36  4476.97  4496.05
                             4496.87  4511.41  4514.47  5003.99  5126.07
                             5297.23

 Zero-point correction=                           0.257156 (Hartree/Particle)
 Thermal correction to Energy=                    0.271429
 Thermal correction to Enthalpy=                  0.272373
 Thermal correction to Gibbs Free Energy=         0.215100
 Sum of electronic and zero-point Energies=           -595.292299
 Sum of electronic and thermal Energies=              -595.278026
 Sum of electronic and thermal Enthalpies=            -595.277082
 Sum of electronic and thermal Free Energies=         -595.334355

                     E (Thermal)             CV                S
                      KCal/Mol        Cal/Mol-Kelvin    Cal/Mol-Kelvin
 Total                  170.324             51.334            120.541
 Electronic               0.000              0.000              0.000
 Translational            0.889              2.981             41.388
 Rotational               0.889              2.981             31.245
 Vibrational            168.547             45.373             47.908
 Vibration     1          0.593              1.984              5.891
 Vibration     2          0.596              1.976              4.708
 Vibration     3          0.596              1.975              4.565
 Vibration     4          0.600              1.961              3.821
 Vibration     5          0.603              1.954              3.581
 Vibration     6          0.606              1.942              3.297
 Vibration     7          0.629              1.868              2.341
 Vibration     8          0.636              1.845              2.164
 Vibration     9          0.644              1.822              2.021
 Vibration    10          0.651              1.798              1.895
 Vibration    11          0.664              1.760              1.720
 Vibration    12          0.677              1.720              1.567
 Vibration    13          0.699              1.655              1.364
 Vibration    14          0.725              1.581              1.179
 Vibration    15          0.753              1.505              1.025
 Vibration    16          0.767              1.467              0.957
 Vibration    17          0.810              1.358              0.792
 Vibration    18          0.839              1.289              0.703
 Vibration    19          0.857              1.247              0.655
 Vibration    20          0.929              1.090              0.499

                           ! Non-Optimized Parameters !
 Normal termination of Gaussian 16 at Wed Dec  9 18:13:16 2020.

 ----------------------------------------------------------------------
 # B3LYP/6-311++G(d,p) empiricaldispersion=gd3bj scf=xqc pop=npa geom=c
 heck
 ----------------------------------------------------------------------

 --------------------------------------
 CID_17826883_JID_2820_Energie_neutraal
 --------------------------------------
 Structure from the checkpoint file:  "JID_2820.chk"
 Charge =  0 Multiplicity = 1

 SCF Done:  E(RB3LYP) =  -595.743477170     A.U. after   14 cycles
 Normal termination of Gaussian 16 at Wed Dec  9 18:16:18 2020.

 ----------------------------------------------------------------------
 # B3LYP/6-311++G(d,p) empiricaldispersion=gd3bj scf=xqc pop=npa geom=c
 heck
 ----------------------------------------------------------------------

 ------------------------------------
 CID_17826883_JID_2820_Energie_kation
 ------------------------------------
 Structure from the checkpoint file:  "JID_2820.chk"
 Charge =  1 Multiplicity = 2

 SCF Done:  E(UB3LYP) =  -595.422951219     A.U. after   21 cycles
 Normal termination of Gaussian 16 at Wed Dec  9 18:22:05 2020.
 Gaussian 16:  ES64L-G16RevA.03 25-Dec-2016

 ----------------------------------------------------------------------
 # B3LYP/6-311++G(d,p) empiricaldispersion=gd3bj scf=xqc pop=npa geom=c
 heck
 ----------------------------------------------------------------------

 -----------------------------------
 CID_17826883_JID_2820_Energie_anion
 -----------------------------------
 Structure from the checkpoint file:  "JID_2820.chk"
 Charge = -1 Multiplicity = 2

                         Standard orientation:
 ---------------------------------------------------------------------
 Center     Atomic      Atomic             Coordinates (Angstroms)
 Number     Number       Type             X           Y           Z
 ---------------------------------------------------------------------
      1          6           0        2.449773   -1.693135   -0.067602
      2          6           0        2.256705   -0.250035   -0.540036
      3          6           0        1.076287   -0.079254   -1.504242
      4          6           0       -0.282857   -0.631257   -1.045625
      5          6           0       -0.877605    0.033548    0.207808
      6          6           0       -1.077933    1.552079    0.062048
      7          7           0       -1.934826    1.848205   -1.094558
      8          6           0       -2.198816   -0.578215    0.649861
      9          8           0       -2.900215   -0.133459    1.533246
     10          8           0       -2.528092   -1.717184   -0.011021
     11          8           0        2.051417    0.648199    0.553213
     12          6           0        3.189958    0.869558    1.357910
     13          1           0        1.610566   -2.013472    0.557369
     14          1           0        3.369309   -1.805725    0.514979
     15          1           0        2.517377   -2.369395   -0.926995
     16          1           0        3.169633    0.067895   -1.073603
     17          1           0        0.999644    0.988701   -1.742418
     18          1           0        1.346618   -0.584907   -2.440462
     19          1           0       -0.998245   -0.521567   -1.868381
     20          1           0       -0.199859   -1.708569   -0.874222
     21          1           0       -0.188489   -0.109033    1.049125
     22          1           0       -1.590780    1.904951    0.960075
     23          1           0       -0.089924    2.031629    0.031754
     24          1           0       -2.303099    2.793245   -1.015671
     25          1           0       -1.384512    1.830783   -1.951106
     26          1           0       -3.379224   -1.999382    0.373712
     27          1           0        2.935997    1.675413    2.051260
     28          1           0        3.474902   -0.017644    1.941217
     29          1           0        4.055915    1.179464    0.751044
 ---------------------------------------------------------------------

 SCF Done:  E(UB3LYP) =  -595.730577043     A.U. after   31 cycles

 The electronic state is 2-A.
 Alpha  occ. eigenvalues --  -19.07567 -19.02113 -19.01469 -14.19190 -10.20569
 Alpha  occ. eigenvalues --  -10.11812 -10.10825 -10.08762 -10.08150 -10.06369
 Alpha  occ. eigenvalues --  -10.06328 -10.05629  -1.01405  -0.93381  -0.92185
 Alpha  occ. eigenvalues --   -0.78420  -0.70832  -0.67040  -0.60940  -0.58784
 Alpha  occ. eigenvalues --   -0.55642  -0.53154  -0.47796  -0.45465  -0.41135
 Alpha  occ. eigenvalues --   -0.40591  -0.39135  -0.38516  -0.36874  -0.35957
 Alpha  occ. eigenvalues --   -0.35435  -0.33828  -0.32858  -0.31186  -0.30286
 Alpha  occ. eigenvalues --   -0.29323  -0.28981  -0.27778  -0.27701  -0.25754
 Alpha  occ. eigenvalues --   -0.24415  -0.23836  -0.22613  -0.22235  -0.20353
 Alpha  occ. eigenvalues --   -0.18172  -0.15919  -0.14500   0.04390
 Alpha virt. eigenvalues --    0.06558   0.06787   0.07544   0.08526   0.09227
 Alpha virt. eigenvalues --    0.09792   0.09896   0.10921   0.11195   0.11866
 Alpha virt. eigenvalues --    0.12502   0.12872   0.13613   0.14185   0.14378

  Beta  occ. eigenvalues --  -19.07553 -19.02102 -19.01462 -14.19154 -10.20565
  Beta  occ. eigenvalues --  -10.11796 -10.10786 -10.08752 -10.08147 -10.06355
  Beta  occ. eigenvalues --  -10.06304 -10.05591  -1.01383  -0.93364  -0.92167
  Beta  occ. eigenvalues --   -0.78367  -0.70795  -0.66999  -0.60888  -0.58711
  Beta  occ. eigenvalues --   -0.55591  -0.53096  -0.47745  -0.45409  -0.41099
  Beta  occ. eigenvalues --   -0.40548  -0.39116  -0.38476  -0.36821  -0.35920
  Beta  occ. eigenvalues --   -0.35403  -0.33786  -0.32820  -0.31157  -0.30244
  Beta  occ. eigenvalues --   -0.29280  -0.28949  -0.27748  -0.27666  -0.25724
  Beta  occ. eigenvalues --   -0.24376  -0.23801  -0.22586  -0.22210  -0.20304
  Beta  occ. eigenvalues --   -0.18153  -0.15886  -0.14464
  Beta virt. eigenvalues --    0.06580   0.07234   0.07679   0.08265   0.09195
  Beta virt. eigenvalues --    0.09466   0.10329   0.10414   0.11324   0.11592
  Beta virt. eigenvalues --    0.12317   0.12823   0.13320   0.13882   0.14478

 Mulliken charges and spin densities:
               1          2
     1  C    1.485090  -2.127758
     2  C   -1.329901   1.325379
     3  C    1.072514  -1.560706
     4  C   -0.936250   0.300604
     5  C    0.538623   0.038686
     6  C    0.604823  -1.403001
     7  N   -0.551988   0.169123
     8  C   -0.399162   0.458860
     9  O   -0.278247  -0.008293
    10  O   -0.163497   0.008492
    11  O   -0.131588   0.019956
    12  C    0.901308  -1.147948
    13  H   -0.260155   0.430825
    14  H   -0.337712   0.487122
    15  H   -0.175819   0.315031
    16  H   -0.409086   0.568819
    17  H   -0.168040   0.344141
    18  H   -0.430924   0.610415
    19  H    0.034363   0.187902
    20  H    0.135599   0.045383
    21  H    0.293788  -0.052165
    22  H    0.151217   0.043664
    23  H    0.084140   0.089284
    24  H   -0.072102   0.311802
    25  H    0.006882   0.209750
    26  H    0.061206   0.208206
    27  H   -0.102033   0.228895
    28  H   -0.244647   0.383534
    29  H   -0.378401   0.514000
 Sum of Mulliken charges =  -1.00000   1.00000

 Dipole moment (field-independent basis, Debye):
    X=             -4.0988    Y=             -0.5930    Z=              1.4801  Tot=              4.3980
 Quadrupole moment (field-independent basis, Debye-Ang):
   XX=           -145.4124   YY=           -111.2864   ZZ=           -114.0740
   XY=              7.6470   XZ=              1.1195   YZ=              1.7529

 Summary of Natural Population Analysis:

                                       Natural Population
                Natural  -----------------------------------------------
    Atom  No    Charge         Core      Valence    Rydberg      Total
 -----------------------------------------------------------------------
      C    1   -0.30189      0.99964     2.29612    0.00613     3.30189
      C    2    0.06814      0.99956     1.91742    0.01488     2.93186
      C    3   -0.19518      0.99960     2.18510    0.01048     3.19518
      C    4   -0.19724      0.99961     2.18753    0.01010     3.19724
      C    5   -0.16348      0.99952     2.15315    0.01081     3.16348
      C    6   -0.09127      0.99961     2.07989    0.01177     3.09127
      N    7   -0.42815      0.99977     2.91807    0.01031     3.92815
      C    8    0.42115      0.99968     1.55340    0.02576     2.57885
      O    9   -0.31682      0.99987     3.31091    0.00604     4.31682
      O   10   -0.34469      0.99988     3.33856    0.00625     4.34469
      O   11   -0.30936      0.99988     3.29821    0.01127     4.30936
      C   12   -0.09654      0.99961     2.08750    0.00944     3.09654
      H   13    0.09919      0.00000     0.39968    0.00112     0.40081
      H   14    0.10319      0.00000     0.39533    0.00148     0.39681
      H   15    0.10354      0.00000     0.39524    0.00121     0.39646
      H   16    0.08198      0.00000     0.41553    0.00250     0.41802
      H   17    0.10054      0.00000     0.39742    0.00204     0.39946
      H   18    0.10310      0.00000     0.39565    0.00125     0.39690
      H   19    0.10535      0.00000     0.39315    0.00150     0.39465
      H   20    0.10462      0.00000     0.39368    0.00171     0.39538
      H   21    0.12416      0.00000     0.37385    0.00199     0.37584
      H   22    0.09966      0.00000     0.39918    0.00116     0.40034
      H   23    0.09305      0.00000     0.40507    0.00188     0.40695
      H   24    0.17659      0.00000     0.32174    0.00167     0.32341
      H   25    0.17493      0.00000     0.32298    0.00209     0.32507
      H   26    0.23692      0.00000     0.25907    0.00401     0.26308
      H   27    0.08870      0.00000     0.41032    0.00098     0.41130
      H   28    0.07984      0.00000     0.41859    0.00157     0.42016
      H   29    0.07996      0.00000     0.41821    0.00183     0.42004
 =======================================================================
   * Total *    0.00000     11.99622    35.84054    0.16324    48.00000

 Normal termination of Gaussian 16 at Wed Dec  9 18:29:47 2020.
