 Gaussian 16, Revision A.03,

 -----------------------------------------------------------
 # opt freq B3LYP/6-31G(d) empiricaldispersion=gd3bj scf=xqc
 -----------------------------------------------------------

 -------------------------------
 CID_102041797_JID_7638_neutraal
 -------------------------------
 Symbolic Z-matrix:
 Charge =  0 Multiplicity = 1

 SCF Done:  E(RB3LYP) =  -677.035914977     A.U. after   14 cycles
 SCF Done:  E(RB3LYP) =  -677.042150551     A.U. after   12 cycles
 SCF Done:  E(RB3LYP) =  -677.044033327     A.U. after   12 cycles
 SCF Done:  E(RB3LYP) =  -677.046837146     A.U. after   12 cycles
 SCF Done:  E(RB3LYP) =  -677.049235277     A.U. after   13 cycles
 SCF Done:  E(RB3LYP) =  -677.050306632     A.U. after   14 cycles
 SCF Done:  E(RB3LYP) =  -677.050640646     A.U. after   14 cycles
 SCF Done:  E(RB3LYP) =  -677.050666529     A.U. after   14 cycles
 SCF Done:  E(RB3LYP) =  -677.051536679     A.U. after   12 cycles
 SCF Done:  E(RB3LYP) =  -677.052146615     A.U. after   12 cycles
 SCF Done:  E(RB3LYP) =  -677.052320433     A.U. after   10 cycles
 SCF Done:  E(RB3LYP) =  -677.052325396     A.U. after   10 cycles
 SCF Done:  E(RB3LYP) =  -677.052325551     A.U. after    8 cycles
 SCF Done:  E(RB3LYP) =  -677.052325635     A.U. after    7 cycles
 SCF Done:  E(RB3LYP) =  -677.052325708     A.U. after    7 cycles
 Optimization completed.
    -- Stationary point found.
 Normal termination of Gaussian 16 at Fri Dec 11 13:11:44 2020.

 --------------------------------------------------------------------
 #N Geom=AllCheck Guess=TCheck SCRF=Check GenChk RB3LYP/6-31G(d) Freq
 --------------------------------------------------------------------

 Structure from the checkpoint file:  "JID_7638.chk"
 -------------------------------
 CID_102041797_JID_7638_neutraal
 -------------------------------
 Charge =  0 Multiplicity = 1

 SCF Done:  E(RB3LYP) =  -677.052325708     A.U. after    1 cycles

  Exact polarizability: 195.257   3.664 162.797  -8.535  12.292 136.500
 Approx polarizability: 262.791  10.817 255.250 -13.884  29.060 223.881

                      1                      2                      3
                      A                      A                      A
 Frequencies --     25.2869                44.5250                58.1444
 Red. masses --      3.8438                 4.0313                 3.2530
 Frc consts  --      0.0014                 0.0047                 0.0065
 IR Inten    --      0.0418                 0.0646                 0.1317

                      4                      5                      6
                      A                      A                      A
 Frequencies --     73.6783                79.6349               118.4305
 Red. masses --      3.7102                 2.6600                 2.3583
 Frc consts  --      0.0119                 0.0099                 0.0195
 IR Inten    --      0.0939                 0.2245                 0.0977

                      7                      8                      9
                      A                      A                      A
 Frequencies --    119.4309               137.8908               166.6612
 Red. masses --      1.3108                 3.3466                 2.7924
 Frc consts  --      0.0110                 0.0375                 0.0457
 IR Inten    --      0.8013                 0.0195                 0.1297

                     10                     11                     12
                      A                      A                      A
 Frequencies --    191.9398               208.0081               244.4974
 Red. masses --      3.2608                 3.2879                 1.3668
 Frc consts  --      0.0708                 0.0838                 0.0481
 IR Inten    --      0.4718                 0.4913                 0.1614

                     13                     14                     15
                      A                      A                      A
 Frequencies --    257.2667               270.4736               284.4157
 Red. masses --      2.0787                 1.1601                 3.4034
 Frc consts  --      0.0811                 0.0500                 0.1622
 IR Inten    --      2.4547                 0.5040                 1.2383

                     16                     17                     18
                      A                      A                      A
 Frequencies --    323.7837               345.2139               387.1240
 Red. masses --      3.1218                 3.3077                 2.9639
 Frc consts  --      0.1928                 0.2323                 0.2617
 IR Inten    --      0.8492                 0.4827                 4.9342

                     19                     20                     21
                      A                      A                      A
 Frequencies --    396.3732               456.5180               473.1213
 Red. masses --      3.4188                 2.5685                 2.7094
 Frc consts  --      0.3165                 0.3154                 0.3573
 IR Inten    --      1.7425                 0.4127                 1.7684

                     22                     23                     24
                      A                      A                      A
 Frequencies --    550.0114               562.7179               581.1517
 Red. masses --      2.7775                 3.1650                 2.6950
 Frc consts  --      0.4951                 0.5905                 0.5363
 IR Inten    --      0.6776                 1.8825                 2.3916

                     25                     26                     27
                      A                      A                      A
 Frequencies --    666.7936               688.0298               705.4025
 Red. masses --      3.1347                 1.5083                 1.5810
 Frc consts  --      0.8212                 0.4207                 0.4635
 IR Inten    --      2.0496                39.7172                55.8351

                     28                     29                     30
                      A                      A                      A
 Frequencies --    722.1482               725.4022               766.0296
 Red. masses --      1.3344                 1.3349                 3.2161
 Frc consts  --      0.4100                 0.4139                 1.1119
 IR Inten    --      0.7665                 1.3406                 1.1271

                     31                     32                     33
                      A                      A                      A
 Frequencies --    788.3041               815.4115               822.6959
 Red. masses --      2.3754                 4.9835                 5.6114
 Frc consts  --      0.8697                 1.9523                 2.2377
 IR Inten    --     81.3558                 0.6906                 4.0187

                     34                     35                     36
                      A                      A                      A
 Frequencies --    835.9876               861.1998               877.5108
 Red. masses --      3.1480                 2.7659                 2.7186
 Frc consts  --      1.2962                 1.2086                 1.2334
 IR Inten    --     20.8045                16.2112                10.2096

                     37                     38                     39
                      A                      A                      A
 Frequencies --    893.4295               918.5664               936.2250
 Red. masses --      2.8362                 2.2236                 2.4237
 Frc consts  --      1.3338                 1.1054                 1.2516
 IR Inten    --     20.3833                11.3715                 9.6647

                     40                     41                     42
                      A                      A                      A
 Frequencies --    943.8988               948.3807               949.2677
 Red. masses --      1.2696                 1.2915                 1.3328
 Frc consts  --      0.6664                 0.6844                 0.7076
 IR Inten    --      1.6451                 0.5555                 0.1290

                     43                     44                     45
                      A                      A                      A
 Frequencies --    956.9250              1005.2406              1012.5980
 Red. masses --      1.3145                 2.1376                 2.0093
 Frc consts  --      0.7092                 1.2727                 1.2139
 IR Inten    --      0.1596                19.0835                12.3663

                     46                     47                     48
                      A                      A                      A
 Frequencies --   1026.3086              1032.0703              1050.0661
 Red. masses --      1.9299                 2.2571                 1.6771
 Frc consts  --      1.1977                 1.4165                 1.0895
 IR Inten    --      2.0762                11.0816                15.6786

                     49                     50                     51
                      A                      A                      A
 Frequencies --   1061.0325              1069.3449              1079.3447
 Red. masses --      1.6153                 2.0145                 1.4959
 Frc consts  --      1.0714                 1.3572                 1.0267
 IR Inten    --      8.9910                36.9251                 5.8040

                     52                     53                     54
                      A                      A                      A
 Frequencies --   1084.4454              1113.5289              1124.8672
 Red. masses --      1.4885                 1.9114                 1.1231
 Frc consts  --      1.0314                 1.3964                 0.8373
 IR Inten    --      6.4517                 6.7144                 4.4594

                     55                     56                     57
                      A                      A                      A
 Frequencies --   1125.1129              1136.2876              1139.6887
 Red. masses --      1.1315                 1.2272                 1.2788
 Frc consts  --      0.8439                 0.9336                 0.9786
 IR Inten    --      3.7262                 6.2183                 1.6131

                     58                     59                     60
                      A                      A                      A
 Frequencies --   1157.2235              1188.8388              1198.7967
 Red. masses --      1.5371                 1.5254                 1.4678
 Frc consts  --      1.2128                 1.2702                 1.2428
 IR Inten    --      6.2442                 9.4549                 8.9218

                     61                     62                     63
                      A                      A                      A
 Frequencies --   1218.2138              1229.2101              1232.5526
 Red. masses --      1.8849                 1.6808                 1.8953
 Frc consts  --      1.6481                 1.4963                 1.6964
 IR Inten    --     10.5548                10.4572                 4.0445

                     64                     65                     66
                      A                      A                      A
 Frequencies --   1257.3999              1280.4905              1318.3646
 Red. masses --      2.0764                 1.7972                 1.3935
 Frc consts  --      1.9342                 1.7362                 1.4270
 IR Inten    --     17.0505                 5.6213                 5.1061

                     67                     68                     69
                      A                      A                      A
 Frequencies --   1326.4678              1331.3114              1345.9098
 Red. masses --      1.5595                 2.4358                 1.8506
 Frc consts  --      1.6167                 2.5436                 1.9752
 IR Inten    --      2.6553                16.2672                12.8800

                     70                     71                     72
                      A                      A                      A
 Frequencies --   1406.3653              1414.0109              1417.8696
 Red. masses --      1.3468                 1.4846                 1.9111
 Frc consts  --      1.5694                 1.7488                 2.2637
 IR Inten    --     14.3572                10.3824                 4.4842

                     73                     74                     75
                      A                      A                      A
 Frequencies --   1431.0483              1441.3632              1464.8532
 Red. masses --      1.7618                 1.3732                 1.1510
 Frc consts  --      2.1257                 1.6809                 1.4552
 IR Inten    --      6.0114                 9.7709                 1.8604

                     76                     77                     78
                      A                      A                      A
 Frequencies --   1492.6151              1502.1612              1509.9423
 Red. masses --      1.1489                 1.0668                 1.0568
 Frc consts  --      1.5081                 1.4183                 1.4196
 IR Inten    --      1.3123                 4.2098                 9.8784

                     79                     80                     81
                      A                      A                      A
 Frequencies --   1526.0736              1531.5370              1535.1774
 Red. masses --      1.0789                 1.0526                 1.0504
 Frc consts  --      1.4804                 1.4546                 1.4585
 IR Inten    --      3.8833                 7.6870                 1.5979

                     82                     83                     84
                      A                      A                      A
 Frequencies --   1548.1534              1562.8293              1580.1522
 Red. masses --      1.1036                 4.6554                 6.7234
 Frc consts  --      1.5584                 6.6993                 9.8909
 IR Inten    --      8.4784                 4.9986                 1.1921

                     85                     86                     87
                      A                      A                      A
 Frequencies --   1653.0092              1663.7342              1744.6308
 Red. masses --      5.2653                 5.3931                 7.2482
 Frc consts  --      8.4767                 8.7954                12.9983
 IR Inten    --      0.5147                 0.5062                31.9593

                     88                     89                     90
                      A                      A                      A
 Frequencies --   2971.0608              2976.7635              2991.3511
 Red. masses --      1.0797                 1.0795                 1.0494
 Frc consts  --      5.6152                 5.6361                 5.5328
 IR Inten    --      8.4426                18.1848                36.2284

                     91                     92                     93
                      A                      A                      A
 Frequencies --   2999.1424              3009.4582              3030.3022
 Red. masses --      1.0517                 1.0802                 1.0448
 Frc consts  --      5.5736                 5.7643                 5.6527
 IR Inten    --     95.2155                25.7104                41.2956

                     94                     95                     96
                      A                      A                      A
 Frequencies --   3066.4309              3074.5326              3077.0911
 Red. masses --      1.0867                 1.0848                 1.0959
 Frc consts  --      6.0204                 6.0417                 6.1136
 IR Inten    --     47.8618                35.3593                27.8148

                     97                     98                     99
                      A                      A                      A
 Frequencies --   3102.9652              3130.6583              3170.1032
 Red. masses --      1.1030                 1.0991                 1.0958
 Frc consts  --      6.2572                 6.3471                 6.4880
 IR Inten    --     34.9433                18.1546                 4.8037

                    100                    101                    102
                      A                      A                      A
 Frequencies --   3177.7638              3208.0035              3209.9303
 Red. masses --      1.0881                 1.0860                 1.0865
 Frc consts  --      6.4737                 6.5850                 6.5960
 IR Inten    --      6.5361                 4.0226                 5.6619

                    103                    104                    105
                      A                      A                      A
 Frequencies --   3218.4142              3220.8150              3235.5583
 Red. masses --      1.0886                 1.0887                 1.1005
 Frc consts  --      6.6433                 6.6539                 6.7880
 IR Inten    --     20.8335                18.6794                24.7626

                    106                    107                    108
                      A                      A                      A
 Frequencies --   3240.5213              3244.1542              3246.6423
 Red. masses --      1.0999                 1.1036                 1.1045
 Frc consts  --      6.8049                 6.8433                 6.8594
 IR Inten    --     17.8974                 5.3585                 6.7059

 - Thermochemistry -
 -------------------
 Temperature   298.150 Kelvin.  Pressure   1.00000 Atm.
 Atom     1 has atomic number  6 and mass  12.00000

 Molecular mass:   227.16740 amu.
 Principal axes and moments of inertia in atomic units:
                           1         2         3
     Eigenvalues --  2171.449636466.109727363.80978
           X            0.99999  -0.00416   0.00203
           Y            0.00415   0.99997   0.00698
           Z           -0.00206  -0.00697   0.99997
 This molecule is an asymmetric top.
 Rotational symmetry number  1.
 Warning -- assumption of classical behavior for rotation
           may cause significant error
 Rotational temperatures (Kelvin)      0.03989     0.01340     0.01176
 Rotational constants (GHZ):           0.83112     0.27911     0.24508
 Zero-point vibrational energy     869384.9 (Joules/Mol)
                                  207.78799 (Kcal/Mol)
 Warning -- explicit consideration of  24 degrees of freedom as
           vibrations may cause significant error
 Vibrational temperatures:     36.38    64.06    83.66   106.01   114.58
          (Kelvin)            170.40   171.83   198.39   239.79   276.16
                              299.28   351.78   370.15   389.15   409.21
                              465.85   496.69   556.99   570.29   656.83
                              680.72   791.34   809.63   836.15   959.37
                              989.92  1014.92  1039.01  1043.69  1102.15
                             1134.19  1173.20  1183.68  1202.80  1239.07
                             1262.54  1285.45  1321.61  1347.02  1358.06
                             1364.51  1365.78  1376.80  1446.32  1456.90
                             1476.63  1484.92  1510.81  1526.59  1538.55
                             1552.94  1560.28  1602.12  1618.43  1618.79
                             1634.86  1639.76  1664.99  1710.47  1724.80
                             1752.74  1768.56  1773.37  1809.12  1842.34
                             1896.83  1908.49  1915.46  1936.46  2023.45
                             2034.45  2040.00  2058.96  2073.80  2107.60
                             2147.54  2161.27  2172.47  2195.68  2203.54
                             2208.78  2227.45  2248.56  2273.49  2378.31
                             2393.74  2510.13  4274.69  4282.90  4303.89
                             4315.10  4329.94  4359.93  4411.91  4423.57
                             4427.25  4464.47  4504.32  4561.07  4572.09
                             4615.60  4618.37  4630.58  4634.03  4655.25
                             4662.39  4667.61  4671.19

 Zero-point correction=                           0.331131 (Hartree/Particle)
 Thermal correction to Energy=                    0.348222
 Thermal correction to Enthalpy=                  0.349167
 Thermal correction to Gibbs Free Energy=         0.285483
 Sum of electronic and zero-point Energies=           -676.721194
 Sum of electronic and thermal Energies=              -676.704103
 Sum of electronic and thermal Enthalpies=            -676.703159
 Sum of electronic and thermal Free Energies=         -676.766842

                     E (Thermal)             CV                S
                      KCal/Mol        Cal/Mol-Kelvin    Cal/Mol-Kelvin
 Total                  218.513             65.540            134.033
 Electronic               0.000              0.000              0.000
 Translational            0.889              2.981             42.164
 Rotational               0.889              2.981             33.002
 Vibrational            216.735             59.579             58.867
 Vibration     1          0.593              1.985              6.169
 Vibration     2          0.595              1.980              5.047
 Vibration     3          0.596              1.974              4.519
 Vibration     4          0.599              1.966              4.053
 Vibration     5          0.600              1.963              3.900
 Vibration     6          0.609              1.934              3.126
 Vibration     7          0.609              1.933              3.110
 Vibration     8          0.614              1.915              2.833
 Vibration     9          0.624              1.883              2.473
 Vibration    10          0.634              1.851              2.209
 Vibration    11          0.641              1.828              2.061
 Vibration    12          0.660              1.772              1.770
 Vibration    13          0.667              1.750              1.680
 Vibration    14          0.674              1.728              1.593
 Vibration    15          0.683              1.703              1.507
 Vibration    16          0.708              1.628              1.291
 Vibration    17          0.724              1.585              1.188
 Vibration    18          0.756              1.498              1.011
 Vibration    19          0.763              1.478              0.976
 Vibration    20          0.815              1.346              0.776
 Vibration    21          0.830              1.310              0.729
 Vibration    22          0.905              1.140              0.544
 Vibration    23          0.918              1.112              0.518
 Vibration    24          0.938              1.072              0.483

 Optimization completed.
    -- Stationary point found.
 Normal termination of Gaussian 16 at Fri Dec 11 13:26:25 2020.

 ----------------------------------------------------------------------
 # B3LYP/6-311++G(d,p) empiricaldispersion=gd3bj scf=xqc pop=npa geom=c
 heck
 ----------------------------------------------------------------------

 ---------------------------------------
 CID_102041797_JID_7638_Energie_neutraal
 ---------------------------------------
 Structure from the checkpoint file:  "JID_7638.chk"
 Charge =  0 Multiplicity = 1

 SCF Done:  E(RB3LYP) =  -677.233729763     A.U. after   15 cycles
 Normal termination of Gaussian 16 at Fri Dec 11 13:33:04 2020.

 ----------------------------------------------------------------------
 # B3LYP/6-311++G(d,p) empiricaldispersion=gd3bj scf=xqc pop=npa geom=c
 heck
 ----------------------------------------------------------------------

 -------------------------------------
 CID_102041797_JID_7638_Energie_kation
 -------------------------------------
 Structure from the checkpoint file:  "JID_7638.chk"
 Charge =  1 Multiplicity = 2

 SCF Done:  E(UB3LYP) =  -676.966564034     A.U. after   28 cycles
 Normal termination of Gaussian 16 at Fri Dec 11 13:49:37 2020.
 Gaussian 16:  ES64L-G16RevA.03 25-Dec-2016

 ----------------------------------------------------------------------
 # B3LYP/6-311++G(d,p) empiricaldispersion=gd3bj scf=xqc pop=npa geom=c
 heck
 ----------------------------------------------------------------------

 ------------------------------------
 CID_102041797_JID_7638_Energie_anion
 ------------------------------------
 Structure from the checkpoint file:  "JID_7638.chk"
 Charge = -1 Multiplicity = 2

                         Standard orientation:
 ---------------------------------------------------------------------
 Center     Atomic      Atomic             Coordinates (Angstroms)
 Number     Number       Type             X           Y           Z
 ---------------------------------------------------------------------
      1          6           0       -1.555557   -2.301398   -0.831537
      2          6           0       -1.575769   -0.801375   -0.699931
      3          6           0       -0.476526   -0.043997   -0.598013
      4          6           0        0.955289   -0.549863   -0.583123
      5          6           0        1.918367    0.675692   -0.763793
      6          6           0        1.972862    1.707951    0.335650
      7          6           0        3.262551    2.008127    0.602109
      8          6           0        4.135552    1.197077   -0.251586
      9          6           0        3.375158    0.399682   -1.032453
     10          7           0        1.191565   -1.444898    0.550017
     11          6           0        2.442458   -2.180137    0.493422
     12          6           0        0.930667   -0.886086    1.866896
     13          6           0       -2.966163   -0.180847   -0.650373
     14          6           0       -3.610825   -0.320603    0.718110
     15          6           0       -4.013205    0.890548    1.147976
     16          6           0       -3.683581    1.900393    0.130752
     17          6           0       -3.069569    1.301754   -0.908433
     18          1           0       -0.560894   -2.708205   -0.647775
     19          1           0       -1.901860   -2.605382   -1.829635
     20          1           0       -2.242031   -2.763234   -0.110125
     21          1           0       -0.608675    1.031348   -0.510692
     22          1           0        1.114720   -1.171690   -1.476195
     23          1           0        1.522625    1.181806   -1.663644
     24          1           0        1.096075    2.146586    0.796514
     25          1           0        3.615831    2.734644    1.326454
     26          1           0        5.219380    1.247172   -0.245909
     27          1           0        3.721894   -0.306175   -1.778686
     28          1           0        3.334297   -1.562312    0.687249
     29          1           0        2.416438   -2.988159    1.234431
     30          1           0        2.555994   -2.633776   -0.498146
     31          1           0        1.681077   -0.144215    2.186870
     32          1           0       -0.053051   -0.408688    1.871926
     33          1           0        0.918227   -1.700119    2.601288
     34          1           0       -3.597595   -0.710138   -1.386813
     35          1           0       -3.699758   -1.264349    1.242449
     36          1           0       -4.503847    1.107660    2.091050
     37          1           0       -3.915712    2.956732    0.218423
     38          1           0       -2.704340    1.773274   -1.813201
 ---------------------------------------------------------------------

 SCF Done:  E(UB3LYP) =  -677.222644194     A.U. after   33 cycles
 SCF Done:  E(UB3LYP) =  -677.222644194     a.u. after    1 cycles

 The electronic state is 2-A.
 Alpha  occ. eigenvalues --  -14.19278 -10.09533 -10.07735 -10.07126 -10.06730
 Alpha  occ. eigenvalues --  -10.06631 -10.06552 -10.05402 -10.05400 -10.05355
 Alpha  occ. eigenvalues --  -10.05248 -10.04918 -10.04860 -10.04855 -10.04752
 Alpha  occ. eigenvalues --  -10.04586 -10.04273  -0.81469  -0.74853  -0.74355
 Alpha  occ. eigenvalues --   -0.68834  -0.63933  -0.60167  -0.59334  -0.58982
 Alpha  occ. eigenvalues --   -0.58092  -0.57176  -0.54493  -0.48143  -0.44901
 Alpha  occ. eigenvalues --   -0.43069  -0.42544  -0.42082  -0.40473  -0.40199
 Alpha  occ. eigenvalues --   -0.38488  -0.37046  -0.35435  -0.34637  -0.32740
 Alpha  occ. eigenvalues --   -0.31033  -0.30017  -0.29732  -0.28918  -0.28592
 Alpha  occ. eigenvalues --   -0.28207  -0.27187  -0.26921  -0.26087  -0.25906
 Alpha  occ. eigenvalues --   -0.25771  -0.24808  -0.24729  -0.23069  -0.22973
 Alpha  occ. eigenvalues --   -0.21222  -0.19659  -0.18929  -0.13336  -0.11107
 Alpha  occ. eigenvalues --   -0.10797  -0.09817   0.04834
 Alpha virt. eigenvalues --    0.06954   0.07294   0.07814   0.07903   0.08165
 Alpha virt. eigenvalues --    0.08797   0.09104   0.09751   0.09928   0.10346
 Alpha virt. eigenvalues --    0.11005   0.11116   0.11782   0.12095   0.12353

  Beta  occ. eigenvalues --  -14.19276 -10.09496 -10.07718 -10.07114 -10.06756
  Beta  occ. eigenvalues --  -10.06592 -10.06576 -10.05388 -10.05377 -10.05333
  Beta  occ. eigenvalues --  -10.05206 -10.04794 -10.04740 -10.04725 -10.04724
  Beta  occ. eigenvalues --  -10.04440 -10.04259  -0.81449  -0.74686  -0.74196
  Beta  occ. eigenvalues --   -0.68755  -0.63861  -0.60082  -0.59099  -0.58823
  Beta  occ. eigenvalues --   -0.57982  -0.57078  -0.54414  -0.48017  -0.44700
  Beta  occ. eigenvalues --   -0.42937  -0.42405  -0.41921  -0.40361  -0.40115
  Beta  occ. eigenvalues --   -0.38396  -0.36968  -0.35368  -0.34573  -0.32616
  Beta  occ. eigenvalues --   -0.30962  -0.29950  -0.29574  -0.28850  -0.28516
  Beta  occ. eigenvalues --   -0.28168  -0.27100  -0.26871  -0.26010  -0.25845
  Beta  occ. eigenvalues --   -0.25711  -0.24738  -0.24657  -0.22977  -0.22854
  Beta  occ. eigenvalues --   -0.21116  -0.19290  -0.18540  -0.13154  -0.10485
  Beta  occ. eigenvalues --   -0.10242  -0.09710
  Beta virt. eigenvalues --    0.06967   0.07630   0.07925   0.08204   0.08614
  Beta virt. eigenvalues --    0.08662   0.09035   0.09115   0.09857   0.10121
  Beta virt. eigenvalues --    0.10496   0.11104   0.11275   0.11825   0.12124

 Mulliken charges and spin densities:
               1          2
     1  C    1.341780  -2.009689
     2  C   -0.168864   0.590985
     3  C   -0.224017  -0.059216
     4  C   -0.066453  -0.367745
     5  C   -0.000575   0.072790
     6  C   -0.234591  -0.053996
     7  C   -0.586751   0.296227
     8  C   -0.033537  -0.356720
     9  C   -0.346511   0.459234
    10  N    0.235202   0.006941
    11  C    0.013112  -0.366454
    12  C   -0.244375  -0.225097
    13  C    0.389959  -0.306078
    14  C   -0.180937  -0.150142
    15  C   -0.552350   0.192667
    16  C    0.237772  -0.477198
    17  C   -1.109769   1.019104
    18  H    0.173824   0.002975
    19  H   -0.382532   0.541356
    20  H   -0.010553   0.167459
    21  H    0.425529  -0.216368
    22  H   -0.060602   0.210412
    23  H   -0.104865   0.341482
    24  H    0.116620   0.022598
    25  H    0.086720   0.040035
    26  H    0.074520   0.049882
    27  H   -0.081213   0.227025
    28  H    0.176573  -0.007773
    29  H   -0.080577   0.205789
    30  H   -0.047535   0.191256
    31  H    0.156108  -0.007748
    32  H    0.104600   0.048985
    33  H   -0.021429   0.160867
    34  H   -0.021139   0.254481
    35  H   -0.000414   0.129034
    36  H    0.032445   0.091047
    37  H    0.096290   0.033326
    38  H   -0.101467   0.248268
 Sum of Mulliken charges =  -1.00000   1.00000

 Dipole moment (field-independent basis, Debye):
    X=              1.9013    Y=              1.2500    Z=              2.6720  Tot=              3.5095
 Quadrupole moment (field-independent basis, Debye-Ang):
   XX=           -167.2430   YY=           -139.7354   ZZ=           -133.0457
   XY=             -3.9673   XZ=             -1.3485   YZ=              0.0684

 Summary of Natural Population Analysis:

                                       Natural Population
                Natural  -----------------------------------------------
    Atom  No    Charge         Core      Valence    Rydberg      Total
 -----------------------------------------------------------------------
      C    1   -0.30344      0.99961     2.29663    0.00720     3.30344
      C    2    0.02385      0.99946     1.96556    0.01113     2.97615
      C    3   -0.11003      0.99942     2.10020    0.01041     3.11003
      C    4   -0.00247      0.99954     1.98778    0.01515     3.00247
      C    5   -0.15750      0.99956     2.14600    0.01193     3.15750
      C    6   -0.07286      0.99953     2.06285    0.01048     3.07286
      C    7   -0.12095      0.99953     2.11233    0.00909     3.12095
      C    8   -0.12106      0.99953     2.11239    0.00914     3.12106
      C    9   -0.07079      0.99953     2.06029    0.01096     3.07079
      N   10   -0.28251      0.99972     2.77010    0.01269     3.78251
      C   11   -0.17564      0.99964     2.16803    0.00798     3.17564
      C   12   -0.18036      0.99964     2.17262    0.00810     3.18036
      C   13   -0.15933      0.99954     2.14736    0.01243     3.15933
      C   14   -0.06066      0.99952     2.05267    0.00846     3.06066
      C   15   -0.11672      0.99953     2.10738    0.00981     3.11672
      C   16   -0.11874      0.99952     2.10996    0.00926     3.11874
      C   17   -0.06214      0.99954     2.05170    0.01090     3.06214
      H   18    0.11185      0.00000     0.38683    0.00131     0.38815
      H   19    0.10270      0.00000     0.39567    0.00163     0.39730
      H   20    0.10026      0.00000     0.39857    0.00117     0.39974
      H   21    0.10099      0.00000     0.39712    0.00189     0.39901
      H   22    0.09962      0.00000     0.39864    0.00173     0.40038
      H   23    0.13122      0.00000     0.36681    0.00197     0.36878
      H   24    0.09916      0.00000     0.39985    0.00098     0.40084
      H   25    0.09473      0.00000     0.40448    0.00078     0.40527
      H   26    0.09472      0.00000     0.40451    0.00077     0.40528
      H   27    0.09647      0.00000     0.40258    0.00094     0.40353
      H   28    0.08840      0.00000     0.41031    0.00129     0.41160
      H   29    0.09092      0.00000     0.40827    0.00081     0.40908
      H   30    0.09311      0.00000     0.40600    0.00088     0.40689
      H   31    0.08633      0.00000     0.41249    0.00118     0.41367
      H   32    0.10342      0.00000     0.39551    0.00108     0.39658
      H   33    0.09019      0.00000     0.40900    0.00081     0.40981
      H   34    0.12312      0.00000     0.37498    0.00190     0.37688
      H   35    0.09589      0.00000     0.40313    0.00098     0.40411
      H   36    0.09484      0.00000     0.40434    0.00083     0.40516
      H   37    0.09503      0.00000     0.40424    0.00073     0.40497
      H   38    0.09837      0.00000     0.40059    0.00104     0.40163
 =======================================================================
   * Total *   -0.00000     16.99237    44.80777    0.19986    62.00000

 Normal termination of Gaussian 16 at Fri Dec 11 14:09:37 2020.
