 Gaussian 16, Revision A.03,

 -----------------------------------------------------------
 # opt freq B3LYP/6-31G(d) empiricaldispersion=gd3bj scf=xqc
 -----------------------------------------------------------

 -------------------------------
 CID_104696177_JID_8712_neutraal
 -------------------------------
 Symbolic Z-matrix:
 Charge =  0 Multiplicity = 1

 SCF Done:  E(RB3LYP) =  -791.902934129     A.U. after   14 cycles
 SCF Done:  E(RB3LYP) =  -791.895450765     A.U. after   13 cycles
 SCF Done:  E(RB3LYP) =  -791.907351138     A.U. after   12 cycles
 SCF Done:  E(RB3LYP) =  -791.908266777     A.U. after   12 cycles
 SCF Done:  E(RB3LYP) =  -791.908512255     A.U. after   12 cycles
 SCF Done:  E(RB3LYP) =  -791.908592680     A.U. after   11 cycles
 SCF Done:  E(RB3LYP) =  -791.908563462     A.U. after   11 cycles
 SCF Done:  E(RB3LYP) =  -791.908640340     A.U. after   11 cycles
 SCF Done:  E(RB3LYP) =  -791.908698263     A.U. after   11 cycles
 SCF Done:  E(RB3LYP) =  -791.908701062     A.U. after   10 cycles
 SCF Done:  E(RB3LYP) =  -791.908702348     A.U. after    9 cycles
 SCF Done:  E(RB3LYP) =  -791.908703452     A.U. after    8 cycles
 SCF Done:  E(RB3LYP) =  -791.908703724     A.U. after    7 cycles
 SCF Done:  E(RB3LYP) =  -791.908703809     A.U. after    7 cycles
 Optimization completed.
    -- Stationary point found.
 Normal termination of Gaussian 16 at Fri Dec 11 22:10:55 2020.

 --------------------------------------------------------------------
 #N Geom=AllCheck Guess=TCheck SCRF=Check GenChk RB3LYP/6-31G(d) Freq
 --------------------------------------------------------------------

 Structure from the checkpoint file:  "JID_8712.chk"
 -------------------------------
 CID_104696177_JID_8712_neutraal
 -------------------------------
 Charge =  0 Multiplicity = 1

 SCF Done:  E(RB3LYP) =  -791.908703809     A.U. after    1 cycles

  Exact polarizability: 204.729 -22.211 159.379 -10.293  -9.778 143.087
 Approx polarizability: 257.082 -39.492 234.775 -26.640 -19.604 247.688

                      1                      2                      3
                      A                      A                      A
 Frequencies --     28.1005                32.0505                46.7403
 Red. masses --      3.8473                 4.4833                 3.4586
 Frc consts  --      0.0018                 0.0027                 0.0045
 IR Inten    --      0.1082                 0.0365                 1.0260

                      4                      5                      6
                      A                      A                      A
 Frequencies --     71.4372                79.6021                96.1793
 Red. masses --      3.7661                 2.7424                 3.5985
 Frc consts  --      0.0113                 0.0102                 0.0196
 IR Inten    --      0.4960                 0.6036                 3.8348

                      7                      8                      9
                      A                      A                      A
 Frequencies --    121.9122               135.5216               153.6407
 Red. masses --      5.2436                 3.9939                 4.1512
 Frc consts  --      0.0459                 0.0432                 0.0577
 IR Inten    --      0.4049                 0.2682                 0.2413

                     10                     11                     12
                      A                      A                      A
 Frequencies --    179.5960               213.4117               228.7931
 Red. masses --      2.7754                 2.6950                 1.2766
 Frc consts  --      0.0527                 0.0723                 0.0394
 IR Inten    --      2.3066                 3.2279                 0.1825

                     13                     14                     15
                      A                      A                      A
 Frequencies --    239.3864               243.6854               253.5963
 Red. masses --      2.0568                 1.2115                 1.4233
 Frc consts  --      0.0694                 0.0424                 0.0539
 IR Inten    --      0.6200                 0.5966                 0.9043

                     16                     17                     18
                      A                      A                      A
 Frequencies --    287.4864               311.7242               345.3449
 Red. masses --      2.4487                 2.1480                 2.3306
 Frc consts  --      0.1192                 0.1230                 0.1638
 IR Inten    --      2.0207                 1.6474                 6.6806

                     19                     20                     21
                      A                      A                      A
 Frequencies --    357.8584               359.3722               384.5145
 Red. masses --      2.1925                 2.6574                 2.3987
 Frc consts  --      0.1654                 0.2022                 0.2090
 IR Inten    --      6.1088                 3.8416                 0.7403

                     22                     23                     24
                      A                      A                      A
 Frequencies --    409.4213               425.3774               430.2077
 Red. masses --      4.1801                 2.4398                 2.6249
 Frc consts  --      0.4128                 0.2601                 0.2862
 IR Inten    --      1.7790                 1.3939                 1.0541

                     25                     26                     27
                      A                      A                      A
 Frequencies --    451.7613               456.8026               470.4218
 Red. masses --      1.7343                 2.3643                 2.0149
 Frc consts  --      0.2085                 0.2907                 0.2627
 IR Inten    --     38.5428                 3.6027                31.4718

                     28                     29                     30
                      A                      A                      A
 Frequencies --    514.4648               531.7823               581.8751
 Red. masses --      3.0107                 2.7591                 2.7128
 Frc consts  --      0.4695                 0.4597                 0.5412
 IR Inten    --      9.5325                 8.3440                 3.0837

                     31                     32                     33
                      A                      A                      A
 Frequencies --    601.9604               656.6087               709.1939
 Red. masses --      2.1414                 6.8353                 3.5835
 Frc consts  --      0.4572                 1.7363                 1.0619
 IR Inten    --      8.5900                 0.4898                12.3293

                     34                     35                     36
                      A                      A                      A
 Frequencies --    719.9495               754.6413               816.1138
 Red. masses --      2.9287                 2.0649                 1.6379
 Frc consts  --      0.8944                 0.6928                 0.6428
 IR Inten    --      4.0149                63.0859                 9.8614

                     37                     38                     39
                      A                      A                      A
 Frequencies --    828.3648               833.9757               844.4979
 Red. masses --      2.7488                 1.4158                 2.0965
 Frc consts  --      1.1113                 0.5802                 0.8809
 IR Inten    --     18.4016                 5.1061                 5.3192

                     40                     41                     42
                      A                      A                      A
 Frequencies --    849.3459               877.7076               913.0107
 Red. masses --      2.2328                 2.0314                 2.3071
 Frc consts  --      0.9490                 0.9220                 1.1331
 IR Inten    --     28.0538                11.1487                 6.2916

                     43                     44                     45
                      A                      A                      A
 Frequencies --    935.4499               943.2985               945.0710
 Red. masses --      1.8178                 1.3402                 1.3982
 Frc consts  --      0.9372                 0.7026                 0.7358
 IR Inten    --      6.8594                 0.6178                 5.6443

                     46                     47                     48
                      A                      A                      A
 Frequencies --    951.9610               969.5361               978.7416
 Red. masses --      1.8718                 1.3123                 1.4434
 Frc consts  --      0.9994                 0.7268                 0.8146
 IR Inten    --      0.8075                 0.2094                 1.2219

                     49                     50                     51
                      A                      A                      A
 Frequencies --    997.6511              1029.3234              1034.8517
 Red. masses --      2.0877                 1.4540                 2.6450
 Frc consts  --      1.2243                 0.9077                 1.6689
 IR Inten    --     27.8486                13.3480                 0.5920

                     52                     53                     54
                      A                      A                      A
 Frequencies --   1049.4090              1083.0680              1093.3694
 Red. masses --      2.0444                 5.9741                 3.0698
 Frc consts  --      1.3265                 4.1289                 2.1622
 IR Inten    --     29.1589                54.8243                13.9410

                     55                     56                     57
                      A                      A                      A
 Frequencies --   1112.5902              1139.8399              1148.2414
 Red. masses --      1.9211                 1.5894                 1.5755
 Frc consts  --      1.4011                 1.2167                 1.2239
 IR Inten    --     65.3048                 6.3505                 6.0739

                     58                     59                     60
                      A                      A                      A
 Frequencies --   1163.5829              1180.8339              1186.8808
 Red. masses --      2.1735                 2.0294                 1.2718
 Frc consts  --      1.7339                 1.6673                 1.0555
 IR Inten    --     69.7097                 1.5541                 0.8032

                     61                     62                     63
                      A                      A                      A
 Frequencies --   1203.4988              1214.1348              1220.0450
 Red. masses --      1.7159                 1.1615                 1.3792
 Frc consts  --      1.4643                 1.0088                 1.2095
 IR Inten    --      6.9779                19.2184                 6.5864

                     64                     65                     66
                      A                      A                      A
 Frequencies --   1231.7981              1233.8800              1242.6328
 Red. masses --      1.8779                 1.9657                 1.5067
 Frc consts  --      1.6789                 1.7633                 1.3708
 IR Inten    --      7.7883                 4.0927                12.1163

                     67                     68                     69
                      A                      A                      A
 Frequencies --   1264.3820              1298.3549              1304.6653
 Red. masses --      1.2346                 1.6237                 2.9390
 Frc consts  --      1.1628                 1.6127                 2.9474
 IR Inten    --      4.9813                18.1846               258.2228

                     70                     71                     72
                      A                      A                      A
 Frequencies --   1324.3234              1344.9971              1354.9205
 Red. masses --      1.3334                 1.3210                 2.0349
 Frc consts  --      1.3779                 1.4080                 2.2010
 IR Inten    --      6.3211                 5.7240                29.2014

                     73                     74                     75
                      A                      A                      A
 Frequencies --   1365.2661              1377.7087              1393.0438
 Red. masses --      1.6228                 1.6232                 1.5230
 Frc consts  --      1.7821                 1.8153                 1.7413
 IR Inten    --      5.8177                 4.9132                11.4817

                     76                     77                     78
                      A                      A                      A
 Frequencies --   1402.5056              1410.9202              1414.3361
 Red. masses --      1.3198                 1.3099                 1.2703
 Frc consts  --      1.5295                 1.5364                 1.4971
 IR Inten    --     14.1880                 4.5536                12.6867

                     79                     80                     81
                      A                      A                      A
 Frequencies --   1417.5855              1422.9424              1441.9973
 Red. masses --      1.2869                 1.2996                 1.2616
 Frc consts  --      1.5237                 1.5503                 1.5456
 IR Inten    --     10.5058                 5.2157                 7.0867

                     82                     83                     84
                      A                      A                      A
 Frequencies --   1445.9296              1468.3301              1500.0653
 Red. masses --      1.2281                 2.7006                 1.1945
 Frc consts  --      1.5127                 3.4305                 1.5837
 IR Inten    --     19.5979                 1.7098                17.0193

                     85                     86                     87
                      A                      A                      A
 Frequencies --   1506.2668              1509.4853              1516.6944
 Red. masses --      1.0864                 1.0878                 1.1083
 Frc consts  --      1.4523                 1.4604                 1.5021
 IR Inten    --      1.9261                 3.9548                 5.0867

                     88                     89                     90
                      A                      A                      A
 Frequencies --   1518.8059              1521.3745              1527.5085
 Red. masses --      1.0534                 1.0477                 1.0546
 Frc consts  --      1.4317                 1.4288                 1.4497
 IR Inten    --      3.0190                 5.9436                 5.6200

                     91                     92                     93
                      A                      A                      A
 Frequencies --   1534.5117              1535.1759              1538.0142
 Red. masses --      1.0813                 1.0639                 1.0609
 Frc consts  --      1.5002                 1.4772                 1.4786
 IR Inten    --     10.6771                35.4984                 3.2750

                     94                     95                     96
                      A                      A                      A
 Frequencies --   1547.5979              1549.7927              1569.5263
 Red. masses --      1.2188                 1.0556                 2.4302
 Frc consts  --      1.7199                 1.4938                 3.5272
 IR Inten    --     35.5577                 4.6387               119.1013

                     97                     98                     99
                      A                      A                      A
 Frequencies --   1632.0980              1677.3598              2996.8576
 Red. masses --      6.2835                 5.7989                 1.0729
 Frc consts  --      9.8616                 9.6128                 5.6775
 IR Inten    --     10.7859                48.7502                68.0842

                    100                    101                    102
                      A                      A                      A
 Frequencies --   3001.9767              3018.7028              3026.0016
 Red. masses --      1.0819                 1.0674                 1.0352
 Frc consts  --      5.7445                 5.7307                 5.5847
 IR Inten    --     10.1386                22.5721                54.6634

                    103                    104                    105
                      A                      A                      A
 Frequencies --   3026.5173              3033.3800              3034.5451
 Red. masses --      1.0786                 1.0469                 1.0578
 Frc consts  --      5.8212                 5.6758                 5.7389
 IR Inten    --      6.9164                 6.4781                85.4361

                    106                    107                    108
                      A                      A                      A
 Frequencies --   3040.8047              3059.2423              3066.0398
 Red. masses --      1.0438                 1.0679                 1.0997
 Frc consts  --      5.6866                 5.8888                 6.0910
 IR Inten    --     50.1859                45.2718                26.4575

                    109                    110                    111
                      A                      A                      A
 Frequencies --   3083.6488              3084.9776              3094.0064
 Red. masses --      1.0982                 1.1067                 1.0983
 Frc consts  --      6.1524                 6.2055                 6.1947
 IR Inten    --     66.6935                43.5825                10.8946

                    112                    113                    114
                      A                      A                      A
 Frequencies --   3097.0690              3102.7475              3113.3892
 Red. masses --      1.0914                 1.0979                 1.0948
 Frc consts  --      6.1678                 6.2271                 6.2525
 IR Inten    --      0.6439                64.9328               104.1170

                    115                    116                    117
                      A                      A                      A
 Frequencies --   3119.5730              3149.0583              3162.4490
 Red. masses --      1.0988                 1.0980                 1.0996
 Frc consts  --      6.3000                 6.4153                 6.4793
 IR Inten    --     27.5587                16.3029                26.9605

                    118                    119                    120
                      A                      A                      A
 Frequencies --   3182.5467              3194.2389              3219.5298
 Red. masses --      1.0890                 1.0881                 1.0935
 Frc consts  --      6.4984                 6.5410                 6.6783
 IR Inten    --     14.3810                11.0916                 6.7303

                    121                    122                    123
                      A                      A                      A
 Frequencies --   3228.5145              3519.9103              3720.6720
 Red. masses --      1.0911                 1.0742                 1.0655
 Frc consts  --      6.7006                 7.8418                 8.6904
 IR Inten    --      9.0968                33.5706               138.7333

 - Thermochemistry -
 -------------------
 Temperature   298.150 Kelvin.  Pressure   1.00000 Atm.
 Atom     1 has atomic number  6 and mass  12.00000

 Molecular mass:   251.18853 amu.
 Principal axes and moments of inertia in atomic units:
                           1         2         3
     Eigenvalues --  2254.927718227.342659269.29742
           X            0.99998  -0.00483   0.00347
           Y            0.00491   0.99969  -0.02451
           Z           -0.00335   0.02453   0.99969
 This molecule is an asymmetric top.
 Rotational symmetry number  1.
 Warning -- assumption of classical behavior for rotation
           may cause significant error
 Rotational temperatures (Kelvin)      0.03841     0.01053     0.00934
 Rotational constants (GHZ):           0.80035     0.21936     0.19470
 Zero-point vibrational energy    1011741.8 (Joules/Mol)
                                  241.81208 (Kcal/Mol)
 Warning -- explicit consideration of  31 degrees of freedom as
           vibrations may cause significant error
 Vibrational temperatures:     40.43    46.11    67.25   102.78   114.53
          (Kelvin)            138.38   175.40   194.99   221.05   258.40
                              307.05   329.18   344.42   350.61   364.87
                              413.63   448.50   496.87   514.88   517.06
                              553.23   589.07   612.02   618.97   649.98
                              657.24   676.83   740.20   765.12   837.19
                              866.09   944.71  1020.37  1035.85  1085.76
                             1174.21  1191.83  1199.91  1215.04  1222.02
                             1262.83  1313.62  1345.90  1357.20  1359.75
                             1369.66  1394.95  1408.19  1435.40  1480.97
                             1488.92  1509.87  1558.29  1573.11  1600.77
                             1639.98  1652.06  1674.14  1698.96  1707.66
                             1731.57  1746.87  1755.37  1772.28  1775.28
                             1787.87  1819.16  1868.04  1877.12  1905.41
                             1935.15  1949.43  1964.31  1982.22  2004.28
                             2017.89  2030.00  2034.91  2039.59  2047.30
                             2074.71  2080.37  2112.60  2158.26  2167.18
                             2171.81  2182.18  2185.22  2188.92  2197.74
                             2207.82  2208.78  2212.86  2226.65  2229.81
                             2258.20  2348.23  2413.35  4311.81  4319.17
                             4343.24  4353.74  4354.48  4364.36  4366.03
                             4375.04  4401.57  4411.35  4436.68  4438.59
                             4451.59  4455.99  4464.16  4479.47  4488.37
                             4530.79  4550.06  4578.97  4595.80  4632.19
                             4645.11  5064.37  5353.22

 Zero-point correction=                           0.385352 (Hartree/Particle)
 Thermal correction to Energy=                    0.404589
 Thermal correction to Enthalpy=                  0.405534
 Thermal correction to Gibbs Free Energy=         0.337518
 Sum of electronic and zero-point Energies=           -791.523352
 Sum of electronic and thermal Energies=              -791.504114
 Sum of electronic and thermal Enthalpies=            -791.503170
 Sum of electronic and thermal Free Energies=         -791.571186

                     E (Thermal)             CV                S
                      KCal/Mol        Cal/Mol-Kelvin    Cal/Mol-Kelvin
 Total                  253.884             73.954            143.151
 Electronic               0.000              0.000              0.000
 Translational            0.889              2.981             42.463
 Rotational               0.889              2.981             33.508
 Vibrational            252.106             67.992             67.180
 Vibration     1          0.593              1.984              5.959
 Vibration     2          0.594              1.983              5.698
 Vibration     3          0.595              1.979              4.951
 Vibration     4          0.598              1.968              4.113
 Vibration     5          0.600              1.963              3.901
 Vibration     6          0.603              1.952              3.530
 Vibration     7          0.609              1.931              3.070
 Vibration     8          0.613              1.918              2.866
 Vibration     9          0.619              1.899              2.627
 Vibration    10          0.629              1.867              2.333
 Vibration    11          0.644              1.821              2.014
 Vibration    12          0.651              1.797              1.888
 Vibration    13          0.657              1.780              1.807
 Vibration    14          0.659              1.773              1.776
 Vibration    15          0.665              1.757              1.705
 Vibration    16          0.685              1.697              1.489
 Vibration    17          0.700              1.651              1.353
 Vibration    18          0.724              1.585              1.187
 Vibration    19          0.733              1.559              1.131
 Vibration    20          0.734              1.556              1.125
 Vibration    21          0.753              1.503              1.021
 Vibration    22          0.774              1.450              0.929
 Vibration    23          0.787              1.415              0.874
 Vibration    24          0.791              1.404              0.858
 Vibration    25          0.810              1.357              0.790
 Vibration    26          0.815              1.346              0.775
 Vibration    27          0.827              1.316              0.736
 Vibration    28          0.870              1.218              0.623
 Vibration    29          0.887              1.180              0.583
 Vibration    30          0.939              1.071              0.482
 Vibration    31          0.960              1.028              0.446

                           ! Non-Optimized Parameters !
 Normal termination of Gaussian 16 at Fri Dec 11 22:32:06 2020.

 ----------------------------------------------------------------------
 # B3LYP/6-311++G(d,p) empiricaldispersion=gd3bj scf=xqc pop=npa geom=c
 heck
 ----------------------------------------------------------------------

 ---------------------------------------
 CID_104696177_JID_8712_Energie_neutraal
 ---------------------------------------
 Structure from the checkpoint file:  "JID_8712.chk"
 Charge =  0 Multiplicity = 1

 SCF Done:  E(RB3LYP) =  -792.137861309     A.U. after   15 cycles
 Normal termination of Gaussian 16 at Fri Dec 11 22:41:04 2020.

 ----------------------------------------------------------------------
 # B3LYP/6-311++G(d,p) empiricaldispersion=gd3bj scf=xqc pop=npa geom=c
 heck
 ----------------------------------------------------------------------

 -------------------------------------
 CID_104696177_JID_8712_Energie_kation
 -------------------------------------
 Structure from the checkpoint file:  "JID_8712.chk"
 Charge =  1 Multiplicity = 2

 SCF Done:  E(UB3LYP) =  -791.866422577     A.U. after   21 cycles
 Normal termination of Gaussian 16 at Fri Dec 11 22:57:32 2020.
 Gaussian 16:  ES64L-G16RevA.03 25-Dec-2016

 ----------------------------------------------------------------------
 # B3LYP/6-311++G(d,p) empiricaldispersion=gd3bj scf=xqc pop=npa geom=c
 heck
 ----------------------------------------------------------------------

 ------------------------------------
 CID_104696177_JID_8712_Energie_anion
 ------------------------------------
 Structure from the checkpoint file:  "JID_8712.chk"
 Charge = -1 Multiplicity = 2

                         Standard orientation:
 ---------------------------------------------------------------------
 Center     Atomic      Atomic             Coordinates (Angstroms)
 Number     Number       Type             X           Y           Z
 ---------------------------------------------------------------------
      1          6           0       -4.441470   -1.667022    0.295100
      2          6           0       -3.649433   -0.620282   -0.500466
      3          6           0       -4.592116    0.467457   -1.027229
      4          6           0       -2.499430    0.021509    0.320039
      5          6           0       -1.607612   -1.019527    1.037630
      6          6           0       -0.892714   -2.023612    0.127126
      7          8           0       -0.006625   -1.429228   -0.821156
      8          7           0       -1.753701    0.942651   -0.545403
      9          6           0       -1.299308    2.200110    0.015089
     10          6           0       -0.160802    2.173625    1.069412
     11          6           0        1.085361    1.452363    0.606549
     12          6           0        1.666923    1.723387   -0.644102
     13          6           0        2.781081    1.029355   -1.094015
     14          6           0        3.361911    0.031000   -0.298182
     15          6           0        2.810110   -0.250382    0.955903
     16          6           0        1.686162    0.464194    1.389638
     17          8           0        4.446147   -0.599904   -0.830568
     18          6           0        5.040032   -1.644666   -0.077940
     19          1           0       -4.824376   -1.238106    1.230946
     20          1           0       -3.843655   -2.547416    0.551855
     21          1           0       -5.305169   -2.015157   -0.282733
     22          1           0       -3.191159   -1.114663   -1.369206
     23          1           0       -5.119507    0.957472   -0.196984
     24          1           0       -4.026708    1.227713   -1.570738
     25          1           0       -5.349873    0.041992   -1.695427
     26          1           0       -2.972742    0.631006    1.105387
     27          1           0       -0.856572   -0.490194    1.632541
     28          1           0       -2.210940   -1.591201    1.754366
     29          1           0       -0.353248   -2.755312    0.749590
     30          1           0       -1.617916   -2.584950   -0.469648
     31          1           0        0.709564   -1.001897   -0.322153
     32          1           0       -1.004831    0.437108   -1.012094
     33          1           0       -0.978569    2.834105   -0.821957
     34          1           0       -2.163837    2.707804    0.461847
     35          1           0        0.080552    3.216469    1.323882
     36          1           0       -0.521981    1.711021    1.995341
     37          1           0        1.231867    2.484669   -1.285343
     38          1           0        3.218787    1.235010   -2.065334
     39          1           0        3.236857   -1.011544    1.598180
     40          1           0        1.267657    0.232377    2.365851
     41          1           0        5.429888   -1.279002    0.881205
     42          1           0        4.327414   -2.458694    0.109315
     43          1           0        5.866054   -2.019169   -0.684384
 ---------------------------------------------------------------------

 SCF Done:  E(UB3LYP) =  -792.126584782     A.U. after   33 cycles
 SCF Done:  E(UB3LYP) =  -792.126584782     a.u. after    1 cycles

 The electronic state is 2-A.
 Alpha  occ. eigenvalues --  -19.06523 -19.02569 -14.19114 -10.14812 -10.12763
 Alpha  occ. eigenvalues --  -10.12086 -10.10501 -10.10456 -10.09118 -10.09051
 Alpha  occ. eigenvalues --  -10.08857 -10.08771 -10.08647 -10.08199 -10.08184
 Alpha  occ. eigenvalues --  -10.07284 -10.07062 -10.06501  -0.98175  -0.92694
 Alpha  occ. eigenvalues --   -0.81262  -0.77332  -0.71663  -0.68996  -0.66746
 Alpha  occ. eigenvalues --   -0.66240  -0.63860  -0.60363  -0.59363  -0.57222
 Alpha  occ. eigenvalues --   -0.52975  -0.52965  -0.51515  -0.48723  -0.47067
 Alpha  occ. eigenvalues --   -0.44770  -0.41498  -0.40511  -0.39245  -0.38506
 Alpha  occ. eigenvalues --   -0.37907  -0.37282  -0.36604  -0.36070  -0.35220
 Alpha  occ. eigenvalues --   -0.34270  -0.33968  -0.33396  -0.32757  -0.32099
 Alpha  occ. eigenvalues --   -0.30928  -0.29897  -0.29528  -0.28870  -0.28359
 Alpha  occ. eigenvalues --   -0.28101  -0.27451  -0.26339  -0.25562  -0.24793
 Alpha  occ. eigenvalues --   -0.24354  -0.24057  -0.23837  -0.22748  -0.21995
 Alpha  occ. eigenvalues --   -0.18042  -0.17357  -0.13696  -0.12136   0.04015
 Alpha virt. eigenvalues --    0.05678   0.06319   0.06654   0.06792   0.07545
 Alpha virt. eigenvalues --    0.08023   0.08114   0.08598   0.08968   0.09262
 Alpha virt. eigenvalues --    0.09834   0.10168   0.10427   0.10811   0.11337

  Beta  occ. eigenvalues --  -19.06512 -19.02566 -14.19114 -10.14809 -10.12710
  Beta  occ. eigenvalues --  -10.12072 -10.10495 -10.10449 -10.09114 -10.09044
  Beta  occ. eigenvalues --  -10.08842 -10.08771 -10.08625 -10.08188 -10.08182
  Beta  occ. eigenvalues --  -10.07268 -10.07048 -10.06493  -0.98149  -0.92686
  Beta  occ. eigenvalues --   -0.81255  -0.77314  -0.71649  -0.68974  -0.66718
  Beta  occ. eigenvalues --   -0.66214  -0.63823  -0.60317  -0.59335  -0.57193
  Beta  occ. eigenvalues --   -0.52945  -0.52931  -0.51487  -0.48688  -0.47044
  Beta  occ. eigenvalues --   -0.44724  -0.41475  -0.40485  -0.39221  -0.38485
  Beta  occ. eigenvalues --   -0.37872  -0.37257  -0.36585  -0.36044  -0.35192
  Beta  occ. eigenvalues --   -0.34239  -0.33943  -0.33373  -0.32717  -0.32078
  Beta  occ. eigenvalues --   -0.30908  -0.29881  -0.29502  -0.28843  -0.28334
  Beta  occ. eigenvalues --   -0.28086  -0.27431  -0.26315  -0.25541  -0.24779
  Beta  occ. eigenvalues --   -0.24322  -0.24033  -0.23814  -0.22727  -0.21979
  Beta  occ. eigenvalues --   -0.18026  -0.17340  -0.13673  -0.12126
  Beta virt. eigenvalues --    0.05844   0.06460   0.06680   0.06832   0.07240
  Beta virt. eigenvalues --    0.07872   0.08146   0.08512   0.08975   0.09197
  Beta virt. eigenvalues --    0.09530   0.10189   0.10515   0.10721   0.11005

 Mulliken charges and spin densities:
               1          2
     1  C   -0.131640  -0.603417
     2  C    0.014108   0.612711
     3  C   -0.198648  -0.357222
     4  C   -0.743113  -0.474384
     5  C    0.035984   0.160671
     6  C   -0.021869  -0.582843
     7  O   -0.232880   0.005545
     8  N    0.203008   0.005523
     9  C   -0.032713  -0.196909
    10  C    0.766438  -1.242779
    11  C    0.806376  -0.124018
    12  C   -0.675433   0.499758
    13  C   -0.968952   0.742050
    14  C   -0.420530  -0.392917
    15  C    0.875828  -0.737683
    16  C   -0.007568  -0.351060
    17  O   -0.160377   0.043626
    18  C    1.078266  -1.410323
    19  H   -0.097071   0.247733
    20  H    0.056574   0.073428
    21  H    0.060199   0.070934
    22  H    0.164904  -0.003301
    23  H    0.041561   0.079952
    24  H    0.129602   0.032566
    25  H    0.074938   0.060193
    26  H    0.026824   0.144351
    27  H    0.287324  -0.198099
    28  H   -0.296309   0.481175
    29  H   -0.221099   0.396994
    30  H    0.099713   0.063780
    31  H    0.513065  -0.220073
    32  H    0.206489   0.055212
    33  H    0.114899   0.041835
    34  H   -0.016859   0.154477
    35  H    0.014539   0.168369
    36  H   -0.052313   0.230555
    37  H   -0.009339   0.138370
    38  H    0.077405   0.115027
    39  H   -0.594167   0.820922
    40  H   -0.762376   0.944087
    41  H   -0.337447   0.500405
    42  H   -0.242249   0.410054
    43  H   -0.425092   0.594723
 Sum of Mulliken charges =  -1.00000   1.00000

 Dipole moment (field-independent basis, Debye):
    X=             -5.4805    Y=              4.3432    Z=             -4.3373  Tot=              8.2287
 Quadrupole moment (field-independent basis, Debye-Ang):
   XX=           -213.1204   YY=           -157.4707   ZZ=           -157.0182
   XY=             16.7615   XZ=             -6.2402   YZ=              4.0319

 Summary of Natural Population Analysis:

                                       Natural Population
                Natural  -----------------------------------------------
    Atom  No    Charge         Core      Valence    Rydberg      Total
 -----------------------------------------------------------------------
      C    1   -0.28766      0.99965     2.28240    0.00562     3.28766
      C    2   -0.11644      0.99959     2.10712    0.00973     3.11644
      C    3   -0.28411      0.99965     2.27966    0.00480     3.28411
      C    4   -0.00489      0.99957     1.99073    0.01460     3.00489
      C    5   -0.21443      0.99960     2.20514    0.00969     3.21443
      C    6   -0.01166      0.99959     1.99945    0.01262     3.01166
      O    7   -0.37697      0.99990     3.37121    0.00586     4.37697
      N    8   -0.35885      0.99973     2.84794    0.01118     3.85885
      C    9   -0.07956      0.99962     2.06785    0.01209     3.07956
      C   10   -0.20675      0.99959     2.19847    0.00869     3.20675
      C   11   -0.03441      0.99950     2.02368    0.01123     3.03441
      C   12   -0.09724      0.99951     2.08888    0.00885     3.09724
      C   13   -0.11552      0.99952     2.10705    0.00896     3.11552
      C   14    0.15808      0.99938     1.82819    0.01436     2.84192
      C   15   -0.14677      0.99951     2.13674    0.01051     3.14677
      C   16   -0.10188      0.99952     2.09048    0.01189     3.10188
      O   17   -0.27167      0.99986     3.26215    0.00967     4.27167
      C   18   -0.10122      0.99960     2.09259    0.00903     3.10122
      H   19    0.09734      0.00000     0.40180    0.00086     0.40266
      H   20    0.09939      0.00000     0.39979    0.00082     0.40061
      H   21    0.09732      0.00000     0.40197    0.00071     0.40268
      H   22    0.09463      0.00000     0.40366    0.00171     0.40537
      H   23    0.09265      0.00000     0.40651    0.00085     0.40735
      H   24    0.10991      0.00000     0.38910    0.00100     0.39009
      H   25    0.09349      0.00000     0.40579    0.00071     0.40651
      H   26    0.09051      0.00000     0.40787    0.00162     0.40949
      H   27    0.10100      0.00000     0.39684    0.00216     0.39900
      H   28    0.10327      0.00000     0.39537    0.00136     0.39673
      H   29    0.08182      0.00000     0.41701    0.00118     0.41818
      H   30    0.08312      0.00000     0.41565    0.00123     0.41688
      H   31    0.23664      0.00000     0.25918    0.00418     0.26336
      H   32    0.19129      0.00000     0.30610    0.00261     0.30871
      H   33    0.08880      0.00000     0.41025    0.00095     0.41120
      H   34    0.09184      0.00000     0.40718    0.00098     0.40816
      H   35    0.10244      0.00000     0.39641    0.00115     0.39756
      H   36    0.10003      0.00000     0.39841    0.00156     0.39997
      H   37    0.10039      0.00000     0.39866    0.00096     0.39961
      H   38    0.10605      0.00000     0.39297    0.00098     0.39395
      H   39    0.11426      0.00000     0.38308    0.00266     0.38574
      H   40    0.10613      0.00000     0.39202    0.00185     0.39387
      H   41    0.08707      0.00000     0.41084    0.00208     0.41293
      H   42    0.08851      0.00000     0.40946    0.00203     0.41149
      H   43    0.09407      0.00000     0.40465    0.00128     0.40593
 =======================================================================
   * Total *   -0.00000     17.99289    50.79028    0.21683    69.00000

 Normal termination of Gaussian 16 at Fri Dec 11 23:23:55 2020.
