 Gaussian 16, Revision A.03,

 -----------------------------------------------------------
 # opt freq B3LYP/6-31G(d) empiricaldispersion=gd3bj scf=xqc
 -----------------------------------------------------------

 -------------------------------
 CID_103347022_JID_5420_neutraal
 -------------------------------
 Symbolic Z-matrix:
 Charge =  0 Multiplicity = 1

 SCF Done:  E(RB3LYP) =  -1710.87842200     A.U. after   15 cycles
 SCF Done:  E(RB3LYP) =  -1710.88344978     A.U. after   12 cycles
 SCF Done:  E(RB3LYP) =  -1710.88422388     A.U. after   12 cycles
 SCF Done:  E(RB3LYP) =  -1710.88448306     A.U. after   12 cycles
 SCF Done:  E(RB3LYP) =  -1710.88466004     A.U. after   12 cycles
 SCF Done:  E(RB3LYP) =  -1710.88478483     A.U. after   11 cycles
 SCF Done:  E(RB3LYP) =  -1710.88486122     A.U. after   11 cycles
 SCF Done:  E(RB3LYP) =  -1710.88495076     A.U. after   12 cycles
 SCF Done:  E(RB3LYP) =  -1710.88498401     A.U. after   12 cycles
 SCF Done:  E(RB3LYP) =  -1710.88499172     A.U. after    9 cycles
 SCF Done:  E(RB3LYP) =  -1710.88500122     A.U. after    8 cycles
 SCF Done:  E(RB3LYP) =  -1710.88500146     A.U. after    8 cycles
 SCF Done:  E(RB3LYP) =  -1710.88500165     A.U. after    8 cycles
 SCF Done:  E(RB3LYP) =  -1710.88500177     A.U. after    7 cycles
 SCF Done:  E(RB3LYP) =  -1710.88500182     A.U. after    7 cycles
 Optimization completed.
    -- Stationary point found.
 Normal termination of Gaussian 16 at Thu Dec 10 16:02:46 2020.

 --------------------------------------------------------------------
 #N Geom=AllCheck Guess=TCheck SCRF=Check GenChk RB3LYP/6-31G(d) Freq
 --------------------------------------------------------------------

 Structure from the checkpoint file:  "JID_5420.chk"
 -------------------------------
 CID_103347022_JID_5420_neutraal
 -------------------------------
 Charge =  0 Multiplicity = 1

 SCF Done:  E(RB3LYP) =  -1710.88500182     A.U. after    1 cycles

  Exact polarizability: 225.931   2.378 146.971   1.076   1.623 119.190
 Approx polarizability: 297.332   8.996 253.665   6.023   7.436 197.693

                      1                      2                      3
                      A                      A                      A
 Frequencies --     20.4800                44.9363                57.8161
 Red. masses --      6.5175                 3.8055                 3.5360
 Frc consts  --      0.0016                 0.0045                 0.0070
 IR Inten    --      1.6419                 2.4781                 5.5224

                      4                      5                      6
                      A                      A                      A
 Frequencies --     80.6841               124.1863               128.8451
 Red. masses --      3.8246                 4.3738                 1.3819
 Frc consts  --      0.0147                 0.0397                 0.0135
 IR Inten    --      2.9851                 0.9417                 0.3748

                      7                      8                      9
                      A                      A                      A
 Frequencies --    136.7257               181.3482               205.5259
 Red. masses --      2.8875                 3.7271                 5.0517
 Frc consts  --      0.0318                 0.0722                 0.1257
 IR Inten    --      0.4673                 1.1054                 1.4473

                     10                     11                     12
                      A                      A                      A
 Frequencies --    221.2680               224.3003               229.2930
 Red. masses --      1.1922                 1.3382                 1.8953
 Frc consts  --      0.0344                 0.0397                 0.0587
 IR Inten    --      0.3288                 0.7304                 1.8612

                     13                     14                     15
                      A                      A                      A
 Frequencies --    252.8262               279.2043               287.1023
 Red. masses --      5.6164                 3.9483                 5.0445
 Frc consts  --      0.2115                 0.1813                 0.2450
 IR Inten    --      0.8498                 5.2893                 0.9280

                     16                     17                     18
                      A                      A                      A
 Frequencies --    316.2581               341.2050               362.5064
 Red. masses --      8.6010                 4.1266                 2.0828
 Frc consts  --      0.5069                 0.2831                 0.1613
 IR Inten    --      2.1406                 0.7110                22.5615

                     19                     20                     21
                      A                      A                      A
 Frequencies --    365.7506               417.8410               498.4818
 Red. masses --      1.4746                 3.2638                 3.1292
 Frc consts  --      0.1162                 0.3357                 0.4581
 IR Inten    --     63.1587                12.5390                 4.0542

                     22                     23                     24
                      A                      A                      A
 Frequencies --    508.2126               549.4425               579.1419
 Red. masses --      6.0721                 3.9901                 5.3343
 Frc consts  --      0.9240                 0.7097                 1.0541
 IR Inten    --      2.8290                 0.0498                 0.4685

                     25                     26                     27
                      A                      A                      A
 Frequencies --    586.0704               604.9767               644.0969
 Red. masses --      5.8602                 6.9470                 6.6465
 Frc consts  --      1.1859                 1.4981                 1.6246
 IR Inten    --      3.9615                 4.3146                18.4514

                     28                     29                     30
                      A                      A                      A
 Frequencies --    660.8385               706.6445               719.4744
 Red. masses --      6.8897                 3.5980                 5.6145
 Frc consts  --      1.7727                 1.0585                 1.7124
 IR Inten    --      4.1956                10.4001                14.3926

                     31                     32                     33
                      A                      A                      A
 Frequencies --    758.4157               776.4184               839.5405
 Red. masses --      7.2107                 5.1421                 7.1416
 Frc consts  --      2.4437                 1.8263                 2.9657
 IR Inten    --     10.1312                 9.4062                 6.3326

                     34                     35                     36
                      A                      A                      A
 Frequencies --    866.9930               927.6065              1002.9733
 Red. masses --      2.1490                 1.6956                 1.4553
 Frc consts  --      0.9517                 0.8596                 0.8625
 IR Inten    --      4.9855                 4.9055                 6.3598

                     37                     38                     39
                      A                      A                      A
 Frequencies --   1008.8407              1015.3582              1042.5544
 Red. masses --      2.5907                 3.8181                 1.4201
 Frc consts  --      1.5535                 2.3192                 0.9095
 IR Inten    --      4.1075                 3.9751                 4.5158

                     40                     41                     42
                      A                      A                      A
 Frequencies --   1068.0592              1071.7037              1094.9625
 Red. masses --      2.4083                 2.4565                 1.9361
 Frc consts  --      1.6187                 1.6624                 1.3677
 IR Inten    --     22.3837                16.1125                 4.4714

                     43                     44                     45
                      A                      A                      A
 Frequencies --   1130.0220              1163.1608              1166.3574
 Red. masses --      1.8092                 1.2720                 1.8114
 Frc consts  --      1.3611                 1.0139                 1.4519
 IR Inten    --      0.2171                13.3139                 5.4755

                     46                     47                     48
                      A                      A                      A
 Frequencies --   1177.8046              1203.7933              1240.0224
 Red. masses --      1.2039                 2.1020                 1.4002
 Frc consts  --      0.9840                 1.7947                 1.2685
 IR Inten    --     10.3887                24.9876                16.6161

                     49                     50                     51
                      A                      A                      A
 Frequencies --   1246.5474              1281.6372              1312.7950
 Red. masses --      1.4443                 1.2674                 1.2583
 Frc consts  --      1.3223                 1.2266                 1.2777
 IR Inten    --     11.8483                18.0930                 9.4385

                     52                     53                     54
                      A                      A                      A
 Frequencies --   1327.7341              1333.2910              1340.1834
 Red. masses --      1.9652                 2.1292                 1.6322
 Frc consts  --      2.0411                 2.2300                 1.7272
 IR Inten    --     71.0198                18.7050                 4.2148

                     55                     56                     57
                      A                      A                      A
 Frequencies --   1356.6466              1403.7344              1435.2135
 Red. masses --      1.4411                 2.5573                 1.5354
 Frc consts  --      1.5627                 2.9690                 1.8634
 IR Inten    --     20.7526                98.3404                86.0407

                     58                     59                     60
                      A                      A                      A
 Frequencies --   1437.7668              1438.2362              1487.3282
 Red. masses --      1.2372                 1.2295                 1.0911
 Frc consts  --      1.5069                 1.4985                 1.4221
 IR Inten    --      0.7661                14.6617                 6.4238

                     61                     62                     63
                      A                      A                      A
 Frequencies --   1491.8831              1513.1337              1516.2550
 Red. masses --      1.3214                 1.0525                 1.0468
 Frc consts  --      1.7329                 1.4198                 1.4179
 IR Inten    --      5.1182                15.5443                 2.8021

                     64                     65                     66
                      A                      A                      A
 Frequencies --   1518.7664              1530.4126              1532.1296
 Red. masses --      1.0412                 1.4997                 1.4898
 Frc consts  --      1.4150                 2.0695                 2.0604
 IR Inten    --      8.1428                28.9417                19.6769

                     67                     68                     69
                      A                      A                      A
 Frequencies --   1533.7659              1545.7282              1643.5720
 Red. masses --      1.1313                 1.2198                 5.4197
 Frc consts  --      1.5681                 1.7171                 8.6259
 IR Inten    --      3.7782                30.4179               492.7573

                     70                     71                     72
                      A                      A                      A
 Frequencies --   3029.4841              3041.3903              3045.4151
 Red. masses --      1.0421                 1.0789                 1.0701
 Frc consts  --      5.6349                 5.8798                 5.8474
 IR Inten    --     48.8998                 3.7164                 3.4878

                     73                     74                     75
                      A                      A                      A
 Frequencies --   3050.1413              3055.1357              3086.5800
 Red. masses --      1.0438                 1.0615                 1.1001
 Frc consts  --      5.7214                 5.8378                 6.1750
 IR Inten    --     34.4007                55.4839                22.4138

                     76                     77                     78
                      A                      A                      A
 Frequencies --   3088.2186              3099.4153              3122.6495
 Red. masses --      1.0624                 1.0847                 1.0926
 Frc consts  --      5.9697                 6.1393                 6.2769
 IR Inten    --      9.9297                 4.0942                14.8917

                     79                     80                     81
                      A                      A                      A
 Frequencies --   3123.7492              3149.1576              3153.7788
 Red. masses --      1.0925                 1.1026                 1.1030
 Frc consts  --      6.2808                 6.4428                 6.4639
 IR Inten    --     21.7230                 4.3649                14.7031

                     82                     83                     84
                      A                      A                      A
 Frequencies --   3155.3310              3159.9794              3625.1888
 Red. masses --      1.1024                 1.0989                 1.0768
 Frc consts  --      6.4666                 6.4650                 8.3377
 IR Inten    --     17.7034                15.0233                57.7643

 - Thermochemistry -
 -------------------
 Temperature   298.150 Kelvin.  Pressure   1.00000 Atm.
 Atom     1 has atomic number  6 and mass  12.00000

 Molecular mass:   261.04281 amu.
 Principal axes and moments of inertia in atomic units:
                           1         2         3
     Eigenvalues --  1724.450788517.402479166.10010
           X            0.99997  -0.00179  -0.00794
           Y            0.00221   0.99858   0.05326
           Z            0.00783  -0.05327   0.99855
 This molecule is an asymmetric top.
 Rotational symmetry number  1.
 Warning -- assumption of classical behavior for rotation
           may cause significant error
 Rotational temperatures (Kelvin)      0.05023     0.01017     0.00945
 Rotational constants (GHZ):           1.04656     0.21189     0.19689
 Zero-point vibrational energy     634633.6 (Joules/Mol)
                                  151.68106 (Kcal/Mol)
 Warning -- explicit consideration of  26 degrees of freedom as
           vibrations may cause significant error
 Vibrational temperatures:     29.47    64.65    83.18   116.09   178.68
          (Kelvin)            185.38   196.72   260.92   295.71   318.36
                              322.72   329.90   363.76   401.71   413.08
                              455.02   490.92   521.57   526.23   601.18
                              717.20   731.20   790.53   833.26   843.22
                              870.43   926.71   950.80  1016.70  1035.16
                             1091.19  1117.09  1207.91  1247.41  1334.62
                             1443.05  1451.50  1460.87  1500.00  1536.70
                             1541.94  1575.41  1625.85  1673.53  1678.13
                             1694.60  1731.99  1784.12  1793.50  1843.99
                             1888.82  1910.31  1918.31  1928.22  1951.91
                             2019.66  2064.95  2068.63  2069.30  2139.93
                             2146.49  2177.06  2181.55  2185.17  2201.92
                             2204.39  2206.75  2223.96  2364.73  4358.75
                             4375.88  4381.67  4388.47  4395.66  4440.90
                             4443.26  4459.37  4492.80  4494.38  4530.94
                             4537.58  4539.82  4546.51  5215.84

 Zero-point correction=                           0.241719 (Hartree/Particle)
 Thermal correction to Energy=                    0.258196
 Thermal correction to Enthalpy=                  0.259140
 Thermal correction to Gibbs Free Energy=         0.196459
 Sum of electronic and zero-point Energies=          -1710.643283
 Sum of electronic and thermal Energies=             -1710.626806
 Sum of electronic and thermal Enthalpies=           -1710.625862
 Sum of electronic and thermal Free Energies=        -1710.688543

                     E (Thermal)             CV                S
                      KCal/Mol        Cal/Mol-Kelvin    Cal/Mol-Kelvin
 Total                  162.020             60.624            131.924
 Electronic               0.000              0.000              0.000
 Translational            0.889              2.981             42.578
 Rotational               0.889              2.981             33.265
 Vibrational            160.243             54.662             56.081
 Vibration     1          0.593              1.986              6.587
 Vibration     2          0.595              1.979              5.029
 Vibration     3          0.596              1.974              4.530
 Vibration     4          0.600              1.962              3.874
 Vibration     5          0.610              1.929              3.034
 Vibration     6          0.611              1.924              2.963
 Vibration     7          0.614              1.917              2.849
 Vibration     8          0.630              1.865              2.314
 Vibration     9          0.640              1.832              2.083
 Vibration    10          0.648              1.809              1.949
 Vibration    11          0.649              1.804              1.924
 Vibration    12          0.652              1.796              1.884
 Vibration    13          0.664              1.758              1.711
 Vibration    14          0.680              1.712              1.539
 Vibration    15          0.684              1.698              1.491
 Vibration    16          0.703              1.643              1.329
 Vibration    17          0.721              1.593              1.207
 Vibration    18          0.736              1.549              1.111
 Vibration    19          0.739              1.543              1.098
 Vibration    20          0.781              1.431              0.899
 Vibration    21          0.854              1.253              0.662
 Vibration    22          0.863              1.232              0.638
 Vibration    23          0.905              1.141              0.545
 Vibration    24          0.936              1.076              0.487
 Vibration    25          0.943              1.062              0.474
 Vibration    26          0.964              1.021              0.441

 Optimization completed.
    -- Stationary point found.
 Normal termination of Gaussian 16 at Thu Dec 10 16:11:33 2020.

 ----------------------------------------------------------------------
 # B3LYP/6-311++G(d,p) empiricaldispersion=gd3bj scf=xqc pop=npa geom=c
 heck
 ----------------------------------------------------------------------

 ---------------------------------------
 CID_103347022_JID_5420_Energie_neutraal
 ---------------------------------------
 Structure from the checkpoint file:  "JID_5420.chk"
 Charge =  0 Multiplicity = 1

 SCF Done:  E(RB3LYP) =  -1711.10687157     A.U. after   15 cycles
 Normal termination of Gaussian 16 at Thu Dec 10 16:15:36 2020.

 ----------------------------------------------------------------------
 # B3LYP/6-311++G(d,p) empiricaldispersion=gd3bj scf=xqc pop=npa geom=c
 heck
 ----------------------------------------------------------------------

 -------------------------------------
 CID_103347022_JID_5420_Energie_kation
 -------------------------------------
 Structure from the checkpoint file:  "JID_5420.chk"
 Charge =  1 Multiplicity = 2

 SCF Done:  E(UB3LYP) =  -1710.82786400     A.U. after   21 cycles
 Normal termination of Gaussian 16 at Thu Dec 10 16:23:11 2020.
 Gaussian 16:  ES64L-G16RevA.03 25-Dec-2016

 ----------------------------------------------------------------------
 # B3LYP/6-311++G(d,p) empiricaldispersion=gd3bj scf=xqc pop=npa geom=c
 heck
 ----------------------------------------------------------------------

 ------------------------------------
 CID_103347022_JID_5420_Energie_anion
 ------------------------------------
 Structure from the checkpoint file:  "JID_5420.chk"
 Charge = -1 Multiplicity = 2

                         Standard orientation:
 ---------------------------------------------------------------------
 Center     Atomic      Atomic             Coordinates (Angstroms)
 Number     Number       Type             X           Y           Z
 ---------------------------------------------------------------------
      1          6           0        3.743891   -0.888900   -1.513508
      2          6           0        3.599525   -0.065404   -0.233773
      3          6           0        2.828016    1.253247   -0.438706
      4         16           0        1.069973    0.990463   -0.949118
      5          6           0        0.435159   -0.011801    0.476554
      6          6           0        1.207467   -1.318247    0.644153
      7         16           0        2.941221   -1.064738    1.174309
      8          6           0       -1.030481   -0.237863    0.218439
      9          7           0       -1.449520   -1.396019   -0.239475
     10         16           0       -3.130567   -1.290213   -0.425967
     11          6           0       -3.121313    0.380111    0.146290
     12          7           0       -1.911227    0.785250    0.459594
     13          7           0       -4.230385    1.144157    0.235673
     14          6           0       -5.568262    0.621039    0.043718
     15          6           0        2.955663    2.223709    0.735557
     16          1           0        4.221464   -0.287058   -2.297425
     17          1           0        2.769822   -1.209020   -1.891475
     18          1           0        4.358391   -1.774700   -1.332401
     19          1           0        4.600650    0.205801    0.125641
     20          1           0        3.247368    1.730400   -1.334463
     21          1           0        0.522769    0.598643    1.379546
     22          1           0        1.159859   -1.908707   -0.272399
     23          1           0        0.753293   -1.914221    1.442003
     24          1           0       -4.100989    2.040946    0.683330
     25          1           0       -5.838834   -0.121451    0.807526
     26          1           0       -6.280170    1.447027    0.087401
     27          1           0       -5.652959    0.151458   -0.943705
     28          1           0        4.013882    2.436505    0.934571
     29          1           0        2.446897    3.165170    0.512620
     30          1           0        2.528457    1.801938    1.648757
 ---------------------------------------------------------------------

 SCF Done:  E(UB3LYP) =  -1711.09888531     A.U. after   33 cycles
 SCF Done:  E(UB3LYP) =  -1711.09888531     a.u. after    1 cycles

 The electronic state is 2-A.
 Alpha  occ. eigenvalues --  -88.80652 -88.75556 -88.75262 -14.26094 -14.23583
 Alpha  occ. eigenvalues --  -14.21843 -10.18871 -10.15733 -10.13168 -10.12989
 Alpha  occ. eigenvalues --  -10.12910 -10.11851 -10.11496 -10.08423 -10.08246
 Alpha  occ. eigenvalues --   -7.89124  -7.84203  -7.83896  -5.85515  -5.85069
 Alpha  occ. eigenvalues --   -5.84590  -5.80593  -5.80304  -5.80234  -5.79935
 Alpha  occ. eigenvalues --   -5.79564  -5.79222  -0.92528  -0.86207  -0.77924
 Alpha  occ. eigenvalues --   -0.77321  -0.72519  -0.69066  -0.66583  -0.63408
 Alpha  occ. eigenvalues --   -0.62077  -0.58792  -0.55545  -0.53631  -0.51323
 Alpha  occ. eigenvalues --   -0.48764  -0.44928  -0.42145  -0.40990  -0.39428
 Alpha  occ. eigenvalues --   -0.38020  -0.37126  -0.36386  -0.36154  -0.35371
 Alpha  occ. eigenvalues --   -0.33366  -0.33070  -0.32234  -0.31369  -0.30575
 Alpha  occ. eigenvalues --   -0.29883  -0.28886  -0.27576  -0.27028  -0.24794
 Alpha  occ. eigenvalues --   -0.24275  -0.23211  -0.23032  -0.21474  -0.19318
 Alpha  occ. eigenvalues --   -0.19079  -0.15125  -0.14389  -0.13622   0.03753
 Alpha virt. eigenvalues --    0.04717   0.06177   0.07054   0.07213   0.07461
 Alpha virt. eigenvalues --    0.07763   0.08465   0.09316   0.09428   0.09585
 Alpha virt. eigenvalues --    0.09835   0.10225   0.10797   0.11337   0.11727

  Beta  occ. eigenvalues --  -88.80645 -88.75555 -88.75259 -14.26064 -14.23561
  Beta  occ. eigenvalues --  -14.21841 -10.18865 -10.15729 -10.13167 -10.12979
  Beta  occ. eigenvalues --  -10.12900 -10.11851 -10.11410 -10.08410 -10.08232
  Beta  occ. eigenvalues --   -7.89114  -7.84201  -7.83893  -5.85509  -5.85061
  Beta  occ. eigenvalues --   -5.84579  -5.80592  -5.80302  -5.80233  -5.79932
  Beta  occ. eigenvalues --   -5.79563  -5.79219  -0.92501  -0.86152  -0.77899
  Beta  occ. eigenvalues --   -0.77303  -0.72499  -0.69051  -0.66548  -0.63384
  Beta  occ. eigenvalues --   -0.61956  -0.58767  -0.55522  -0.53605  -0.51259
  Beta  occ. eigenvalues --   -0.48725  -0.44904  -0.42106  -0.40926  -0.39397
  Beta  occ. eigenvalues --   -0.37964  -0.37074  -0.36352  -0.36122  -0.35339
  Beta  occ. eigenvalues --   -0.33325  -0.33044  -0.32198  -0.31313  -0.30554
  Beta  occ. eigenvalues --   -0.29864  -0.28853  -0.27551  -0.27009  -0.24772
  Beta  occ. eigenvalues --   -0.24226  -0.23191  -0.23002  -0.21462  -0.19297
  Beta  occ. eigenvalues --   -0.19053  -0.15120  -0.14355  -0.13599
  Beta virt. eigenvalues --    0.05531   0.06226   0.06753   0.07194   0.07298
  Beta virt. eigenvalues --    0.07703   0.08477   0.08798   0.09372   0.09596
  Beta virt. eigenvalues --    0.10245   0.10291   0.10339   0.10927   0.11396

 Mulliken charges and spin densities:
               1          2
     1  C   -0.188130  -0.587993
     2  C    0.311296  -0.051491
     3  C   -0.120554   0.180979
     4  S   -0.031881  -0.115957
     5  C   -0.076742  -0.058991
     6  C   -1.011622   0.003503
     7  S    0.091084  -0.144129
     8  C   -0.454855  -0.394843
     9  N    0.094623   0.023079
    10  S    0.428289  -0.204753
    11  C    0.271505   0.115339
    12  N   -0.006456   0.003444
    13  N   -0.409401   0.343738
    14  C    1.805216  -2.086613
    15  C   -0.166991  -0.508261
    16  H   -0.039405   0.164286
    17  H    0.132925   0.015990
    18  H    0.030879   0.112118
    19  H   -0.210262   0.483572
    20  H   -0.086175   0.359115
    21  H    0.216389   0.023564
    22  H    0.258957   0.005394
    23  H    0.207167   0.020349
    24  H   -0.114465   0.431367
    25  H   -0.465352   0.645006
    26  H   -1.083916   1.259149
    27  H   -0.442783   0.599520
    28  H   -0.113222   0.242171
    29  H    0.049849   0.097274
    30  H    0.124032   0.024073
 Sum of Mulliken charges =  -1.00000   1.00000

 Dipole moment (field-independent basis, Debye):
    X=              8.7158    Y=             -4.0031    Z=              0.0722  Tot=              9.5914
 Quadrupole moment (field-independent basis, Debye-Ang):
   XX=           -261.4610   YY=           -151.7951   ZZ=           -140.4759
   XY=             17.9924   XZ=              3.0377   YZ=             -0.2376

 Summary of Natural Population Analysis:

                                       Natural Population
                Natural  -----------------------------------------------
    Atom  No    Charge         Core      Valence    Rydberg      Total
 -----------------------------------------------------------------------
      C    1   -0.29278      0.99963     2.28540    0.00775     3.29278
      C    2   -0.17207      0.99953     2.15655    0.01599     3.17207
      C    3   -0.17371      0.99953     2.15828    0.01590     3.17371
      S    4    0.10633      4.99960     2.87857    0.01550     7.89367
      C    5   -0.18330      0.99948     2.17081    0.01301     3.18330
      C    6   -0.25475      0.99954     2.24457    0.01063     3.25475
      S    7    0.08786      4.99961     2.89449    0.01804     7.91214
      C    8    0.19429      0.99959     1.78510    0.02103     2.80571
      N    9   -0.32887      0.99968     2.81931    0.00988     3.82887
      S   10    0.24555      4.99946     2.73099    0.02399     7.75445
      C   11    0.14368      0.99960     1.83468    0.02204     2.85632
      N   12   -0.28410      0.99962     2.77355    0.01093     3.78410
      N   13   -0.30148      0.99965     2.78870    0.01313     3.80148
      C   14   -0.18188      0.99965     2.17340    0.00883     3.18188
      C   15   -0.29233      0.99963     2.28524    0.00746     3.29233
      H   16    0.10041      0.00000     0.39843    0.00116     0.39959
      H   17    0.10646      0.00000     0.39249    0.00105     0.39354
      H   18    0.10299      0.00000     0.39604    0.00097     0.39701
      H   19    0.10906      0.00000     0.38931    0.00163     0.39094
      H   20    0.10874      0.00000     0.39007    0.00119     0.39126
      H   21    0.11393      0.00000     0.38414    0.00193     0.38607
      H   22    0.11186      0.00000     0.38647    0.00167     0.38814
      H   23    0.11358      0.00000     0.38527    0.00115     0.38642
      H   24    0.20428      0.00000     0.29118    0.00454     0.29572
      H   25    0.09569      0.00000     0.40175    0.00256     0.40431
      H   26    0.11314      0.00000     0.37706    0.00980     0.38686
      H   27    0.09728      0.00000     0.40073    0.00199     0.40272
      H   28    0.10040      0.00000     0.39829    0.00131     0.39960
      H   29    0.10518      0.00000     0.39396    0.00086     0.39482
      H   30    0.10454      0.00000     0.39431    0.00115     0.39546
 =======================================================================
   * Total *    0.00000     26.99380    41.75913    0.24707    69.00000

 Normal termination of Gaussian 16 at Thu Dec 10 16:34:54 2020.
