 Gaussian 16, Revision A.03,

 -----------------------------------------------------------
 # opt freq B3LYP/6-31G(d) empiricaldispersion=gd3bj scf=xqc
 -----------------------------------------------------------

 -------------------------------
 CID_103253898_JID_4419_neutraal
 -------------------------------
 Symbolic Z-matrix:
 Charge =  0 Multiplicity = 1

 SCF Done:  E(RB3LYP) =  -672.945145124     A.U. after   15 cycles
 SCF Done:  E(RB3LYP) =  -672.950138771     A.U. after   12 cycles
 SCF Done:  E(RB3LYP) =  -672.950863368     A.U. after   13 cycles
 SCF Done:  E(RB3LYP) =  -672.951739687     A.U. after   13 cycles
 SCF Done:  E(RB3LYP) =  -672.951779991     A.U. after   12 cycles
 SCF Done:  E(RB3LYP) =  -672.952236294     A.U. after   12 cycles
 SCF Done:  E(RB3LYP) =  -672.952347882     A.U. after   11 cycles
 SCF Done:  E(RB3LYP) =  -672.952383748     A.U. after   11 cycles
 SCF Done:  E(RB3LYP) =  -672.952390699     A.U. after   10 cycles
 SCF Done:  E(RB3LYP) =  -672.952393157     A.U. after    9 cycles
 SCF Done:  E(RB3LYP) =  -672.952393772     A.U. after    8 cycles
 SCF Done:  E(RB3LYP) =  -672.952394014     A.U. after    7 cycles
 SCF Done:  E(RB3LYP) =  -672.952394165     A.U. after    8 cycles
 SCF Done:  E(RB3LYP) =  -672.952394164     A.U. after    7 cycles
 Optimization completed.
    -- Stationary point found.
 Normal termination of Gaussian 16 at Thu Dec 10 09:43:51 2020.

 --------------------------------------------------------------------
 #N Geom=AllCheck Guess=TCheck SCRF=Check GenChk RB3LYP/6-31G(d) Freq
 --------------------------------------------------------------------

 Structure from the checkpoint file:  "JID_4419.chk"
 -------------------------------
 CID_103253898_JID_4419_neutraal
 -------------------------------
 Charge =  0 Multiplicity = 1

 SCF Done:  E(RB3LYP) =  -672.952394164     A.U. after    1 cycles

  Exact polarizability: 147.199 -10.391 124.153   9.997  -0.277  98.911
 Approx polarizability: 186.243 -17.061 178.557  19.521   1.774 147.888

                      1                      2                      3
                      A                      A                      A
 Frequencies --     17.6741                26.4566                56.1965
 Red. masses --      4.8294                 3.2361                 3.8394
 Frc consts  --      0.0009                 0.0013                 0.0071
 IR Inten    --      0.0938                 0.4105                 0.1195

                      4                      5                      6
                      A                      A                      A
 Frequencies --     65.0728                91.5227               102.8138
 Red. masses --      4.5037                 2.7897                 3.6917
 Frc consts  --      0.0112                 0.0138                 0.0230
 IR Inten    --      4.0686                 2.4944                 1.6684

                      7                      8                      9
                      A                      A                      A
 Frequencies --    137.7392               157.6969               170.3982
 Red. masses --      1.3938                 2.0220                 3.4388
 Frc consts  --      0.0156                 0.0296                 0.0588
 IR Inten    --      2.1857                 2.1600                 0.4547

                     10                     11                     12
                      A                      A                      A
 Frequencies --    188.1783               196.5427               233.7742
 Red. masses --      1.4558                 1.9319                 2.6002
 Frc consts  --      0.0304                 0.0440                 0.0837
 IR Inten    --      0.6688                 1.0554                 4.9481

                     13                     14                     15
                      A                      A                      A
 Frequencies --    241.7346               257.7525               289.7970
 Red. masses --      1.1670                 2.9541                 3.0416
 Frc consts  --      0.0402                 0.1156                 0.1505
 IR Inten    --     21.9126                 1.7891                 2.3639

                     16                     17                     18
                      A                      A                      A
 Frequencies --    306.7391               315.8220               355.1322
 Red. masses --      2.3672                 1.1891                 3.6647
 Frc consts  --      0.1312                 0.0699                 0.2723
 IR Inten    --      6.0131                99.5971                15.3754

                     19                     20                     21
                      A                      A                      A
 Frequencies --    365.8964               380.4480               415.0646
 Red. masses --      1.8813                 4.1654                 3.1563
 Frc consts  --      0.1484                 0.3552                 0.3204
 IR Inten    --     16.3742                 3.5968                 0.3392

                     22                     23                     24
                      A                      A                      A
 Frequencies --    450.7850               495.8528               549.7539
 Red. masses --      2.4914                 3.7444                 3.9180
 Frc consts  --      0.2983                 0.5424                 0.6977
 IR Inten    --      4.9033                 3.2597                 0.4499

                     25                     26                     27
                      A                      A                      A
 Frequencies --    615.3087               642.5553               780.3555
 Red. masses --      3.5118                 2.8464                 6.0987
 Frc consts  --      0.7834                 0.6924                 2.1881
 IR Inten    --      3.6726                 4.9992                 6.2384

                     28                     29                     30
                      A                      A                      A
 Frequencies --    811.5387               824.1372               856.6393
 Red. masses --      2.8704                 3.0576                 1.6652
 Frc consts  --      1.1138                 1.2236                 0.7200
 IR Inten    --     17.6844                 1.1849                85.1053

                     31                     32                     33
                      A                      A                      A
 Frequencies --    891.5434               909.5017               917.3780
 Red. masses --      1.7283                 1.3808                 1.7905
 Frc consts  --      0.8094                 0.6729                 0.8878
 IR Inten    --     24.3759                 3.2177                 0.4428

                     34                     35                     36
                      A                      A                      A
 Frequencies --    954.5171               971.4503               999.9569
 Red. masses --      1.6249                 1.9611                 1.6624
 Frc consts  --      0.8723                 1.0904                 0.9794
 IR Inten    --     10.0432                 9.3059                48.1230

                     37                     38                     39
                      A                      A                      A
 Frequencies --   1033.6420              1052.0750              1075.2115
 Red. masses --      3.3257                 1.8041                 4.5910
 Frc consts  --      2.0935                 1.1765                 3.1271
 IR Inten    --      6.5277                32.2733                95.9380

                     40                     41                     42
                      A                      A                      A
 Frequencies --   1084.8177              1087.7012              1106.0916
 Red. masses --      1.6048                 2.0332                 2.6745
 Frc consts  --      1.1127                 1.4172                 1.9279
 IR Inten    --      4.8921                22.9800                 7.5899

                     43                     44                     45
                      A                      A                      A
 Frequencies --   1123.9926              1157.8453              1169.7657
 Red. masses --      1.4507                 1.9613                 3.4145
 Frc consts  --      1.0798                 1.5491                 2.7528
 IR Inten    --      5.0880                34.6487                42.7864

                     46                     47                     48
                      A                      A                      A
 Frequencies --   1185.9173              1203.6761              1227.7777
 Red. masses --      1.2765                 1.9983                 1.7811
 Frc consts  --      1.0577                 1.7058                 1.5819
 IR Inten    --      0.9314                80.2372                67.6035

                     49                     50                     51
                      A                      A                      A
 Frequencies --   1254.3753              1266.9321              1290.1482
 Red. masses --      1.4721                 1.7277                 1.7862
 Frc consts  --      1.3647                 1.6339                 1.7517
 IR Inten    --      4.4920               276.8001               110.9653

                     52                     53                     54
                      A                      A                      A
 Frequencies --   1313.4559              1362.2829              1380.8824
 Red. masses --      1.3613                 1.2755                 1.2831
 Frc consts  --      1.3837                 1.3946                 1.4416
 IR Inten    --      2.4119                 1.9826                 9.2156

                     55                     56                     57
                      A                      A                      A
 Frequencies --   1390.1560              1405.1973              1408.0623
 Red. masses --      1.4057                 1.5375                 1.2645
 Frc consts  --      1.6005                 1.7888                 1.4771
 IR Inten    --      8.9590                49.5957                24.8805

                     58                     59                     60
                      A                      A                      A
 Frequencies --   1414.6189              1427.2592              1447.8194
 Red. masses --      1.3347                 1.2896                 1.2364
 Frc consts  --      1.5737                 1.5478                 1.5270
 IR Inten    --      9.3668                28.9860                 6.3972

                     61                     62                     63
                      A                      A                      A
 Frequencies --   1449.8343              1491.7010              1501.5430
 Red. masses --      1.3108                 1.2092                 1.0832
 Frc consts  --      1.6234                 1.5853                 1.4389
 IR Inten    --      5.0859                 7.8595                 5.1147

                     64                     65                     66
                      A                      A                      A
 Frequencies --   1506.7485              1512.0161              1517.9709
 Red. masses --      1.0452                 1.0483                 1.1695
 Frc consts  --      1.3981                 1.4120                 1.5878
 IR Inten    --      6.8757                 6.3695                57.3600

                     67                     68                     69
                      A                      A                      A
 Frequencies --   1522.4999              1525.1435              1527.2776
 Red. masses --      1.0555                 1.0619                 1.0628
 Frc consts  --      1.4415                 1.4553                 1.4606
 IR Inten    --     23.4051                 1.6133                 3.5989

                     70                     71                     72
                      A                      A                      A
 Frequencies --   1538.3628              1541.3337              1551.7489
 Red. masses --      1.0742                 1.0885                 1.0636
 Frc consts  --      1.4978                 1.5235                 1.5090
 IR Inten    --      1.6823                21.0211                 4.1652

                     73                     74                     75
                      A                      A                      A
 Frequencies --   1703.6341              1776.8277              2941.0447
 Red. masses --      7.0054                10.1099                 1.0723
 Frc consts  --     11.9794                18.8056                 5.4647
 IR Inten    --     36.5985               136.8796                59.2754

                     76                     77                     78
                      A                      A                      A
 Frequencies --   3030.9627              3038.0501              3040.5742
 Red. masses --      1.0832                 1.0849                 1.0448
 Frc consts  --      5.8630                 5.8998                 5.6911
 IR Inten    --      4.6681                42.9454                30.7698

                     79                     80                     81
                      A                      A                      A
 Frequencies --   3044.6660              3054.7151              3055.7184
 Red. masses --      1.0556                 1.0367                 1.0617
 Frc consts  --      5.7654                 5.6994                 5.8408
 IR Inten    --     33.9885                27.4942                44.3301

                     82                     83                     84
                      A                      A                      A
 Frequencies --   3076.2791              3096.9814              3106.3595
 Red. masses --      1.0296                 1.1044                 1.1015
 Frc consts  --      5.7405                 6.2408                 6.2625
 IR Inten    --     32.6750                41.9837                41.8026

                     85                     86                     87
                      A                      A                      A
 Frequencies --   3107.9560              3110.5962              3112.2969
 Red. masses --      1.1007                 1.1005                 1.1015
 Frc consts  --      6.2641                 6.2736                 6.2862
 IR Inten    --     15.8999                15.8054                38.7725

                     88                     89                     90
                      A                      A                      A
 Frequencies --   3135.1148              3148.6599              3150.4657
 Red. masses --      1.1029                 1.0901                 1.1074
 Frc consts  --      6.3871                 6.3676                 6.4758
 IR Inten    --     10.1141                32.5981                20.1074

                     91                     92                     93
                      A                      A                      A
 Frequencies --   3184.1362              3525.3007              3760.2491
 Red. masses --      1.1071                 1.0727                 1.0662
 Frc consts  --      6.6136                 7.8547                 8.8819
 IR Inten    --     18.7488                16.5523                10.1496

 - Thermochemistry -
 -------------------
 Temperature   298.150 Kelvin.  Pressure   1.00000 Atm.
 Atom     1 has atomic number  6 and mass  12.00000

 Molecular mass:   201.13649 amu.
 Principal axes and moments of inertia in atomic units:
                           1         2         3
     Eigenvalues --  1514.339356176.471796863.57661
           X            1.00000   0.00084   0.00277
           Y           -0.00085   0.99999   0.00425
           Z           -0.00277  -0.00426   0.99999
 This molecule is an asymmetric top.
 Rotational symmetry number  1.
 Warning -- assumption of classical behavior for rotation
           may cause significant error
 Rotational temperatures (Kelvin)      0.05720     0.01402     0.01262
 Rotational constants (GHZ):           1.19177     0.29220     0.26294
 Zero-point vibrational energy     761424.3 (Joules/Mol)
                                  181.98477 (Kcal/Mol)
 Warning -- explicit consideration of  25 degrees of freedom as
           vibrations may cause significant error
 Vibrational temperatures:     25.43    38.07    80.85    93.63   131.68
          (Kelvin)            147.93   198.18   226.89   245.17   270.75
                              282.78   336.35   347.80   370.85   416.95
                              441.33   454.40   510.96   526.44   547.38
                              597.19   648.58   713.42   790.97   885.29
                              924.49  1122.76  1167.62  1185.75  1232.51
                             1282.73  1308.57  1319.90  1373.34  1397.70
                             1438.72  1487.18  1513.70  1546.99  1560.81
                             1564.96  1591.42  1617.17  1665.88  1683.03
                             1706.27  1731.82  1766.50  1804.77  1822.83
                             1856.24  1889.77  1960.02  1986.78  2000.12
                             2021.77  2025.89  2035.32  2053.51  2083.09
                             2085.99  2146.23  2160.39  2167.88  2175.45
                             2184.02  2190.54  2194.34  2197.41  2213.36
                             2217.64  2232.62  2451.15  2556.46  4231.51
                             4360.88  4371.08  4374.71  4380.60  4395.05
                             4396.50  4426.08  4455.87  4469.36  4471.66
                             4475.45  4477.90  4510.73  4530.22  4532.82
                             4581.26  5072.12  5410.16

 Zero-point correction=                           0.290011 (Hartree/Particle)
 Thermal correction to Energy=                    0.306830
 Thermal correction to Enthalpy=                  0.307774
 Thermal correction to Gibbs Free Energy=         0.243846
 Sum of electronic and zero-point Energies=           -672.662383
 Sum of electronic and thermal Energies=              -672.645564
 Sum of electronic and thermal Enthalpies=            -672.644620
 Sum of electronic and thermal Free Energies=         -672.708548

                     E (Thermal)             CV                S
                      KCal/Mol        Cal/Mol-Kelvin    Cal/Mol-Kelvin
 Total                  192.539             59.960            134.548
 Electronic               0.000              0.000              0.000
 Translational            0.889              2.981             41.801
 Rotational               0.889              2.981             32.529
 Vibrational            190.761             53.998             60.218
 Vibration     1          0.593              1.986              6.880
 Vibration     2          0.593              1.985              6.079
 Vibration     3          0.596              1.975              4.586
 Vibration     4          0.597              1.971              4.297
 Vibration     5          0.602              1.955              3.627
 Vibration     6          0.605              1.947              3.400
 Vibration     7          0.614              1.916              2.835
 Vibration     8          0.621              1.894              2.577
 Vibration     9          0.625              1.879              2.431
 Vibration    10          0.633              1.856              2.246
 Vibration    11          0.636              1.845              2.165
 Vibration    12          0.654              1.789              1.850
 Vibration    13          0.658              1.776              1.790
 Vibration    14          0.667              1.750              1.677
 Vibration    15          0.686              1.693              1.475
 Vibration    16          0.697              1.661              1.380
 Vibration    17          0.703              1.643              1.332
 Vibration    18          0.731              1.565              1.143
 Vibration    19          0.739              1.542              1.097
 Vibration    20          0.750              1.512              1.037
 Vibration    21          0.778              1.438              0.909
 Vibration    22          0.810              1.359              0.793
 Vibration    23          0.851              1.259              0.669
 Vibration    24          0.905              1.140              0.545
 Vibration    25          0.975              0.999              0.424

 Optimization completed.
    -- Stationary point found.
 Normal termination of Gaussian 16 at Thu Dec 10 09:52:00 2020.

 ----------------------------------------------------------------------
 # B3LYP/6-311++G(d,p) empiricaldispersion=gd3bj scf=xqc pop=npa geom=c
 heck
 ----------------------------------------------------------------------

 ---------------------------------------
 CID_103253898_JID_4419_Energie_neutraal
 ---------------------------------------
 Structure from the checkpoint file:  "JID_4419.chk"
 Charge =  0 Multiplicity = 1

 SCF Done:  E(RB3LYP) =  -673.161531047     A.U. after   14 cycles
 Normal termination of Gaussian 16 at Thu Dec 10 09:55:19 2020.

 ----------------------------------------------------------------------
 # B3LYP/6-311++G(d,p) empiricaldispersion=gd3bj scf=xqc pop=npa geom=c
 heck
 ----------------------------------------------------------------------

 -------------------------------------
 CID_103253898_JID_4419_Energie_kation
 -------------------------------------
 Structure from the checkpoint file:  "JID_4419.chk"
 Charge =  1 Multiplicity = 2

 SCF Done:  E(UB3LYP) =  -672.866171323     A.U. after   23 cycles
 Normal termination of Gaussian 16 at Thu Dec 10 10:02:29 2020.
 Gaussian 16:  ES64L-G16RevA.03 25-Dec-2016

 ----------------------------------------------------------------------
 # B3LYP/6-311++G(d,p) empiricaldispersion=gd3bj scf=xqc pop=npa geom=c
 heck
 ----------------------------------------------------------------------

 ------------------------------------
 CID_103253898_JID_4419_Energie_anion
 ------------------------------------
 Structure from the checkpoint file:  "JID_4419.chk"
 Charge = -1 Multiplicity = 2

                         Standard orientation:
 ---------------------------------------------------------------------
 Center     Atomic      Atomic             Coordinates (Angstroms)
 Number     Number       Type             X           Y           Z
 ---------------------------------------------------------------------
      1          6           0       -2.348895   -1.427383    1.012697
      2          6           0       -2.823617    0.005677    0.737124
      3          6           0       -1.655257    0.941915    0.395570
      4          7           0       -0.966218    0.524347   -0.823207
      5          6           0        0.072181    1.448728   -1.278320
      6          6           0        1.138223    1.810215   -0.256859
      7          6           0        2.126404    1.038803    0.237359
      8          6           0        3.108419    1.559767    1.258915
      9          6           0        2.303012   -0.362224   -0.229677
     10          8           0        1.522529   -1.007238   -0.912054
     11          8           0        3.475913   -0.881762    0.199938
     12          6           0        3.729791   -2.235592   -0.201871
     13          6           0       -3.895642    0.043709   -0.360677
     14          8           0       -5.054201   -0.723669   -0.036583
     15          1           0       -1.952047   -1.901958    0.106362
     16          1           0       -3.173405   -2.046257    1.383004
     17          1           0       -1.559754   -1.444609    1.773460
     18          1           0       -3.286627    0.389330    1.657042
     19          1           0       -2.044294    1.956424    0.226926
     20          1           0       -0.984820    1.006209    1.273091
     21          1           0       -0.511531   -0.374144   -0.678608
     22          1           0        0.542598    0.995284   -2.155937
     23          1           0       -0.416243    2.374639   -1.604426
     24          1           0        1.086678    2.823807    0.141466
     25          1           0        3.108736    0.942478    2.164452
     26          1           0        4.132283    1.543574    0.869828
     27          1           0        2.859417    2.586794    1.540686
     28          1           0        2.946302   -2.899615    0.172467
     29          1           0        3.765746   -2.311379   -1.291720
     30          1           0        4.695041   -2.492811    0.234466
     31          1           0       -4.250504    1.072172   -0.489298
     32          1           0       -3.456018   -0.273279   -1.315851
     33          1           0       -4.819656   -1.657430   -0.140930
 ---------------------------------------------------------------------

 SCF Done:  E(UB3LYP) =  -673.160151474     A.U. after   33 cycles
 SCF Done:  E(UB3LYP) =  -673.160151474     a.u. after    1 cycles

 The electronic state is 2-A.
 Alpha  occ. eigenvalues --  -19.02037 -19.01489 -18.94157 -14.15183 -10.12277
 Alpha  occ. eigenvalues --  -10.10626 -10.09745 -10.06367 -10.05759 -10.05106
 Alpha  occ. eigenvalues --  -10.04846 -10.03538 -10.02049 -10.00604  -0.95823
 Alpha  occ. eigenvalues --   -0.91415  -0.86108  -0.76878  -0.67725  -0.65896
 Alpha  occ. eigenvalues --   -0.60143  -0.57860  -0.57086  -0.53982  -0.50024
 Alpha  occ. eigenvalues --   -0.46318  -0.44606  -0.40770  -0.40237  -0.36354
 Alpha  occ. eigenvalues --   -0.35447  -0.34661  -0.33687  -0.33015  -0.32693
 Alpha  occ. eigenvalues --   -0.31641  -0.30014  -0.29158  -0.27976  -0.27710
 Alpha  occ. eigenvalues --   -0.27071  -0.26172  -0.25513  -0.25233  -0.23807
 Alpha  occ. eigenvalues --   -0.23369  -0.21982  -0.21581  -0.21067  -0.19995
 Alpha  occ. eigenvalues --   -0.17002  -0.16659  -0.13052  -0.11390  -0.08666
 Alpha  occ. eigenvalues --    0.05311
 Alpha virt. eigenvalues --    0.07046   0.07995   0.08714   0.09541   0.09719
 Alpha virt. eigenvalues --    0.10696   0.11184   0.11606   0.11726   0.12457
 Alpha virt. eigenvalues --    0.13185   0.13366   0.13759   0.13929   0.14833

  Beta  occ. eigenvalues --  -19.01934 -19.01471 -18.93858 -14.15124 -10.11977
  Beta  occ. eigenvalues --  -10.10630 -10.09737 -10.06352 -10.05757 -10.05137
  Beta  occ. eigenvalues --  -10.04822 -10.03546 -10.01953 -10.00155  -0.95497
  Beta  occ. eigenvalues --   -0.91381  -0.85629  -0.76760  -0.67602  -0.65493
  Beta  occ. eigenvalues --   -0.59926  -0.57746  -0.56967  -0.53786  -0.49803
  Beta  occ. eigenvalues --   -0.45837  -0.44529  -0.40654  -0.39997  -0.36275
  Beta  occ. eigenvalues --   -0.35023  -0.34532  -0.33525  -0.32925  -0.32379
  Beta  occ. eigenvalues --   -0.31567  -0.29872  -0.28801  -0.27808  -0.27583
  Beta  occ. eigenvalues --   -0.27001  -0.26134  -0.25333  -0.24336  -0.23710
  Beta  occ. eigenvalues --   -0.23214  -0.21882  -0.21523  -0.20978  -0.19807
  Beta  occ. eigenvalues --   -0.16666  -0.15913  -0.12662  -0.09610  -0.08451
  Beta virt. eigenvalues --    0.07492   0.07971   0.08701   0.09462   0.09727
  Beta virt. eigenvalues --    0.10628   0.11051   0.11378   0.11546   0.11851
  Beta virt. eigenvalues --    0.12425   0.13193   0.13380   0.13695   0.14051

 Mulliken charges and spin densities:
               1          2
     1  C    0.205737  -0.805232
     2  C   -0.949321   1.018960
     3  C    0.056359  -0.512179
     4  N    0.031391  -0.042253
     5  C   -0.504870   0.033737
     6  C   -0.431474   0.461481
     7  C    1.120479  -0.059458
     8  C   -0.520164  -0.005305
     9  C   -0.906189   0.231652
    10  O   -0.365758   0.099386
    11  O   -0.114444   0.020842
    12  C   -0.206614  -0.022555
    13  C    0.131395  -0.603264
    14  O   -0.261043  -0.002174
    15  H   -0.050634   0.227964
    16  H   -0.180701   0.297000
    17  H    0.098417   0.034544
    18  H   -0.034614   0.187187
    19  H    0.051292   0.078331
    20  H    0.091058   0.041625
    21  H    0.312415  -0.087380
    22  H    0.176668   0.021418
    23  H    0.111338   0.002320
    24  H    0.124583  -0.029862
    25  H    0.126825   0.025243
    26  H    0.141020   0.002657
    27  H    0.108586   0.003248
    28  H    0.154333   0.006416
    29  H    0.131134   0.028643
    30  H    0.105973   0.006582
    31  H    0.118056   0.030456
    32  H    0.090259   0.103789
    33  H    0.038506   0.206179
 Sum of Mulliken charges =  -1.00000   1.00000

 Dipole moment (field-independent basis, Debye):
    X=              2.6620    Y=              0.0122    Z=              0.7553  Tot=              2.7671
 Quadrupole moment (field-independent basis, Debye-Ang):
   XX=           -150.1138   YY=           -104.9503   ZZ=           -104.4043
   XY=            -10.9616   XZ=              2.0566   YZ=              0.2971

 Summary of Natural Population Analysis:

                                       Natural Population
                Natural  -----------------------------------------------
    Atom  No    Charge         Core      Valence    Rydberg      Total
 -----------------------------------------------------------------------
      C    1   -0.29569      0.99965     2.28859    0.00745     3.29569
      C    2   -0.12795      0.99960     2.11632    0.01203     3.12795
      C    3   -0.08281      0.99961     2.07314    0.01006     3.08281
      N    4   -0.34858      0.99974     2.83645    0.01239     3.84858
      C    5   -0.10657      0.99963     2.09449    0.01245     3.10657
      C    6    0.01608      0.99950     1.97409    0.01034     2.98392
      C    7   -0.07037      0.99943     2.05944    0.01150     3.07037
      C    8   -0.28621      0.99965     2.28201    0.00456     3.28621
      C    9    0.43003      0.99962     1.54591    0.02444     2.56997
      O   10   -0.31251      0.99987     3.30715    0.00549     4.31251
      O   11   -0.27920      0.99986     3.27142    0.00792     4.27920
      C   12   -0.10492      0.99961     2.09698    0.00832     3.10492
      C   13   -0.00820      0.99956     1.99636    0.01228     3.00820
      O   14   -0.37488      0.99990     3.36844    0.00653     4.37488
      H   15    0.10080      0.00000     0.39812    0.00108     0.39920
      H   16    0.09615      0.00000     0.40262    0.00124     0.40385
      H   17    0.10214      0.00000     0.39693    0.00094     0.39786
      H   18    0.09241      0.00000     0.40584    0.00175     0.40759
      H   19    0.08588      0.00000     0.41277    0.00135     0.41412
      H   20    0.08554      0.00000     0.41290    0.00156     0.41446
      H   21    0.18959      0.00000     0.30666    0.00375     0.31041
      H   22    0.10506      0.00000     0.39354    0.00140     0.39494
      H   23    0.08282      0.00000     0.41600    0.00118     0.41718
      H   24    0.07686      0.00000     0.42223    0.00091     0.42314
      H   25    0.09570      0.00000     0.40263    0.00167     0.40430
      H   26    0.09771      0.00000     0.40108    0.00121     0.40229
      H   27    0.09216      0.00000     0.40692    0.00092     0.40784
      H   28    0.08737      0.00000     0.41111    0.00152     0.41263
      H   29    0.08672      0.00000     0.41183    0.00144     0.41328
      H   30    0.08057      0.00000     0.41862    0.00081     0.41943
      H   31    0.08154      0.00000     0.41723    0.00124     0.41846
      H   32    0.08606      0.00000     0.41205    0.00189     0.41394
      H   33    0.22672      0.00000     0.26993    0.00335     0.27328
 =======================================================================
   * Total *    0.00000     13.99523    40.82978    0.17499    55.00000

 Normal termination of Gaussian 16 at Thu Dec 10 10:13:36 2020.
