 Gaussian 16, Revision A.03,

 -----------------------------------------------------------
 # opt freq B3LYP/6-31G(d) empiricaldispersion=gd3bj scf=xqc
 -----------------------------------------------------------

 -------------------------------
 CID_151223087_JID_3067_neutraal
 -------------------------------
 Symbolic Z-matrix:
 Charge =  0 Multiplicity = 1

 SCF Done:  E(RB3LYP) =  -603.829343897     A.U. after   16 cycles
 SCF Done:  E(RB3LYP) =  -603.834361431     A.U. after   15 cycles
 SCF Done:  E(RB3LYP) =  -603.836146769     A.U. after   15 cycles
 SCF Done:  E(RB3LYP) =  -603.834505117     A.U. after   14 cycles
 SCF Done:  E(RB3LYP) =  -603.836791643     A.U. after   15 cycles
 SCF Done:  E(RB3LYP) =  -603.837181465     A.U. after   13 cycles
 SCF Done:  E(RB3LYP) =  -603.837867782     A.U. after   17 cycles
 SCF Done:  E(RB3LYP) =  -603.838444975     A.U. after   17 cycles
 SCF Done:  E(RB3LYP) =  -603.838927174     A.U. after   14 cycles
 SCF Done:  E(RB3LYP) =  -603.839342555     A.U. after   14 cycles
 SCF Done:  E(RB3LYP) =  -603.839506905     A.U. after   10 cycles
 SCF Done:  E(RB3LYP) =  -603.839511665     A.U. after   11 cycles
 SCF Done:  E(RB3LYP) =  -603.839512165     A.U. after    9 cycles
 SCF Done:  E(RB3LYP) =  -603.839512203     A.U. after    7 cycles
 SCF Done:  E(RB3LYP) =  -603.839512218     A.U. after    7 cycles
 Optimization completed.
    -- Stationary point found.
 Normal termination of Gaussian 16 at Wed Dec  9 22:29:59 2020.

 --------------------------------------------------------------------
 #N Geom=AllCheck Guess=TCheck SCRF=Check GenChk RB3LYP/6-31G(d) Freq
 --------------------------------------------------------------------

 Structure from the checkpoint file:  "JID_3067.chk"
 -------------------------------
 CID_151223087_JID_3067_neutraal
 -------------------------------
 Charge =  0 Multiplicity = 1

 SCF Done:  E(RB3LYP) =  -603.839512218     A.U. after    1 cycles

  Exact polarizability: 169.255  -4.818 141.154   5.975  -1.859  51.919
 Approx polarizability: 278.724  -7.581 228.875  21.069  -9.854  91.164

                      1                      2                      3
                      A                      A                      A
 Frequencies --     30.6319                36.6734                69.3570
 Red. masses --      8.7204                 1.0460                 5.5633
 Frc consts  --      0.0048                 0.0008                 0.0158
 IR Inten    --      0.3455                 0.2389                 1.3013

                      4                      5                      6
                      A                      A                      A
 Frequencies --    103.2073               188.2123               192.3437
 Red. masses --      5.5877                 5.0549                 7.0714
 Frc consts  --      0.0351                 0.1055                 0.1541
 IR Inten    --      0.9194                 3.2576                 0.3161

                      7                      8                      9
                      A                      A                      A
 Frequencies --    217.3322               236.8575               279.4366
 Red. masses --      3.5171                 4.8622                 7.0837
 Frc consts  --      0.0979                 0.1607                 0.3259
 IR Inten    --      6.4310                 5.0624                 4.6818

                     10                     11                     12
                      A                      A                      A
 Frequencies --    346.8143               348.9197               385.6431
 Red. masses --      4.3815                 3.1818                 6.2364
 Frc consts  --      0.3105                 0.2282                 0.5465
 IR Inten    --      0.6683                 3.2293                 2.9690

                     13                     14                     15
                      A                      A                      A
 Frequencies --    458.9194               470.7594               534.9542
 Red. masses --      3.2554                 4.4230                 6.0481
 Frc consts  --      0.4039                 0.5775                 1.0198
 IR Inten    --      4.7354                 2.2774                16.2191

                     16                     17                     18
                      A                      A                      A
 Frequencies --    574.0571               607.2905               630.3591
 Red. masses --      6.0392                 4.0762                 6.0159
 Frc consts  --      1.1726                 0.8857                 1.4084
 IR Inten    --      9.3661                10.4410                14.3944

                     19                     20                     21
                      A                      A                      A
 Frequencies --    681.0669               730.8222               761.7071
 Red. masses --      4.3167                 3.9138                 3.8271
 Frc consts  --      1.1797                 1.2316                 1.3083
 IR Inten    --     44.6797                 0.9404                37.7363

                     22                     23                     24
                      A                      A                      A
 Frequencies --    778.3275               814.0140               852.3464
 Red. masses --      2.3883                 1.2639                 3.8719
 Frc consts  --      0.8524                 0.4934                 1.6573
 IR Inten    --     82.8352                22.7073                49.0783

                     25                     26                     27
                      A                      A                      A
 Frequencies --    885.0495               951.8673               987.3917
 Red. masses --      1.4329                 1.2823                 2.4216
 Frc consts  --      0.6613                 0.6845                 1.3910
 IR Inten    --      9.3787                 0.4130                 6.0415

                     28                     29                     30
                      A                      A                      A
 Frequencies --   1007.0630              1021.9518              1049.1782
 Red. masses --      4.3303                 1.7662                 1.6665
 Frc consts  --      2.5875                 1.0868                 1.0808
 IR Inten    --     21.4773                 2.4327                 6.4470

                     31                     32                     33
                      A                      A                      A
 Frequencies --   1072.5913              1166.8492              1206.5780
 Red. masses --      1.5415                 1.7005                 1.9221
 Frc consts  --      1.0449                 1.3642                 1.6487
 IR Inten    --      6.4137                33.2460                 4.0705

                     34                     35                     36
                      A                      A                      A
 Frequencies --   1228.8527              1249.1528              1278.2903
 Red. masses --      7.7240                 2.7101                 1.8030
 Frc consts  --      6.8722                 2.4915                 1.7358
 IR Inten    --     37.1413               102.6245                 8.1757

                     37                     38                     39
                      A                      A                      A
 Frequencies --   1338.9249              1383.3603              1440.5077
 Red. masses --      1.9888                 6.4636                 1.2707
 Frc consts  --      2.1006                 7.2878                 1.5535
 IR Inten    --     31.5167                15.8103                 4.1049

                     40                     41                     42
                      A                      A                      A
 Frequencies --   1442.2591              1471.8094              1480.9649
 Red. masses --      1.3389                 1.7589                 2.5932
 Frc consts  --      1.6409                 2.2449                 3.3510
 IR Inten    --     25.3912                42.5065                37.3141

                     43                     44                     45
                      A                      A                      A
 Frequencies --   1512.5760              1527.4053              1560.5144
 Red. masses --      1.0447                 1.2883                 2.3580
 Frc consts  --      1.4083                 1.7709                 3.3832
 IR Inten    --      6.1779                44.9523                48.4257

                     46                     47                     48
                      A                      A                      A
 Frequencies --   1623.3302              1678.8219              1745.2754
 Red. masses --      3.4472                 5.9038                 7.3945
 Frc consts  --      5.3521                 9.8037                13.2705
 IR Inten    --    113.2189               162.9989               319.5828

                     49                     50                     51
                      A                      A                      A
 Frequencies --   2230.4726              2946.0843              3048.7514
 Red. masses --     13.9169                 1.0849                 1.0377
 Frc consts  --     40.7931                 5.5478                 5.6830
 IR Inten    --    561.5059               131.7701                20.1341

                     52                     53                     54
                      A                      A                      A
 Frequencies --   3101.7194              3137.3632              3179.3947
 Red. masses --      1.1004                 1.1012                 1.0873
 Frc consts  --      6.2376                 6.3860                 6.4759
 IR Inten    --     14.8795                15.2356                 7.7940

                     55                     56                     57
                      A                      A                      A
 Frequencies --   3201.9328              3222.9622              3419.1385
 Red. masses --      1.0941                 1.0899                 1.0786
 Frc consts  --      6.6091                 6.6704                 7.4293
 IR Inten    --     18.1995                 4.4782               113.6042

 - Thermochemistry -
 -------------------
 Temperature   298.150 Kelvin.  Pressure   1.00000 Atm.
 Atom     1 has atomic number  6 and mass  12.00000

 Molecular mass:   176.06981 amu.
 Principal axes and moments of inertia in atomic units:
                           1         2         3
     Eigenvalues --  1803.611512891.786764599.40129
           X            0.99831   0.05814  -0.00177
           Y           -0.05813   0.99830   0.00290
           Z            0.00194  -0.00279   0.99999
 This molecule is an asymmetric top.
 Rotational symmetry number  1.
 Warning -- assumption of classical behavior for rotation
           may cause significant error
 Rotational temperatures (Kelvin)      0.04802     0.02995     0.01883
 Rotational constants (GHZ):           1.00063     0.62409     0.39239
 Zero-point vibrational energy     413479.9 (Joules/Mol)
                                   98.82406 (Kcal/Mol)
 Warning -- explicit consideration of  17 degrees of freedom as
           vibrations may cause significant error
 Vibrational temperatures:     44.07    52.76    99.79   148.49   270.80
          (Kelvin)            276.74   312.69   340.79   402.05   498.99
                              502.02   554.85   660.28   677.32   769.68
                              825.94   873.76   906.95   979.90  1051.49
                             1095.93  1119.84  1171.18  1226.34  1273.39
                             1369.52  1420.64  1448.94  1470.36  1509.53
                             1543.22  1678.84  1736.00  1768.04  1797.25
                             1839.17  1926.41  1990.35  2072.57  2075.09
                             2117.61  2130.78  2176.26  2197.60  2245.23
                             2335.61  2415.45  2511.06  3209.15  4238.76
                             4386.47  4462.68  4513.97  4574.44  4606.87
                             4637.12  4919.38

 Zero-point correction=                           0.157486 (Hartree/Particle)
 Thermal correction to Energy=                    0.169388
 Thermal correction to Enthalpy=                  0.170333
 Thermal correction to Gibbs Free Energy=         0.117704
 Sum of electronic and zero-point Energies=           -603.682026
 Sum of electronic and thermal Energies=              -603.670124
 Sum of electronic and thermal Enthalpies=            -603.669180
 Sum of electronic and thermal Free Energies=         -603.721809

                     E (Thermal)             CV                S
                      KCal/Mol        Cal/Mol-Kelvin    Cal/Mol-Kelvin
 Total                  106.293             43.218            110.767
 Electronic               0.000              0.000              0.000
 Translational            0.889              2.981             41.404
 Rotational               0.889              2.981             31.551
 Vibrational            104.515             37.257             37.812
 Vibration     1          0.594              1.984              5.788
 Vibration     2          0.594              1.982              5.431
 Vibration     3          0.598              1.969              4.172
 Vibration     4          0.605              1.947              3.393
 Vibration     5          0.633              1.856              2.245
 Vibration     6          0.634              1.850              2.205
 Vibration     7          0.646              1.815              1.981
 Vibration     8          0.656              1.784              1.826
 Vibration     9          0.680              1.712              1.537
 Vibration    10          0.725              1.582              1.181
 Vibration    11          0.726              1.577              1.171
 Vibration    12          0.754              1.501              1.017
 Vibration    13          0.817              1.341              0.769
 Vibration    14          0.828              1.315              0.735
 Vibration    15          0.890              1.173              0.576
 Vibration    16          0.930              1.087              0.496
 Vibration    17          0.966              1.016              0.437

 Optimization completed.
    -- Stationary point found.
 Normal termination of Gaussian 16 at Wed Dec  9 22:34:29 2020.

 ----------------------------------------------------------------------
 # B3LYP/6-311++G(d,p) empiricaldispersion=gd3bj scf=xqc pop=npa geom=c
 heck
 ----------------------------------------------------------------------

 ---------------------------------------
 CID_151223087_JID_3067_Energie_neutraal
 ---------------------------------------
 Structure from the checkpoint file:  "JID_3067.chk"
 Charge =  0 Multiplicity = 1

 SCF Done:  E(RB3LYP) =  -604.005782940     A.U. after   16 cycles
 Normal termination of Gaussian 16 at Wed Dec  9 22:36:03 2020.

 ----------------------------------------------------------------------
 # B3LYP/6-311++G(d,p) empiricaldispersion=gd3bj scf=xqc pop=npa geom=c
 heck
 ----------------------------------------------------------------------

 -------------------------------------
 CID_151223087_JID_3067_Energie_kation
 -------------------------------------
 Structure from the checkpoint file:  "JID_3067.chk"
 Charge =  1 Multiplicity = 2

 SCF Done:  E(UB3LYP) =  -603.710249115     A.U. after   26 cycles
 Normal termination of Gaussian 16 at Wed Dec  9 22:39:29 2020.
 Gaussian 16:  ES64L-G16RevA.03 25-Dec-2016

 ----------------------------------------------------------------------
 # B3LYP/6-311++G(d,p) empiricaldispersion=gd3bj scf=xqc pop=npa geom=c
 heck
 ----------------------------------------------------------------------

 ------------------------------------
 CID_151223087_JID_3067_Energie_anion
 ------------------------------------
 Structure from the checkpoint file:  "JID_3067.chk"
 Charge = -1 Multiplicity = 2

                         Standard orientation:
 ---------------------------------------------------------------------
 Center     Atomic      Atomic             Coordinates (Angstroms)
 Number     Number       Type             X           Y           Z
 ---------------------------------------------------------------------
      1          6           0       -2.540831   -2.649489   -0.057873
      2          6           0       -1.938468   -1.268878    0.000083
      3          6           0       -0.559767   -1.096999   -0.076103
      4          6           0        0.017747    0.182009   -0.026568
      5          6           0       -0.829242    1.320560    0.077523
      6          6           0       -2.219971    1.122817    0.164545
      7          6           0       -2.774864   -0.141901    0.132297
      8          6           0       -0.315823    2.681155    0.037923
      9          8           0        0.865667    3.005832   -0.074562
     10          7           0        1.389246    0.358681   -0.024035
     11          7           0        2.151477   -0.649980   -0.686437
     12          7           0        3.077022   -1.077729    0.047115
     13          7           0        3.981358   -1.554802    0.547033
     14          1           0       -1.770976   -3.423785   -0.115660
     15          1           0       -3.157315   -2.845988    0.827390
     16          1           0       -3.193675   -2.754352   -0.933063
     17          1           0        0.090445   -1.958090   -0.179063
     18          1           0       -2.859375    1.998763    0.247998
     19          1           0       -3.850762   -0.273454    0.200091
     20          1           0       -1.093998    3.469341    0.101519
     21          1           0        1.683916    1.312072   -0.249397
 ---------------------------------------------------------------------

 SCF Done:  E(UB3LYP) =  -604.024097038     A.U. after   33 cycles
 SCF Done:  E(UB3LYP) =  -604.024097038     a.u. after    1 cycles

 The electronic state is 2-A.
 Alpha  occ. eigenvalues --  -18.93869 -14.33197 -14.24638 -14.24513 -14.21042
 Alpha  occ. eigenvalues --  -10.07376 -10.07092 -10.05488 -10.04139 -10.03815
 Alpha  occ. eigenvalues --  -10.03098 -10.02867 -10.02641  -1.00698  -0.88045
 Alpha  occ. eigenvalues --   -0.87023  -0.76171  -0.70937  -0.64636  -0.59925
 Alpha  occ. eigenvalues --   -0.57405  -0.49712  -0.47995  -0.44393  -0.42804
 Alpha  occ. eigenvalues --   -0.38336  -0.37861  -0.35687  -0.34656  -0.33141
 Alpha  occ. eigenvalues --   -0.32524  -0.30816  -0.30101  -0.29144  -0.27627
 Alpha  occ. eigenvalues --   -0.26798  -0.25627  -0.23970  -0.23058  -0.21432
 Alpha  occ. eigenvalues --   -0.20786  -0.16396  -0.13734  -0.11887  -0.09933
 Alpha  occ. eigenvalues --   -0.07358   0.04075
 Alpha virt. eigenvalues --    0.06620   0.08096   0.09595   0.10998   0.11262
 Alpha virt. eigenvalues --    0.11862   0.12493   0.12828   0.13471   0.14668
 Alpha virt. eigenvalues --    0.15036   0.15675   0.16019   0.17744   0.18074

  Beta  occ. eigenvalues --  -18.93376 -14.32930 -14.24676 -14.24171 -14.20906
  Beta  occ. eigenvalues --  -10.07056 -10.06869 -10.05513 -10.03818 -10.03665
  Beta  occ. eigenvalues --  -10.03186 -10.02947 -10.02650  -1.00203  -0.87675
  Beta  occ. eigenvalues --   -0.86247  -0.75854  -0.70660  -0.64299  -0.59716
  Beta  occ. eigenvalues --   -0.57185  -0.49385  -0.47432  -0.44055  -0.42582
  Beta  occ. eigenvalues --   -0.37593  -0.37168  -0.35465  -0.34367  -0.32937
  Beta  occ. eigenvalues --   -0.31821  -0.30484  -0.29938  -0.28948  -0.27383
  Beta  occ. eigenvalues --   -0.25848  -0.25189  -0.23067  -0.22562  -0.20826
  Beta  occ. eigenvalues --   -0.19535  -0.15947  -0.13520  -0.10773  -0.09477
  Beta  occ. eigenvalues --   -0.06826
  Beta virt. eigenvalues --    0.08048   0.09134   0.09571   0.09855   0.10990
  Beta virt. eigenvalues --    0.11596   0.11928   0.12652   0.12998   0.13693
  Beta virt. eigenvalues --    0.14612   0.15135   0.16009   0.16172   0.17789

 Mulliken charges and spin densities:
               1          2
     1  C   -0.514015  -0.024539
     2  C    0.862793   0.209791
     3  C   -0.913362  -0.005226
     4  C   -0.490765   0.049132
     5  C    1.322416   0.005188
     6  C   -0.805205   0.118759
     7  C   -0.459651  -0.058073
     8  C   -0.213566   0.224980
     9  O   -0.431925   0.156473
    10  N   -0.211384   0.040630
    11  N   -0.372089  -0.134620
    12  N    0.213288   0.144300
    13  N   -0.025642   0.244865
    14  H    0.134341   0.000754
    15  H    0.116423   0.015553
    16  H    0.120835   0.018031
    17  H    0.093814   0.010321
    18  H    0.086812  -0.007061
    19  H    0.105806   0.003537
    20  H    0.059635  -0.018364
    21  H    0.321441   0.005572
 Sum of Mulliken charges =  -1.00000   1.00000

 Dipole moment (field-independent basis, Debye):
    X=             -3.8664    Y=             -2.8985    Z=             -0.2882  Tot=              4.8409
 Quadrupole moment (field-independent basis, Debye-Ang):
   XX=           -108.7387   YY=           -103.6561   ZZ=            -85.4889
   XY=              1.4013   XZ=             -2.5025   YZ=              0.8885

 Summary of Natural Population Analysis:

                                       Natural Population
                Natural  -----------------------------------------------
    Atom  No    Charge         Core      Valence    Rydberg      Total
 -----------------------------------------------------------------------
      C    1   -0.29309      0.99965     2.28905    0.00439     3.29309
      C    2    0.05142      0.99953     1.94120    0.00784     2.94858
      C    3   -0.15258      0.99949     2.14527    0.00781     3.15258
      C    4    0.14807      0.99947     1.84143    0.01103     2.85193
      C    5   -0.10544      0.99947     2.09754    0.00844     3.10544
      C    6   -0.04362      0.99955     2.03524    0.00883     3.04362
      C    7   -0.15974      0.99953     2.15062    0.00960     3.15974
      C    8    0.24279      0.99967     1.73764    0.01990     2.75721
      O    9   -0.27134      0.99988     3.26378    0.00768     4.27134
      N   10   -0.22189      0.99962     2.70986    0.01241     3.72189
      N   11   -0.14146      0.99972     2.62404    0.01770     3.64146
      N   12    0.13603      0.99971     2.34850    0.01576     3.36397
      N   13   -0.00690      0.99982     2.49357    0.01351     3.50690
      H   14    0.09704      0.00000     0.40208    0.00088     0.40296
      H   15    0.09868      0.00000     0.40032    0.00100     0.40132
      H   16    0.09940      0.00000     0.39960    0.00100     0.40060
      H   17    0.10069      0.00000     0.39810    0.00121     0.39931
      H   18    0.08909      0.00000     0.40884    0.00208     0.41091
      H   19    0.08974      0.00000     0.40877    0.00149     0.41026
      H   20    0.03452      0.00000     0.46258    0.00290     0.46548
      H   21    0.20860      0.00000     0.28955    0.00186     0.29140
 =======================================================================
   * Total *    0.00000     12.99511    32.84757    0.15732    46.00000

 Normal termination of Gaussian 16 at Wed Dec  9 22:44:08 2020.
