 Gaussian 16, Revision A.03,

 -----------------------------------------------------------
 # opt freq B3LYP/6-31G(d) empiricaldispersion=gd3bj scf=xqc
 -----------------------------------------------------------

 ------------------------------
 CID_88435237_JID_1564_neutraal
 ------------------------------
 Symbolic Z-matrix:
 Charge =  0 Multiplicity = 1

 SCF Done:  E(RB3LYP) =  -521.548700729     A.U. after   14 cycles
 SCF Done:  E(RB3LYP) =  -521.551630166     A.U. after   11 cycles
 SCF Done:  E(RB3LYP) =  -521.551114133     A.U. after   12 cycles
 SCF Done:  E(RB3LYP) =  -521.552098783     A.U. after   12 cycles
 SCF Done:  E(RB3LYP) =  -521.552308989     A.U. after   10 cycles
 SCF Done:  E(RB3LYP) =  -521.552473749     A.U. after   11 cycles
 SCF Done:  E(RB3LYP) =  -521.552547781     A.U. after   10 cycles
 SCF Done:  E(RB3LYP) =  -521.552686477     A.U. after   10 cycles
 SCF Done:  E(RB3LYP) =  -521.552740101     A.U. after   10 cycles
 SCF Done:  E(RB3LYP) =  -521.552829733     A.U. after   10 cycles
 SCF Done:  E(RB3LYP) =  -521.553561113     A.U. after    8 cycles
 SCF Done:  E(RB3LYP) =  -521.553561395     A.U. after    8 cycles
 SCF Done:  E(RB3LYP) =  -521.553561873     A.U. after    8 cycles
 SCF Done:  E(RB3LYP) =  -521.553562374     A.U. after    8 cycles
 SCF Done:  E(RB3LYP) =  -521.553562630     A.U. after    8 cycles
 SCF Done:  E(RB3LYP) =  -521.553562709     A.U. after    6 cycles
 Optimization completed.
    -- Stationary point found.
 Normal termination of Gaussian 16 at Tue Dec  8 21:16:22 2020.

 --------------------------------------------------------------------
 #N Geom=AllCheck Guess=TCheck SCRF=Check GenChk RB3LYP/6-31G(d) Freq
 --------------------------------------------------------------------

 Structure from the checkpoint file:  "JID_1564.chk"
 ------------------------------
 CID_88435237_JID_1564_neutraal
 ------------------------------
 Charge =  0 Multiplicity = 1

 SCF Done:  E(RB3LYP) =  -521.553562709     A.U. after    1 cycles

  Exact polarizability: 109.193   0.856 101.374  -0.981  -3.895  88.766
 Approx polarizability: 138.479  -2.890 136.985   1.435  -8.686 128.026

                      1                      2                      3
                      A                      A                      A
 Frequencies --     18.7128                24.7463                40.6857
 Red. masses --      3.1234                 4.2835                 3.7506
 Frc consts  --      0.0006                 0.0015                 0.0037
 IR Inten    --      0.2123                 0.1677                 0.3846

                      4                      5                      6
                      A                      A                      A
 Frequencies --     49.1345                61.9864                73.7598
 Red. masses --      6.1854                 2.6140                 4.4318
 Frc consts  --      0.0088                 0.0059                 0.0142
 IR Inten    --      1.1584                 0.4127                 0.2953

                      7                      8                      9
                      A                      A                      A
 Frequencies --     80.7302               100.7637               145.9332
 Red. masses --      3.0695                 1.5192                 1.9450
 Frc consts  --      0.0118                 0.0091                 0.0244
 IR Inten    --      0.1222                 0.0311                 0.2737

                     10                     11                     12
                      A                      A                      A
 Frequencies --    180.1473               238.7375               245.6200
 Red. masses --      2.7397                 1.0746                 1.3270
 Frc consts  --      0.0524                 0.0361                 0.0472
 IR Inten    --      0.4613                 1.7879                 1.5820

                     13                     14                     15
                      A                      A                      A
 Frequencies --    257.2346               284.7728               292.7065
 Red. masses --      1.3750                 2.8043                 1.1819
 Frc consts  --      0.0536                 0.1340                 0.0597
 IR Inten    --     28.4687                 6.5048                 2.5595

                     16                     17                     18
                      A                      A                      A
 Frequencies --    327.8361               339.8788               374.8172
 Red. masses --      1.9401                 2.3644                 2.0643
 Frc consts  --      0.1229                 0.1609                 0.1709
 IR Inten    --      0.5734                14.5995                 0.5730

                     19                     20                     21
                      A                      A                      A
 Frequencies --    441.0248               521.5913               634.6348
 Red. masses --      3.0030                 3.4491                 1.2729
 Frc consts  --      0.3441                 0.5529                 0.3021
 IR Inten    --      9.6228                14.9622                81.8858

                     22                     23                     24
                      A                      A                      A
 Frequencies --    643.8437               744.3917               763.3601
 Red. masses --      3.2867                 1.6141                 1.0815
 Frc consts  --      0.8027                 0.5270                 0.3713
 IR Inten    --     15.2616                28.7894                 8.0358

                     25                     26                     27
                      A                      A                      A
 Frequencies --    774.3486               822.1400               883.5451
 Red. masses --      3.1516                 1.6956                 2.6775
 Frc consts  --      1.1134                 0.6752                 1.2315
 IR Inten    --     29.0743                18.5683                 4.9488

                     28                     29                     30
                      A                      A                      A
 Frequencies --    883.9708               912.3054               925.0126
 Red. masses --      2.5609                 1.4897                 1.0973
 Frc consts  --      1.1790                 0.7305                 0.5532
 IR Inten    --      0.6066                73.9847                 0.0234

                     31                     32                     33
                      A                      A                      A
 Frequencies --    945.9637               962.5318               985.0683
 Red. masses --      1.1960                 1.5036                 2.1215
 Frc consts  --      0.6306                 0.8207                 1.2129
 IR Inten    --      2.2672                39.4042                53.1370

                     34                     35                     36
                      A                      A                      A
 Frequencies --   1068.5954              1079.7108              1091.0784
 Red. masses --      2.4183                 2.2445                 1.4160
 Frc consts  --      1.6270                 1.5416                 0.9932
 IR Inten    --      0.3289                 2.1779                 0.8159

                     37                     38                     39
                      A                      A                      A
 Frequencies --   1132.4178              1158.9389              1169.3559
 Red. masses --      1.7403                 2.4863                 2.2758
 Frc consts  --      1.3149                 1.9675                 1.8335
 IR Inten    --     18.4696               104.2418               130.3589

                     40                     41                     42
                      A                      A                      A
 Frequencies --   1196.1984              1225.3629              1233.2244
 Red. masses --      1.7659                 1.5535                 1.6489
 Frc consts  --      1.4888                 1.3744                 1.4775
 IR Inten    --      1.2453                 5.5979                 1.3111

                     43                     44                     45
                      A                      A                      A
 Frequencies --   1272.8960              1312.2671              1330.1118
 Red. masses --      1.3868                 1.3918                 1.1264
 Frc consts  --      1.3239                 1.4121                 1.1741
 IR Inten    --      8.8386                 1.8515                 0.1062

                     46                     47                     48
                      A                      A                      A
 Frequencies --   1335.4609              1384.6020              1388.4056
 Red. masses --      1.2219                 1.4246                 1.5276
 Frc consts  --      1.2840                 1.6091                 1.7350
 IR Inten    --      4.7567                 7.8552                11.0843

                     49                     50                     51
                      A                      A                      A
 Frequencies --   1390.2420              1402.4373              1434.1011
 Red. masses --      1.4629                 1.3841                 1.2872
 Frc consts  --      1.6659                 1.6039                 1.5598
 IR Inten    --      5.7472                 2.3003                 2.6215

                     52                     53                     54
                      A                      A                      A
 Frequencies --   1442.8635              1447.6209              1454.6330
 Red. masses --      1.3858                 1.3502                 1.2279
 Frc consts  --      1.6998                 1.6671                 1.5308
 IR Inten    --      8.8699                 3.7729                 2.8732

                     55                     56                     57
                      A                      A                      A
 Frequencies --   1511.5632              1517.4997              1522.5087
 Red. masses --      1.0795                 1.0439                 1.0533
 Frc consts  --      1.4532                 1.4163                 1.4386
 IR Inten    --      3.6323                 2.5132                 1.2163

                     58                     59                     60
                      A                      A                      A
 Frequencies --   1523.5064              1532.9737              1534.1638
 Red. masses --      1.0614                 1.0554                 1.0629
 Frc consts  --      1.4516                 1.4613                 1.4740
 IR Inten    --      1.5121                 1.0949                 4.9562

                     61                     62                     63
                      A                      A                      A
 Frequencies --   1540.7347              1543.2354              1553.0460
 Red. masses --      1.0488                 1.0551                 1.0623
 Frc consts  --      1.4669                 1.4804                 1.5096
 IR Inten    --      6.8023                 5.2035                 4.3942

                     64                     65                     66
                      A                      A                      A
 Frequencies --   1705.3042              1839.9328              3031.2642
 Red. masses --      1.0887                 9.5435                 1.0603
 Frc consts  --      1.8654                19.0354                 5.7402
 IR Inten    --     27.7104               249.9872                29.1818

                     67                     68                     69
                      A                      A                      A
 Frequencies --   3035.6825              3040.2441              3044.0052
 Red. masses --      1.0359                 1.0645                 1.0363
 Frc consts  --      5.6246                 5.7969                 5.6575
 IR Inten    --     38.1848                14.9344                18.1807

                     70                     71                     72
                      A                      A                      A
 Frequencies --   3050.5661              3052.3515              3056.6974
 Red. masses --      1.0591                 1.0404                 1.1005
 Frc consts  --      5.8068                 5.7113                 6.0583
 IR Inten    --     49.3137                10.9673                33.1595

                     73                     74                     75
                      A                      A                      A
 Frequencies --   3075.5703              3099.6750              3102.0995
 Red. masses --      1.1021                 1.1012                 1.0907
 Frc consts  --      6.1424                 6.2339                 6.1838
 IR Inten    --     15.7820                18.9967                 7.8812

                     76                     77                     78
                      A                      A                      A
 Frequencies --   3107.9032              3111.5945              3113.3106
 Red. masses --      1.1018                 1.1005                 1.0975
 Frc consts  --      6.2701                 6.2780                 6.2678
 IR Inten    --     90.9005                55.1371                11.1381

                     79                     80                     81
                      A                      A                      A
 Frequencies --   3116.1443              3118.9137              3129.3170
 Red. masses --      1.1017                 1.0996                 1.1007
 Frc consts  --      6.3028                 6.3019                 6.3509
 IR Inten    --     80.5244                 4.9415                39.0362

                     82                     83                     84
                      A                      A                      A
 Frequencies --   3461.0896              3542.6973              3668.3039
 Red. masses --      1.0499                 1.0917                 1.0639
 Frc consts  --      7.4101                 8.0730                 8.4351
 IR Inten    --      0.9713                 1.5094                41.0883

 - Thermochemistry -
 -------------------
 Temperature   298.150 Kelvin.  Pressure   1.00000 Atm.
 Atom     1 has atomic number  6 and mass  12.00000

 Molecular mass:   161.14158 amu.
 Principal axes and moments of inertia in atomic units:
                           1         2         3
     Eigenvalues --  1395.805263375.571443977.97510
           X            0.99979   0.01959   0.00666
           Y           -0.01958   0.99981  -0.00070
           Z           -0.00668   0.00057   0.99998
 This molecule is an asymmetric top.
 Rotational symmetry number  1.
 Warning -- assumption of classical behavior for rotation
           may cause significant error
 Rotational temperatures (Kelvin)      0.06205     0.02566     0.02177
 Rotational constants (GHZ):           1.29297     0.53465     0.45368
 Zero-point vibrational energy     713060.2 (Joules/Mol)
                                  170.42548 (Kcal/Mol)
 Warning -- explicit consideration of  20 degrees of freedom as
           vibrations may cause significant error
 Vibrational temperatures:     26.92    35.60    58.54    70.69    89.18
          (Kelvin)            106.12   116.15   144.98   209.97   259.19
                              343.49   353.39   370.10   409.72   421.14
                              471.68   489.01   539.28   634.54   750.45
                              913.10   926.35  1071.01  1098.30  1114.11
                             1182.88  1271.22  1271.84  1312.60  1330.89
                             1361.03  1384.87  1417.29  1537.47  1553.46
                             1569.82  1629.30  1667.45  1682.44  1721.06
                             1763.02  1774.33  1831.41  1888.06  1913.73
                             1921.43  1992.13  1997.61  2000.25  2017.79
                             2063.35  2075.96  2082.80  2092.89  2174.80
                             2183.34  2190.55  2191.99  2205.61  2207.32
                             2216.77  2220.37  2234.49  2453.55  2647.25
                             4361.31  4367.67  4374.23  4379.64  4389.08
                             4391.65  4397.91  4425.06  4459.74  4463.23
                             4471.58  4476.89  4479.36  4483.44  4487.42
                             4502.39  4979.74  5097.15  5277.87

 Zero-point correction=                           0.271590 (Hartree/Particle)
 Thermal correction to Energy=                    0.287459
 Thermal correction to Enthalpy=                  0.288403
 Thermal correction to Gibbs Free Energy=         0.225268
 Sum of electronic and zero-point Energies=           -521.281972
 Sum of electronic and thermal Energies=              -521.266104
 Sum of electronic and thermal Enthalpies=            -521.265160
 Sum of electronic and thermal Free Energies=         -521.328295

                     E (Thermal)             CV                S
                      KCal/Mol        Cal/Mol-Kelvin    Cal/Mol-Kelvin
 Total                  180.383             53.666            132.879
 Electronic               0.000              0.000              0.000
 Translational            0.889              2.981             41.140
 Rotational               0.889              2.981             31.306
 Vibrational            178.606             47.704             60.433
 Vibration     1          0.593              1.986              6.766
 Vibration     2          0.593              1.985              6.211
 Vibration     3          0.594              1.981              5.225
 Vibration     4          0.595              1.978              4.852
 Vibration     5          0.597              1.972              4.393
 Vibration     6          0.599              1.966              4.050
 Vibration     7          0.600              1.962              3.873
 Vibration     8          0.604              1.949              3.439
 Vibration     9          0.617              1.907              2.725
 Vibration    10          0.629              1.867              2.327
 Vibration    11          0.657              1.781              1.812
 Vibration    12          0.660              1.770              1.762
 Vibration    13          0.667              1.751              1.680
 Vibration    14          0.683              1.702              1.505
 Vibration    15          0.688              1.687              1.458
 Vibration    16          0.711              1.620              1.271
 Vibration    17          0.720              1.596              1.213
 Vibration    18          0.746              1.524              1.060
 Vibration    19          0.801              1.381              0.823
 Vibration    20          0.877              1.202              0.606

                           ! Non-Optimized Parameters !
 Normal termination of Gaussian 16 at Tue Dec  8 21:23:29 2020.

 ----------------------------------------------------------------------
 # B3LYP/6-311++G(d,p) empiricaldispersion=gd3bj scf=xqc pop=npa geom=c
 heck
 ----------------------------------------------------------------------

 --------------------------------------
 CID_88435237_JID_1564_Energie_neutraal
 --------------------------------------
 Structure from the checkpoint file:  "JID_1564.chk"
 Charge =  0 Multiplicity = 1

 SCF Done:  E(RB3LYP) =  -521.725051810     A.U. after   13 cycles
 Normal termination of Gaussian 16 at Tue Dec  8 21:28:12 2020.

 ----------------------------------------------------------------------
 # B3LYP/6-311++G(d,p) empiricaldispersion=gd3bj scf=xqc pop=npa geom=c
 heck
 ----------------------------------------------------------------------

 ------------------------------------
 CID_88435237_JID_1564_Energie_kation
 ------------------------------------
 Structure from the checkpoint file:  "JID_1564.chk"
 Charge =  1 Multiplicity = 2

 SCF Done:  E(UB3LYP) =  -521.379590078     A.U. after   22 cycles
 Normal termination of Gaussian 16 at Tue Dec  8 21:37:48 2020.
 Gaussian 16:  ES64L-G16RevA.03 25-Dec-2016

 ----------------------------------------------------------------------
 # B3LYP/6-311++G(d,p) empiricaldispersion=gd3bj scf=xqc pop=npa geom=c
 heck
 ----------------------------------------------------------------------

 -----------------------------------
 CID_88435237_JID_1564_Energie_anion
 -----------------------------------
 Structure from the checkpoint file:  "JID_1564.chk"
 Charge = -1 Multiplicity = 2

                         Standard orientation:
 ---------------------------------------------------------------------
 Center     Atomic      Atomic             Coordinates (Angstroms)
 Number     Number       Type             X           Y           Z
 ---------------------------------------------------------------------
      1          6           0       -2.891942    0.296867   -1.402455
      2          6           0       -3.383207    0.213553    0.044906
      3          6           0       -3.387031   -1.220528    0.581675
      4          6           0        0.160046    2.513691   -0.038942
      5          6           0        0.854534    1.748640    1.091936
      6          6           0        0.472067    0.264602    1.167173
      7          6           0        0.792935   -0.580790   -0.082767
      8          6           0        2.298174   -0.579349   -0.327546
      9          8           0        3.078836   -1.357789    0.176976
     10          8           0        2.693235    0.411068   -1.164892
     11          7           0        0.267622   -1.931252    0.109263
     12          1           0       -1.886369   -0.129321   -1.496417
     13          1           0       -2.854965    1.331840   -1.761501
     14          1           0       -3.550553   -0.268208   -2.073452
     15          1           0       -2.744332    0.840226    0.682290
     16          1           0       -4.392155    0.642311    0.113767
     17          1           0       -2.378865   -1.650547    0.550952
     18          1           0       -3.745269   -1.258823    1.617232
     19          1           0       -4.045021   -1.859650   -0.020932
     20          1           0        0.491018    2.163895   -1.021899
     21          1           0        0.382825    3.584677    0.020116
     22          1           0       -0.928721    2.394345    0.013850
     23          1           0        1.941748    1.853415    0.988403
     24          1           0        0.595325    2.208016    2.054211
     25          1           0        0.974435   -0.202757    2.024923
     26          1           0       -0.605166    0.162494    1.336252
     27          1           0        0.300695   -0.139790   -0.953552
     28          1           0        3.666299    0.350155   -1.222206
     29          1           0        0.404355   -2.476602   -0.740902
     30          1           0        0.831331   -2.393255    0.823471
 ---------------------------------------------------------------------

 SCF Done:  E(UB3LYP) =  -521.710607142     A.U. after   31 cycles

 The electronic state is 2-A.
 Alpha  occ. eigenvalues --  -19.06762 -19.01749 -14.20338 -10.20312 -10.11558
 Alpha  occ. eigenvalues --  -10.07501 -10.06822 -10.06805 -10.05913 -10.05544
 Alpha  occ. eigenvalues --  -10.05482  -1.00879  -0.92127  -0.80205  -0.69528
 Alpha  occ. eigenvalues --   -0.68279  -0.62543  -0.58235  -0.57207  -0.51129
 Alpha  occ. eigenvalues --   -0.48750  -0.46625  -0.42590  -0.39202  -0.38312
 Alpha  occ. eigenvalues --   -0.37086  -0.36096  -0.34924  -0.34040  -0.33288
 Alpha  occ. eigenvalues --   -0.31801  -0.30383  -0.30019  -0.28990  -0.27979
 Alpha  occ. eigenvalues --   -0.27493  -0.24359  -0.24272  -0.24208  -0.23737
 Alpha  occ. eigenvalues --   -0.23238  -0.23075  -0.22230  -0.18890  -0.15968
 Alpha  occ. eigenvalues --    0.04568
 Alpha virt. eigenvalues --    0.06404   0.07064   0.07762   0.08245   0.09160
 Alpha virt. eigenvalues --    0.09455   0.09642   0.10285   0.10544   0.11831
 Alpha virt. eigenvalues --    0.12442   0.12606   0.13102   0.13754   0.14278

  Beta  occ. eigenvalues --  -19.06695 -19.01733 -14.20315 -10.20313 -10.11538
  Beta  occ. eigenvalues --  -10.07492 -10.06807 -10.06786 -10.05890 -10.05519
  Beta  occ. eigenvalues --  -10.05469  -1.00800  -0.92058  -0.80168  -0.69491
  Beta  occ. eigenvalues --   -0.68252  -0.62482  -0.58194  -0.57134  -0.51039
  Beta  occ. eigenvalues --   -0.48690  -0.46539  -0.42554  -0.39165  -0.38257
  Beta  occ. eigenvalues --   -0.37049  -0.36076  -0.34885  -0.34004  -0.33256
  Beta  occ. eigenvalues --   -0.31742  -0.30346  -0.29988  -0.28958  -0.27955
  Beta  occ. eigenvalues --   -0.27456  -0.24322  -0.24239  -0.24180  -0.23693
  Beta  occ. eigenvalues --   -0.23199  -0.23052  -0.22193  -0.18851  -0.15934
  Beta virt. eigenvalues --    0.06606   0.07592   0.07705   0.08106   0.09221
  Beta virt. eigenvalues --    0.09290   0.09689   0.09847   0.10572   0.10812
  Beta virt. eigenvalues --    0.12218   0.12674   0.12774   0.13495   0.13990

 Mulliken charges and spin densities:
               1          2
     1  C    0.508073  -0.980306
     2  C   -0.410482   0.376840
     3  C    0.080905  -0.673643
     4  C    0.449873  -1.027348
     5  C   -1.191379   0.704585
     6  C    0.029466   0.376504
     7  C    0.610509  -1.136775
     8  C    0.808232  -1.111046
     9  O   -0.320612   0.064606
    10  O   -0.180987   0.081400
    11  N   -0.384858   0.138185
    12  H   -0.180915   0.314029
    13  H   -0.125080   0.246925
    14  H   -0.107931   0.237783
    15  H   -0.007595   0.108390
    16  H   -0.313336   0.463435
    17  H    0.044714   0.178283
    18  H   -0.067937   0.183141
    19  H    0.013704   0.092971
    20  H   -0.065211   0.236547
    21  H   -0.313236   0.451675
    22  H    0.269927  -0.134003
    23  H   -0.039235   0.200477
    24  H   -0.359029   0.517923
    25  H    0.065095   0.097296
    26  H    0.370412  -0.171024
    27  H    0.365495  -0.160348
    28  H   -0.640863   0.932759
    29  H   -0.041755   0.271700
    30  H    0.134034   0.119037
 Sum of Mulliken charges =  -1.00000   1.00000

 Dipole moment (field-independent basis, Debye):
    X=             -2.9230    Y=             -1.9635    Z=              2.2825  Tot=              4.1963
 Quadrupole moment (field-independent basis, Debye-Ang):
   XX=           -150.8550   YY=           -113.6115   ZZ=           -102.7045
   XY=             -2.9146   XZ=              5.2704   YZ=              1.0555

 Summary of Natural Population Analysis:

                                       Natural Population
                Natural  -----------------------------------------------
    Atom  No    Charge         Core      Valence    Rydberg      Total
 -----------------------------------------------------------------------
      C    1   -0.28507      0.99966     2.27986    0.00555     3.28507
      C    2   -0.19248      0.99966     2.18539    0.00743     3.19248
      C    3   -0.29157      0.99966     2.28734    0.00457     3.29157
      C    4   -0.28827      0.99966     2.28315    0.00546     3.28827
      C    5   -0.19184      0.99964     2.18409    0.00811     3.19184
      C    6   -0.18678      0.99960     2.17899    0.00818     3.18678
      C    7   -0.06077      0.99955     2.04749    0.01373     3.06077
      C    8    0.40214      0.99969     1.57169    0.02649     2.59786
      O    9   -0.31261      0.99987     3.30597    0.00677     4.31261
      O   10   -0.34246      0.99988     3.33490    0.00769     4.34246
      N   11   -0.41455      0.99978     2.90455    0.01023     3.91455
      H   12    0.09643      0.00000     0.40206    0.00151     0.40357
      H   13    0.09825      0.00000     0.40073    0.00102     0.40175
      H   14    0.09409      0.00000     0.40493    0.00098     0.40591
      H   15    0.09165      0.00000     0.40681    0.00155     0.40835
      H   16    0.09000      0.00000     0.40882    0.00119     0.41000
      H   17    0.11053      0.00000     0.38788    0.00160     0.38947
      H   18    0.09399      0.00000     0.40504    0.00098     0.40601
      H   19    0.09175      0.00000     0.40716    0.00109     0.40825
      H   20    0.10147      0.00000     0.39702    0.00151     0.39853
      H   21    0.09952      0.00000     0.39945    0.00103     0.40048
      H   22    0.09456      0.00000     0.40404    0.00140     0.40544
      H   23    0.09865      0.00000     0.39976    0.00158     0.40135
      H   24    0.09520      0.00000     0.40378    0.00102     0.40480
      H   25    0.09816      0.00000     0.40069    0.00115     0.40184
      H   26    0.10358      0.00000     0.39453    0.00189     0.39642
      H   27    0.10463      0.00000     0.39257    0.00279     0.39537
      H   28    0.24580      0.00000     0.22601    0.02819     0.25420
      H   29    0.17736      0.00000     0.32104    0.00160     0.32264
      H   30    0.17866      0.00000     0.31948    0.00186     0.32134
 =======================================================================
   * Total *    0.00000     10.99665    33.84521    0.15814    45.00000

 Normal termination of Gaussian 16 at Tue Dec  8 21:49:42 2020.
