 Gaussian 16, Revision A.03,

 -----------------------------------------------------------
 # opt freq B3LYP/6-31G(d) empiricaldispersion=gd3bj scf=xqc
 -----------------------------------------------------------

 ------------------------------
 CID_10261261_JID_1310_neutraal
 ------------------------------
 Symbolic Z-matrix:
 Charge =  0 Multiplicity = 1

 SCF Done:  E(RB3LYP) =  -511.629009521     A.U. after   15 cycles
 SCF Done:  E(RB3LYP) =  -511.633931942     A.U. after   13 cycles
 SCF Done:  E(RB3LYP) =  -511.633511522     A.U. after   12 cycles
 SCF Done:  E(RB3LYP) =  -511.635299345     A.U. after   13 cycles
 SCF Done:  E(RB3LYP) =  -511.635775545     A.U. after   13 cycles
 SCF Done:  E(RB3LYP) =  -511.636353228     A.U. after   12 cycles
 SCF Done:  E(RB3LYP) =  -511.636834609     A.U. after   12 cycles
 SCF Done:  E(RB3LYP) =  -511.637192637     A.U. after   12 cycles
 SCF Done:  E(RB3LYP) =  -511.637426283     A.U. after   12 cycles
 SCF Done:  E(RB3LYP) =  -511.637535873     A.U. after   12 cycles
 SCF Done:  E(RB3LYP) =  -511.637586915     A.U. after   10 cycles
 SCF Done:  E(RB3LYP) =  -511.637595487     A.U. after    9 cycles
 SCF Done:  E(RB3LYP) =  -511.637599195     A.U. after    9 cycles
 SCF Done:  E(RB3LYP) =  -511.637600453     A.U. after    9 cycles
 SCF Done:  E(RB3LYP) =  -511.637600638     A.U. after    7 cycles
 Optimization completed.
    -- Stationary point found.
 Normal termination of Gaussian 16 at Tue Dec  8 19:40:35 2020.

 --------------------------------------------------------------------
 #N Geom=AllCheck Guess=TCheck SCRF=Check GenChk RB3LYP/6-31G(d) Freq
 --------------------------------------------------------------------

 Structure from the checkpoint file:  "JID_1310.chk"
 ------------------------------
 CID_10261261_JID_1310_neutraal
 ------------------------------
 Charge =  0 Multiplicity = 1

 SCF Done:  E(RB3LYP) =  -511.637600638     A.U. after    1 cycles

  Exact polarizability: 136.355   2.177  88.247   9.884  -2.791  52.306
 Approx polarizability: 204.392   5.939 135.913  20.760  -6.322  77.741

                      1                      2                      3
                      A                      A                      A
 Frequencies --     51.2354               117.9949               129.4988
 Red. masses --      6.7334                 3.0342                 7.8390
 Frc consts  --      0.0104                 0.0249                 0.0775
 IR Inten    --      8.0574                 3.6424                 6.8466

                      4                      5                      6
                      A                      A                      A
 Frequencies --    151.1010               181.1082               215.6498
 Red. masses --      4.4865                 1.4565                 2.2502
 Frc consts  --      0.0604                 0.0281                 0.0617
 IR Inten    --      0.6044                16.3542                12.3480

                      7                      8                      9
                      A                      A                      A
 Frequencies --    252.5166               290.1744               348.2901
 Red. masses --      4.2838                 3.8471                 3.3240
 Frc consts  --      0.1609                 0.1909                 0.2376
 IR Inten    --     10.8093                 5.0643                 4.3950

                     10                     11                     12
                      A                      A                      A
 Frequencies --    433.6588               474.5899               508.3966
 Red. masses --      3.6485                 2.4991                 9.0411
 Frc consts  --      0.4043                 0.3316                 1.3768
 IR Inten    --      1.1927                 6.9449                 1.1763

                     13                     14                     15
                      A                      A                      A
 Frequencies --    523.5075               590.3132               621.9095
 Red. masses --      6.6152                 4.8930                 3.6239
 Frc consts  --      1.0682                 1.0046                 0.8258
 IR Inten    --      1.4151                 1.3262                 2.1428

                     16                     17                     18
                      A                      A                      A
 Frequencies --    648.9905               663.2786               731.7095
 Red. masses --      2.6980                 3.4686                 1.2276
 Frc consts  --      0.6695                 0.8991                 0.3872
 IR Inten    --     16.1821                 7.7941               105.2462

                     19                     20                     21
                      A                      A                      A
 Frequencies --    742.9320               778.5894               797.6951
 Red. masses --      1.3466                 3.1608                 1.4073
 Frc consts  --      0.4379                 1.1289                 0.5276
 IR Inten    --     46.9172                 4.3112                38.6830

                     22                     23                     24
                      A                      A                      A
 Frequencies --    899.6317               906.9759               966.4538
 Red. masses --      2.5075                 1.4462                 1.9682
 Frc consts  --      1.1957                 0.7009                 1.0831
 IR Inten    --      9.9906               123.0507                 5.0035

                     25                     26                     27
                      A                      A                      A
 Frequencies --   1015.8491              1096.0095              1118.0086
 Red. masses --      4.9754                 2.1710                 3.6363
 Frc consts  --      3.0251                 1.5365                 2.6779
 IR Inten    --      1.8980                 1.2510                95.9480

                     28                     29                     30
                      A                      A                      A
 Frequencies --   1147.1827              1184.1899              1201.8285
 Red. masses --      1.5036                 1.5785                 2.6681
 Frc consts  --      1.1659                 1.3042                 2.2705
 IR Inten    --      8.6750                32.6532                22.4014

                     31                     32                     33
                      A                      A                      A
 Frequencies --   1228.2723              1264.9945              1302.9785
 Red. masses --      1.3759                 1.1254                 1.5664
 Frc consts  --      1.2230                 1.0611                 1.5669
 IR Inten    --     12.1949                 8.4335                 6.9750

                     34                     35                     36
                      A                      A                      A
 Frequencies --   1379.6540              1393.5121              1420.5595
 Red. masses --      2.3242                 2.1102                 1.3863
 Frc consts  --      2.6065                 2.4143                 1.6482
 IR Inten    --     21.9612                 0.4317                11.0582

                     37                     38                     39
                      A                      A                      A
 Frequencies --   1429.6433              1463.6523              1512.6848
 Red. masses --      2.9109                 3.2830                 1.1998
 Frc consts  --      3.5053                 4.1438                 1.6175
 IR Inten    --     32.3718                32.9618                16.8475

                     40                     41                     42
                      A                      A                      A
 Frequencies --   1515.0560              1531.5193              1574.4495
 Red. masses --      1.1734                 1.1099                 4.2944
 Frc consts  --      1.5870                 1.5338                 6.2720
 IR Inten    --    101.7431                 1.5030                80.9035

                     43                     44                     45
                      A                      A                      A
 Frequencies --   1622.7286              1688.2600              2349.5569
 Red. masses --      4.3761                 1.1932                12.6579
 Frc consts  --      6.7894                 2.0038                41.1701
 IR Inten    --     13.1455                41.7536                91.5643

                     46                     47                     48
                      A                      A                      A
 Frequencies --   2989.0796              3069.3622              3086.7653
 Red. masses --      1.0711                 1.0643                 1.0909
 Frc consts  --      5.6383                 5.9074                 6.1241
 IR Inten    --     53.3792                14.2995                72.5064

                     49                     50                     51
                      A                      A                      A
 Frequencies --   3126.6114              3273.5623              3290.4125
 Red. masses --      1.1038                 1.0970                 1.0975
 Frc consts  --      6.3574                 6.9263                 7.0010
 IR Inten    --     15.8741                 2.2881                 0.6628

                     52                     53                     54
                      A                      A                      A
 Frequencies --   3464.5939              3523.7049              3581.7380
 Red. masses --      1.0557                 1.0668                 1.0874
 Frc consts  --      7.4664                 7.8041                 8.2193
 IR Inten    --     13.0150               351.7793                16.8668

 - Thermochemistry -
 -------------------
 Temperature   298.150 Kelvin.  Pressure   1.00000 Atm.
 Atom     1 has atomic number  6 and mass  12.00000

 Molecular mass:   151.07456 amu.
 Principal axes and moments of inertia in atomic units:
                           1         2         3
     Eigenvalues --   657.133882984.716823436.72099
           X            0.99996  -0.00915   0.00054
           Y            0.00915   0.99994  -0.00535
           Z           -0.00049   0.00535   0.99999
 This molecule is an asymmetric top.
 Rotational symmetry number  1.
 Warning -- assumption of classical behavior for rotation
           may cause significant error
 Rotational temperatures (Kelvin)      0.13181     0.02902     0.02520
 Rotational constants (GHZ):           2.74638     0.60466     0.52513
 Zero-point vibrational energy     423912.4 (Joules/Mol)
                                  101.31750 (Kcal/Mol)
 Warning -- explicit consideration of  14 degrees of freedom as
           vibrations may cause significant error
 Vibrational temperatures:     73.72   169.77   186.32   217.40   260.57
          (Kelvin)            310.27   363.32   417.50   501.11   623.94
                              682.83   731.47   753.21   849.33   894.79
                              933.75   954.31  1052.77  1068.91  1120.22
                             1147.71  1294.37  1304.94  1390.51  1461.58
                             1576.91  1608.56  1650.54  1703.79  1729.16
                             1767.21  1820.04  1874.70  1985.01  2004.95
                             2043.87  2056.94  2105.87  2176.42  2179.83
                             2203.51  2265.28  2334.74  2429.03  3380.49
                             4300.62  4416.13  4441.17  4498.50  4709.93
                             4734.17  4984.78  5069.83  5153.32

 Zero-point correction=                           0.161460 (Hartree/Particle)
 Thermal correction to Energy=                    0.171821
 Thermal correction to Enthalpy=                  0.172765
 Thermal correction to Gibbs Free Energy=         0.125363
 Sum of electronic and zero-point Energies=           -511.476141
 Sum of electronic and thermal Energies=              -511.465780
 Sum of electronic and thermal Enthalpies=            -511.464836
 Sum of electronic and thermal Free Energies=         -511.512238

                     E (Thermal)             CV                S
                      KCal/Mol        Cal/Mol-Kelvin    Cal/Mol-Kelvin
 Total                  107.819             38.607             99.766
 Electronic               0.000              0.000              0.000
 Translational            0.889              2.981             40.948
 Rotational               0.889              2.981             30.290
 Vibrational            106.042             32.645             28.528
 Vibration     1          0.596              1.977              4.769
 Vibration     2          0.608              1.934              3.133
 Vibration     3          0.612              1.924              2.953
 Vibration     4          0.619              1.901              2.658
 Vibration     5          0.630              1.865              2.317
 Vibration     6          0.645              1.817              1.995
 Vibration     7          0.664              1.759              1.713
 Vibration     8          0.686              1.692              1.473
 Vibration     9          0.726              1.579              1.174
 Vibration    10          0.794              1.397              0.847
 Vibration    11          0.831              1.306              0.725
 Vibration    12          0.864              1.231              0.637
 Vibration    13          0.878              1.198              0.602
 Vibration    14          0.948              1.052              0.467

                           ! Non-Optimized Parameters !
 Normal termination of Gaussian 16 at Tue Dec  8 19:44:25 2020.

 ----------------------------------------------------------------------
 # B3LYP/6-311++G(d,p) empiricaldispersion=gd3bj scf=xqc pop=npa geom=c
 heck
 ----------------------------------------------------------------------

 --------------------------------------
 CID_10261261_JID_1310_Energie_neutraal
 --------------------------------------
 Structure from the checkpoint file:  "JID_1310.chk"
 Charge =  0 Multiplicity = 1

 SCF Done:  E(RB3LYP) =  -511.795787922     A.U. after   15 cycles
 Normal termination of Gaussian 16 at Tue Dec  8 19:46:12 2020.

 ----------------------------------------------------------------------
 # B3LYP/6-311++G(d,p) empiricaldispersion=gd3bj scf=xqc pop=npa geom=c
 heck
 ----------------------------------------------------------------------

 ------------------------------------
 CID_10261261_JID_1310_Energie_kation
 ------------------------------------
 Structure from the checkpoint file:  "JID_1310.chk"
 Charge =  1 Multiplicity = 2

 SCF Done:  E(UB3LYP) =  -511.489052208     A.U. after   24 cycles
 Normal termination of Gaussian 16 at Tue Dec  8 19:51:20 2020.
 Gaussian 16:  ES64L-G16RevA.03 25-Dec-2016

 ----------------------------------------------------------------------
 # B3LYP/6-311++G(d,p) empiricaldispersion=gd3bj scf=xqc pop=npa geom=c
 heck
 ----------------------------------------------------------------------

 -----------------------------------
 CID_10261261_JID_1310_Energie_anion
 -----------------------------------
 Structure from the checkpoint file:  "JID_1310.chk"
 Charge = -1 Multiplicity = 2

                         Standard orientation:
 ---------------------------------------------------------------------
 Center     Atomic      Atomic             Coordinates (Angstroms)
 Number     Number       Type             X           Y           Z
 ---------------------------------------------------------------------
      1          6           0       -1.187633    1.237510   -0.057537
      2          6           0        0.138807    0.984788    0.199832
      3          7           0        0.299127   -0.377961    0.403624
      4          6           0       -0.920654   -0.989154    0.285053
      5          6           0       -1.868024   -0.022549   -0.010894
      6          6           0       -3.252998   -0.251268   -0.211989
      7          7           0       -4.391751   -0.429800   -0.377250
      8          6           0        1.552150   -1.090276    0.669845
      9          6           0        2.535393   -1.103721   -0.511027
     10          8           0        3.323083    0.058244   -0.610264
     11          7           0        1.268498    1.838976    0.194834
     12          1           0       -1.634762    2.201278   -0.253910
     13          1           0       -1.031866   -2.053262    0.426595
     14          1           0        2.047643   -0.652135    1.543372
     15          1           0        1.267014   -2.113573    0.929082
     16          1           0        3.229847   -1.938148   -0.359681
     17          1           0        1.965603   -1.311284   -1.432741
     18          1           0        2.710089    0.823828   -0.579781
     19          1           0        1.609169    2.045391    1.134257
     20          1           0        1.039234    2.721465   -0.253231
 ---------------------------------------------------------------------

 SCF Done:  E(UB3LYP) =  -511.793281029     A.U. after   32 cycles

 The electronic state is 2-A.
 Alpha  occ. eigenvalues --  -19.00721 -14.28113 -14.22639 -14.20975 -10.14272
 Alpha  occ. eigenvalues --  -10.12448 -10.12274 -10.11740 -10.11352 -10.10225
 Alpha  occ. eigenvalues --  -10.07484  -0.92217  -0.90744  -0.80924  -0.80554
 Alpha  occ. eigenvalues --   -0.73207  -0.64916  -0.63147  -0.56005  -0.53198
 Alpha  occ. eigenvalues --   -0.47118  -0.45935  -0.41930  -0.40904  -0.38933
 Alpha  occ. eigenvalues --   -0.36647  -0.35928  -0.34151  -0.33554  -0.32134
 Alpha  occ. eigenvalues --   -0.30586  -0.29219  -0.26950  -0.25890  -0.25203
 Alpha  occ. eigenvalues --   -0.23293  -0.20106  -0.17556  -0.15539  -0.12043
 Alpha  occ. eigenvalues --    0.03906
 Alpha virt. eigenvalues --    0.06127   0.07548   0.08338   0.08777   0.10029
 Alpha virt. eigenvalues --    0.10104   0.10884   0.11744   0.12181   0.12998
 Alpha virt. eigenvalues --    0.13671   0.13792   0.14048   0.15164   0.16069

  Beta  occ. eigenvalues --  -19.00704 -14.28107 -14.22523 -14.20966 -10.14268
  Beta  occ. eigenvalues --  -10.12435 -10.12229 -10.11721 -10.11350 -10.10218
  Beta  occ. eigenvalues --  -10.07469  -0.92184  -0.90711  -0.80812  -0.80471
  Beta  occ. eigenvalues --   -0.73171  -0.64858  -0.63077  -0.55958  -0.53143
  Beta  occ. eigenvalues --   -0.47027  -0.45844  -0.41876  -0.40802  -0.38875
  Beta  occ. eigenvalues --   -0.36566  -0.35884  -0.34091  -0.33505  -0.32107
  Beta  occ. eigenvalues --   -0.30529  -0.29166  -0.26932  -0.25845  -0.25162
  Beta  occ. eigenvalues --   -0.23281  -0.20028  -0.17517  -0.15509  -0.11972
  Beta virt. eigenvalues --    0.06737   0.07667   0.07839   0.08870   0.09293
  Beta virt. eigenvalues --    0.10426   0.10959   0.11430   0.11855   0.12205
  Beta virt. eigenvalues --    0.13341   0.13672   0.14075   0.14370   0.15344

 Mulliken charges and spin densities:
               1          2
     1  C   -1.307936   1.633806
     2  C    1.216411  -1.534327
     3  N    0.187006   0.029260
     4  C   -1.667358   1.644612
     5  C    3.420242  -2.111526
     6  C    0.048720  -1.972704
     7  N   -0.270353   0.022920
     8  C    0.595735  -0.756575
     9  C    0.129756  -0.501201
    10  O   -0.289042   0.011833
    11  N   -0.610149   0.098912
    12  H   -0.538469   0.721705
    13  H   -0.216782   0.422685
    14  H   -0.416747   0.637778
    15  H   -0.456160   0.588886
    16  H   -0.178820   0.339117
    17  H    0.114202   0.027296
    18  H    0.329842  -0.002193
    19  H   -0.488341   0.803864
    20  H   -0.601756   0.895855
 Sum of Mulliken charges =  -1.00000   1.00000

 Dipole moment (field-independent basis, Debye):
    X=             -0.7176    Y=             -3.9064    Z=             -1.9501  Tot=              4.4247
 Quadrupole moment (field-independent basis, Debye-Ang):
   XX=           -138.5482   YY=           -109.0757   ZZ=            -91.7132
   XY=             -7.9768   XZ=             -6.2430   YZ=             -0.0572

 Summary of Natural Population Analysis:

                                       Natural Population
                Natural  -----------------------------------------------
    Atom  No    Charge         Core      Valence    Rydberg      Total
 -----------------------------------------------------------------------
      C    1   -0.13565      0.99947     2.12618    0.00999     3.13565
      C    2    0.17372      0.99948     1.81207    0.01474     2.82628
      N    3   -0.20402      0.99962     2.69248    0.01192     3.70402
      C    4    0.01882      0.99952     1.96970    0.01195     2.98118
      C    5   -0.13152      0.99944     2.12345    0.00863     3.13152
      C    6    0.15887      0.99963     1.82471    0.01679     2.84113
      N    7   -0.19430      0.99979     2.68448    0.01003     3.69430
      C    8   -0.09693      0.99960     2.08546    0.01187     3.09693
      C    9   -0.01341      0.99961     2.00053    0.01327     3.01341
      O   10   -0.38202      0.99989     3.37495    0.00718     4.38202
      N   11   -0.42862      0.99973     2.91668    0.01221     3.92862
      H   12    0.11190      0.00000     0.38685    0.00124     0.38810
      H   13    0.10445      0.00000     0.39438    0.00117     0.39555
      H   14    0.10790      0.00000     0.38952    0.00258     0.39210
      H   15    0.10505      0.00000     0.39247    0.00248     0.39495
      H   16    0.08698      0.00000     0.41174    0.00128     0.41302
      H   17    0.07537      0.00000     0.42333    0.00130     0.42463
      H   18    0.24406      0.00000     0.25180    0.00414     0.25594
      H   19    0.19908      0.00000     0.28683    0.01408     0.30092
      H   20    0.20025      0.00000     0.28768    0.01207     0.29975
 =======================================================================
   * Total *    0.00000     10.99578    28.83529    0.16892    40.00000

 Normal termination of Gaussian 16 at Tue Dec  8 19:56:19 2020.
