 Gaussian 16, Revision A.03,

 -----------------------------------------------------------
 # opt freq B3LYP/6-31G(d) empiricaldispersion=gd3bj scf=xqc
 -----------------------------------------------------------

 ------------------------------
 CID_68992381_JID_6202_neutraal
 ------------------------------
 Symbolic Z-matrix:
 Charge =  0 Multiplicity = 1

 SCF Done:  E(RB3LYP) =  -694.855549944     A.U. after   15 cycles
 SCF Done:  E(RB3LYP) =  -694.859382851     A.U. after   13 cycles
 SCF Done:  E(RB3LYP) =  -694.860055807     A.U. after   13 cycles
 SCF Done:  E(RB3LYP) =  -694.860451034     A.U. after   12 cycles
 SCF Done:  E(RB3LYP) =  -694.860530699     A.U. after   12 cycles
 SCF Done:  E(RB3LYP) =  -694.861005569     A.U. after   12 cycles
 SCF Done:  E(RB3LYP) =  -694.861284518     A.U. after   11 cycles
 SCF Done:  E(RB3LYP) =  -694.861391255     A.U. after   11 cycles
 SCF Done:  E(RB3LYP) =  -694.861428332     A.U. after   11 cycles
 SCF Done:  E(RB3LYP) =  -694.861459308     A.U. after   10 cycles
 SCF Done:  E(RB3LYP) =  -694.861468124     A.U. after   10 cycles
 SCF Done:  E(RB3LYP) =  -694.861468687     A.U. after    9 cycles
 SCF Done:  E(RB3LYP) =  -694.861469155     A.U. after    8 cycles
 SCF Done:  E(RB3LYP) =  -694.861469292     A.U. after    7 cycles
 Optimization completed.
    -- Stationary point found.
 Normal termination of Gaussian 16 at Thu Dec 10 21:19:10 2020.

 --------------------------------------------------------------------
 #N Geom=AllCheck Guess=TCheck SCRF=Check GenChk RB3LYP/6-31G(d) Freq
 --------------------------------------------------------------------

 Structure from the checkpoint file:  "JID_6202.chk"
 ------------------------------
 CID_68992381_JID_6202_neutraal
 ------------------------------
 Charge =  0 Multiplicity = 1

 SCF Done:  E(RB3LYP) =  -694.861469292     A.U. after    1 cycles

  Exact polarizability: 167.885  18.585 131.284 -11.435  11.304 128.587
 Approx polarizability: 214.664  32.227 192.609 -21.684  26.332 224.357

                      1                      2                      3
                      A                      A                      A
 Frequencies --     22.6807                25.9784                45.4720
 Red. masses --      4.2886                 3.7741                 3.9701
 Frc consts  --      0.0013                 0.0015                 0.0048
 IR Inten    --      0.0637                 0.2569                 0.4220

                      4                      5                      6
                      A                      A                      A
 Frequencies --     80.3993               104.2791               138.9512
 Red. masses --      2.7783                 4.9600                 4.6280
 Frc consts  --      0.0106                 0.0318                 0.0526
 IR Inten    --      0.3693                 1.1222                 0.4717

                      7                      8                      9
                      A                      A                      A
 Frequencies --    166.5962               188.7278               220.4911
 Red. masses --      3.5751                 3.6981                 3.1381
 Frc consts  --      0.0585                 0.0776                 0.0899
 IR Inten    --      2.1483                 1.5258                 2.2668

                     10                     11                     12
                      A                      A                      A
 Frequencies --    229.8140               260.2956               267.6352
 Red. masses --      1.2820                 2.3474                 1.8215
 Frc consts  --      0.0399                 0.0937                 0.0769
 IR Inten    --      0.2497                 0.6161                 0.6956

                     13                     14                     15
                      A                      A                      A
 Frequencies --    315.6806               407.8013               417.5722
 Red. masses --      3.7222                 3.9744                 3.0123
 Frc consts  --      0.2185                 0.3894                 0.3095
 IR Inten    --      0.8130                 4.6470                 0.2389

                     16                     17                     18
                      A                      A                      A
 Frequencies --    445.9962               472.1394               524.8395
 Red. masses --      4.0816                 4.1844                 3.4589
 Frc consts  --      0.4784                 0.5496                 0.5614
 IR Inten    --      6.6309                 3.7208                 7.1216

                     19                     20                     21
                      A                      A                      A
 Frequencies --    547.8756               596.2496               615.3754
 Red. masses --      2.0287                 3.5438                 2.6827
 Frc consts  --      0.3588                 0.7423                 0.5986
 IR Inten    --      2.6690                15.6245                 0.5871

                     22                     23                     24
                      A                      A                      A
 Frequencies --    634.9934               691.7892               713.9767
 Red. masses --      6.1619                 2.9568                 2.0098
 Frc consts  --      1.4639                 0.8337                 0.6036
 IR Inten    --      0.0808                 0.3843                22.4381

                     25                     26                     27
                      A                      A                      A
 Frequencies --    746.8137               775.1336               792.2875
 Red. masses --      2.6537                 2.2277                 2.8621
 Frc consts  --      0.8720                 0.7886                 1.0585
 IR Inten    --     20.7415                10.1591                 1.3518

                     28                     29                     30
                      A                      A                      A
 Frequencies --    823.4249               848.3508               860.4882
 Red. masses --      3.5796                 2.3437                 1.2497
 Frc consts  --      1.4300                 0.9938                 0.5452
 IR Inten    --      5.0820                10.2298                 0.3878

                     31                     32                     33
                      A                      A                      A
 Frequencies --    869.5645               887.7227               915.3883
 Red. masses --      2.0531                 2.7524                 2.4162
 Frc consts  --      0.9147                 1.2779                 1.1929
 IR Inten    --      1.3135                 4.7686                 0.1873

                     34                     35                     36
                      A                      A                      A
 Frequencies --    927.9150               940.8217               968.7654
 Red. masses --      1.4208                 1.9480                 1.3851
 Frc consts  --      0.7208                 1.0159                 0.7659
 IR Inten    --      2.2992                 5.5052                 1.1461

                     37                     38                     39
                      A                      A                      A
 Frequencies --    970.0680               987.0966               995.2755
 Red. masses --      1.7809                 1.7735                 1.2536
 Frc consts  --      0.9874                 1.0181                 0.7316
 IR Inten    --      4.5466                 1.3710                 0.4417

                     40                     41                     42
                      A                      A                      A
 Frequencies --   1022.4222              1028.7363              1043.5055
 Red. masses --      5.8179                 2.3736                 1.5563
 Frc consts  --      3.5832                 1.4800                 0.9985
 IR Inten    --      3.1289                13.2685                 5.5748

                     43                     44                     45
                      A                      A                      A
 Frequencies --   1058.5372              1063.5350              1089.1029
 Red. masses --      1.7593                 2.0832                 1.7825
 Frc consts  --      1.1615                 1.3883                 1.2457
 IR Inten    --      7.3233                13.0502               112.8672

                     46                     47                     48
                      A                      A                      A
 Frequencies --   1099.3774              1116.7805              1136.0310
 Red. masses --      2.0258                 2.9231                 1.9024
 Frc consts  --      1.4426                 2.1480                 1.4466
 IR Inten    --      3.8419                15.7642                 1.7998

                     49                     50                     51
                      A                      A                      A
 Frequencies --   1194.2451              1197.6150              1218.3923
 Red. masses --      1.0976                 1.5213                 1.1500
 Frc consts  --      0.9223                 1.2856                 1.0058
 IR Inten    --      0.0400                19.8203                 1.4683

                     52                     53                     54
                      A                      A                      A
 Frequencies --   1220.8386              1222.0750              1258.8718
 Red. masses --      2.0457                 1.7799                 1.3500
 Frc consts  --      1.7964                 1.5661                 1.2605
 IR Inten    --      0.2612                29.4861                 2.2123

                     55                     56                     57
                      A                      A                      A
 Frequencies --   1267.3019              1274.5756              1308.9885
 Red. masses --      1.4855                 3.1610                 1.9887
 Frc consts  --      1.4057                 3.0256                 2.0076
 IR Inten    --     63.3418               209.3772                33.2752

                     58                     59                     60
                      A                      A                      A
 Frequencies --   1329.9733              1348.4466              1349.8981
 Red. masses --      1.3176                 1.3833                 1.2087
 Frc consts  --      1.3731                 1.4820                 1.2977
 IR Inten    --      0.2343                 3.7230                 5.4585

                     61                     62                     63
                      A                      A                      A
 Frequencies --   1359.9118              1368.1771              1371.6906
 Red. masses --      1.3459                 2.6208                 1.3607
 Frc consts  --      1.4665                 2.8905                 1.5084
 IR Inten    --     11.3021                 1.6261                 4.3999

                     64                     65                     66
                      A                      A                      A
 Frequencies --   1377.7620              1389.0834              1431.1123
 Red. masses --      1.4567                 1.4009                 1.2760
 Frc consts  --      1.6291                 1.5927                 1.5397
 IR Inten    --      2.6289                 0.9932                 6.4870

                     67                     68                     69
                      A                      A                      A
 Frequencies --   1440.3062              1505.1029              1512.0151
 Red. masses --      1.2576                 2.1758                 1.0882
 Frc consts  --      1.5371                 2.9041                 1.4657
 IR Inten    --      7.2568                 5.6278                 0.0888

                     70                     71                     72
                      A                      A                      A
 Frequencies --   1515.9108              1520.8090              1523.5660
 Red. masses --      1.0885                 1.0883                 1.0560
 Frc consts  --      1.4738                 1.4830                 1.4442
 IR Inten    --      5.9930                 4.6437                 3.8831

                     73                     74                     75
                      A                      A                      A
 Frequencies --   1528.3838              1540.3728              1547.1492
 Red. masses --      1.0538                 1.1105                 2.1342
 Frc consts  --      1.4504                 1.5525                 3.0099
 IR Inten    --      9.9336                11.2359                15.4166

                     76                     77                     78
                      A                      A                      A
 Frequencies --   1646.7254              1665.5493              1810.5866
 Red. masses --      5.5013                 5.5574                11.2380
 Frc consts  --      8.7893                 9.0832                21.7058
 IR Inten    --      1.1874                 5.3887               195.4266

                     79                     80                     81
                      A                      A                      A
 Frequencies --   3038.9141              3058.7540              3061.9304
 Red. masses --      1.0687                 1.0711                 1.0365
 Frc consts  --      5.8148                 5.9045                 5.7256
 IR Inten    --     38.6451                18.9061                27.2008

                     82                     83                     84
                      A                      A                      A
 Frequencies --   3078.5796              3084.6530              3092.1227
 Red. masses --      1.0621                 1.0660                 1.0850
 Frc consts  --      5.9307                 5.9762                 6.1123
 IR Inten    --     40.7714                25.4841                 7.3374

                     85                     86                     87
                      A                      A                      A
 Frequencies --   3102.2482              3110.9450              3127.0204
 Red. masses --      1.0950                 1.0862                 1.1000
 Frc consts  --      6.2087                 6.1936                 6.3373
 IR Inten    --     44.9955                13.1536                10.6183

                     88                     89                     90
                      A                      A                      A
 Frequencies --   3127.6709              3137.0063              3145.0779
 Red. masses --      1.1030                 1.1006                 1.1013
 Frc consts  --      6.3571                 6.3815                 6.4184
 IR Inten    --     32.0866                18.4068                43.4316

                     91                     92                     93
                      A                      A                      A
 Frequencies --   3154.3581              3179.9573              3186.6753
 Red. masses --      1.1009                 1.0852                 1.0878
 Frc consts  --      6.4540                 6.4658                 6.5085
 IR Inten    --     17.3657                 3.8454                 1.6423

                     94                     95                     96
                      A                      A                      A
 Frequencies --   3196.7188              3208.1737              3216.4998
 Red. masses --      1.0920                 1.0953                 1.0946
 Frc consts  --      6.5748                 6.6419                 6.6723
 IR Inten    --     29.2848                31.8961                 7.0671

 - Thermochemistry -
 -------------------
 Temperature   298.150 Kelvin.  Pressure   1.00000 Atm.
 Atom     1 has atomic number  6 and mass  12.00000

 Molecular mass:   218.13068 amu.
 Principal axes and moments of inertia in atomic units:
                           1         2         3
     Eigenvalues --  1697.758616054.045356599.36867
           X            0.99997  -0.00781  -0.00110
           Y            0.00780   0.99990  -0.01173
           Z            0.00119   0.01172   0.99993
 This molecule is an asymmetric top.
 Rotational symmetry number  1.
 Warning -- assumption of classical behavior for rotation
           may cause significant error
 Rotational temperatures (Kelvin)      0.05102     0.01431     0.01312
 Rotational constants (GHZ):           1.06301     0.29811     0.27347
 Zero-point vibrational energy     775512.1 (Joules/Mol)
                                  185.35184 (Kcal/Mol)
 Warning -- explicit consideration of  21 degrees of freedom as
           vibrations may cause significant error
 Vibrational temperatures:     32.63    37.38    65.42   115.68   150.03
          (Kelvin)            199.92   239.69   271.54   317.24   330.65
                              374.51   385.07   454.19   586.74   600.79
                              641.69   679.30   755.13   788.27   857.87
                              885.39   913.61   995.33  1027.25  1074.50
                             1115.24  1139.92  1184.72  1220.59  1238.05
                             1251.11  1277.23  1317.04  1335.06  1353.63
                             1393.84  1395.71  1420.21  1431.98  1471.04
                             1480.12  1501.37  1523.00  1530.19  1566.98
                             1581.76  1606.80  1634.50  1718.25  1723.10
                             1752.99  1756.51  1758.29  1811.24  1823.36
                             1833.83  1883.34  1913.53  1940.11  1942.20
                             1956.61  1968.50  1973.56  1982.29  1998.58
                             2059.05  2072.28  2165.51  2175.45  2181.06
                             2188.10  2192.07  2199.00  2216.25  2226.00
                             2369.27  2396.35  2605.03  4372.32  4400.86
                             4405.43  4429.39  4438.13  4448.87  4463.44
                             4475.96  4499.08  4500.02  4513.45  4525.07
                             4538.42  4575.25  4584.91  4599.37  4615.85
                             4627.83

 Zero-point correction=                           0.295377 (Hartree/Particle)
 Thermal correction to Energy=                    0.310143
 Thermal correction to Enthalpy=                  0.311087
 Thermal correction to Gibbs Free Energy=         0.251546
 Sum of electronic and zero-point Energies=           -694.566092
 Sum of electronic and thermal Energies=              -694.551327
 Sum of electronic and thermal Enthalpies=            -694.550383
 Sum of electronic and thermal Free Energies=         -694.609924

                     E (Thermal)             CV                S
                      KCal/Mol        Cal/Mol-Kelvin    Cal/Mol-Kelvin
 Total                  194.617             56.834            125.315
 Electronic               0.000              0.000              0.000
 Translational            0.889              2.981             42.043
 Rotational               0.889              2.981             32.584
 Vibrational            192.840             50.872             50.688
 Vibration     1          0.593              1.985              6.384
 Vibration     2          0.593              1.985              6.115
 Vibration     3          0.595              1.979              5.005
 Vibration     4          0.600              1.962              3.881
 Vibration     5          0.605              1.946              3.373
 Vibration     6          0.615              1.914              2.818
 Vibration     7          0.624              1.884              2.474
 Vibration     8          0.633              1.855              2.240
 Vibration     9          0.647              1.810              1.955
 Vibration    10          0.652              1.795              1.880
 Vibration    11          0.668              1.745              1.660
 Vibration    12          0.673              1.733              1.611
 Vibration    13          0.703              1.644              1.332
 Vibration    14          0.772              1.453              0.934
 Vibration    15          0.781              1.432              0.900
 Vibration    16          0.805              1.370              0.808
 Vibration    17          0.829              1.312              0.732
 Vibration    18          0.880              1.195              0.599
 Vibration    19          0.903              1.144              0.549
 Vibration    20          0.954              1.040              0.456
 Vibration    21          0.975              0.999              0.424

                           ! Non-Optimized Parameters !
 Normal termination of Gaussian 16 at Thu Dec 10 21:31:33 2020.

 ----------------------------------------------------------------------
 # B3LYP/6-311++G(d,p) empiricaldispersion=gd3bj scf=xqc pop=npa geom=c
 heck
 ----------------------------------------------------------------------

 --------------------------------------
 CID_68992381_JID_6202_Energie_neutraal
 --------------------------------------
 Structure from the checkpoint file:  "JID_6202.chk"
 Charge =  0 Multiplicity = 1

 SCF Done:  E(RB3LYP) =  -695.050338438     A.U. after   16 cycles
 Normal termination of Gaussian 16 at Thu Dec 10 21:38:04 2020.

 ----------------------------------------------------------------------
 # B3LYP/6-311++G(d,p) empiricaldispersion=gd3bj scf=xqc pop=npa geom=c
 heck
 ----------------------------------------------------------------------

 ------------------------------------
 CID_68992381_JID_6202_Energie_kation
 ------------------------------------
 Structure from the checkpoint file:  "JID_6202.chk"
 Charge =  1 Multiplicity = 2

 SCF Done:  E(UB3LYP) =  -694.735999645     A.U. after   25 cycles
 Normal termination of Gaussian 16 at Thu Dec 10 21:52:16 2020.
 Gaussian 16:  ES64L-G16RevA.03 25-Dec-2016

 ----------------------------------------------------------------------
 # B3LYP/6-311++G(d,p) empiricaldispersion=gd3bj scf=xqc pop=npa geom=c
 heck
 ----------------------------------------------------------------------

 -----------------------------------
 CID_68992381_JID_6202_Energie_anion
 -----------------------------------
 Structure from the checkpoint file:  "JID_6202.chk"
 Charge = -1 Multiplicity = 2

                         Standard orientation:
 ---------------------------------------------------------------------
 Center     Atomic      Atomic             Coordinates (Angstroms)
 Number     Number       Type             X           Y           Z
 ---------------------------------------------------------------------
      1          6           0       -1.018540    2.600400   -0.723425
      2          6           0       -0.939260    1.503849    0.350655
      3          6           0       -1.995625    0.422939    0.153157
      4          6           0       -1.997930   -0.389229   -0.989046
      5          6           0       -2.977982   -1.365218   -1.161868
      6          6           0       -3.970111   -1.545605   -0.196281
      7          6           0       -3.972978   -0.744382    0.945184
      8          6           0       -2.989570    0.230312    1.117712
      9          6           0        0.434662    0.846314    0.439799
     10          8           0        0.962234    0.528785    1.485097
     11          8           0        0.957340    0.628429   -0.783242
     12          6           0        2.205193   -0.109091   -0.908880
     13          6           0        3.426204    0.627534   -0.314517
     14          6           0        4.315968   -0.500938    0.234883
     15          6           0        3.302786   -1.518758    0.786559
     16          6           0        2.183223   -1.524024   -0.270363
     17          1           0       -0.868777    2.185009   -1.722510
     18          1           0       -0.255407    3.368288   -0.556521
     19          1           0       -2.003328    3.076968   -0.691397
     20          1           0       -1.096720    1.950551    1.336661
     21          1           0       -1.222799   -0.260752   -1.737552
     22          1           0       -2.965579   -1.988011   -2.052229
     23          1           0       -4.733292   -2.306668   -0.332218
     24          1           0       -4.738339   -0.878367    1.704620
     25          1           0       -2.992006    0.849279    2.011252
     26          1           0        2.295707   -0.185647   -1.993955
     27          1           0        3.926096    1.257706   -1.056658
     28          1           0        3.096394    1.266890    0.507027
     29          1           0        5.026025   -0.145086    0.988317
     30          1           0        4.900431   -0.953923   -0.577727
     31          1           0        2.901779   -1.159287    1.738147
     32          1           0        3.737091   -2.510857    0.947297
     33          1           0        1.201088   -1.765340    0.142190
     34          1           0        2.398799   -2.263083   -1.050994
 ---------------------------------------------------------------------

 SCF Done:  E(UB3LYP) =  -695.036348971     A.U. after   33 cycles
 SCF Done:  E(UB3LYP) =  -695.036348970     a.u. after    1 cycles

 The electronic state is 2-A.
 Alpha  occ. eigenvalues --  -19.07341 -19.01940 -10.21058 -10.13621 -10.10552
 Alpha  occ. eigenvalues --  -10.09809 -10.08642 -10.08584 -10.08478 -10.08397
 Alpha  occ. eigenvalues --  -10.08228 -10.07913 -10.07355 -10.07202 -10.07105
 Alpha  occ. eigenvalues --  -10.06766  -1.01316  -0.92932  -0.77463  -0.74515
 Alpha  occ. eigenvalues --   -0.71499  -0.65837  -0.64595  -0.62678  -0.62058
 Alpha  occ. eigenvalues --   -0.56889  -0.53198  -0.51799  -0.49805  -0.48339
 Alpha  occ. eigenvalues --   -0.44114  -0.42482  -0.41437  -0.39034  -0.38901
 Alpha  occ. eigenvalues --   -0.37960  -0.36533  -0.35716  -0.35317  -0.33935
 Alpha  occ. eigenvalues --   -0.33191  -0.32760  -0.31973  -0.30649  -0.29892
 Alpha  occ. eigenvalues --   -0.27837  -0.27580  -0.27215  -0.26075  -0.25162
 Alpha  occ. eigenvalues --   -0.24985  -0.24815  -0.24473  -0.23696  -0.22870
 Alpha  occ. eigenvalues --   -0.20433  -0.18662  -0.16687  -0.15809   0.04166
 Alpha virt. eigenvalues --    0.05701   0.06535   0.06650   0.07129   0.07345
 Alpha virt. eigenvalues --    0.07855   0.08030   0.08902   0.09352   0.09471
 Alpha virt. eigenvalues --    0.10164   0.10632   0.10658   0.10991   0.11982

  Beta  occ. eigenvalues --  -19.07338 -19.01937 -10.21058 -10.13602 -10.10547
  Beta  occ. eigenvalues --  -10.09809 -10.08632 -10.08572 -10.08465 -10.08381
  Beta  occ. eigenvalues --  -10.08216 -10.07895 -10.07339 -10.07187 -10.07090
  Beta  occ. eigenvalues --  -10.06761  -1.01311  -0.92927  -0.77442  -0.74486
  Beta  occ. eigenvalues --   -0.71478  -0.65809  -0.64568  -0.62646  -0.62024
  Beta  occ. eigenvalues --   -0.56858  -0.53171  -0.51766  -0.49774  -0.48298
  Beta  occ. eigenvalues --   -0.44078  -0.42442  -0.41395  -0.39011  -0.38884
  Beta  occ. eigenvalues --   -0.37925  -0.36512  -0.35682  -0.35289  -0.33911
  Beta  occ. eigenvalues --   -0.33161  -0.32729  -0.31954  -0.30630  -0.29867
  Beta  occ. eigenvalues --   -0.27814  -0.27553  -0.27195  -0.26053  -0.25132
  Beta  occ. eigenvalues --   -0.24961  -0.24787  -0.24448  -0.23670  -0.22841
  Beta  occ. eigenvalues --   -0.20418  -0.18647  -0.16668  -0.15790
  Beta virt. eigenvalues --    0.06179   0.06548   0.06731   0.07123   0.07377
  Beta virt. eigenvalues --    0.07671   0.08414   0.08603   0.09138   0.09624
  Beta virt. eigenvalues --    0.09806   0.10224   0.11069   0.11112   0.11221

 Mulliken charges and spin densities:
               1          2
     1  C   -0.050758  -0.706637
     2  C    1.576199  -1.241292
     3  C    0.132702   0.578349
     4  C   -0.719845   0.215803
     5  C    0.271400  -0.574220
     6  C    1.207288  -1.574545
     7  C    0.405622  -0.740579
     8  C   -1.522707   1.512304
     9  C   -0.676145   0.048643
    10  O   -0.149261  -0.013039
    11  O    0.114965  -0.028081
    12  C   -0.758365   0.721270
    13  C    0.802920  -0.898624
    14  C   -0.178907  -0.354509
    15  C   -0.008711  -0.253448
    16  C    0.632823  -0.861700
    17  H   -0.083108   0.272204
    18  H    0.007817   0.129901
    19  H    0.059641   0.092652
    20  H    0.116715   0.134075
    21  H    0.268979  -0.093579
    22  H   -0.619070   0.811998
    23  H   -0.354192   0.513086
    24  H   -0.465692   0.642102
    25  H   -0.132228   0.272966
    26  H   -0.683455   0.916551
    27  H   -0.307190   0.478136
    28  H    0.178535   0.002025
    29  H   -0.034632   0.173154
    30  H   -0.084429   0.225227
    31  H    0.105681   0.068276
    32  H    0.051916   0.096082
    33  H    0.310917  -0.157297
    34  H   -0.415424   0.592746
 Sum of Mulliken charges =  -1.00000   1.00000

 Dipole moment (field-independent basis, Debye):
    X=              0.6000    Y=              3.0833    Z=              3.3781  Tot=              4.6128
 Quadrupole moment (field-independent basis, Debye-Ang):
   XX=           -187.5324   YY=           -136.7551   ZZ=           -141.4705
   XY=             -7.5186   XZ=             10.5025   YZ=             -3.2574

 Summary of Natural Population Analysis:

                                       Natural Population
                Natural  -----------------------------------------------
    Atom  No    Charge         Core      Valence    Rydberg      Total
 -----------------------------------------------------------------------
      C    1   -0.27818      0.99965     2.27377    0.00476     3.27818
      C    2   -0.15608      0.99952     2.14463    0.01193     3.15608
      C    3   -0.01318      0.99949     2.00181    0.01188     3.01318
      C    4   -0.10108      0.99951     2.09191    0.00967     3.10108
      C    5   -0.09629      0.99956     2.08604    0.01068     3.09629
      C    6   -0.10145      0.99956     2.09203    0.00986     3.10145
      C    7   -0.09896      0.99956     2.08886    0.01053     3.09896
      C    8   -0.09904      0.99951     2.08937    0.01017     3.09904
      C    9    0.42064      0.99965     1.55382    0.02590     2.57936
      O   10   -0.30880      0.99987     3.30392    0.00501     4.30880
      O   11   -0.28552      0.99985     3.27559    0.01007     4.28552
      C   12    0.06555      0.99951     1.91995    0.01499     2.93445
      C   13   -0.20434      0.99961     2.19587    0.00885     3.20434
      C   14   -0.19038      0.99964     2.18303    0.00772     3.19038
      C   15   -0.19320      0.99963     2.18560    0.00797     3.19320
      C   16   -0.20501      0.99962     2.19626    0.00913     3.20501
      H   17    0.10687      0.00000     0.39177    0.00135     0.39313
      H   18    0.10007      0.00000     0.39892    0.00100     0.39993
      H   19    0.10042      0.00000     0.39862    0.00096     0.39958
      H   20    0.10858      0.00000     0.38945    0.00197     0.39142
      H   21    0.10901      0.00000     0.38890    0.00209     0.39099
      H   22    0.10324      0.00000     0.39547    0.00129     0.39676
      H   23    0.10262      0.00000     0.39589    0.00149     0.39738
      H   24    0.10193      0.00000     0.39680    0.00127     0.39807
      H   25    0.10049      0.00000     0.39837    0.00114     0.39951
      H   26    0.09871      0.00000     0.39818    0.00311     0.40129
      H   27    0.10261      0.00000     0.39609    0.00130     0.39739
      H   28    0.10587      0.00000     0.39282    0.00131     0.39413
      H   29    0.09806      0.00000     0.40116    0.00078     0.40194
      H   30    0.09531      0.00000     0.40320    0.00149     0.40469
      H   31    0.10382      0.00000     0.39486    0.00132     0.39618
      H   32    0.09667      0.00000     0.40252    0.00080     0.40333
      H   33    0.10897      0.00000     0.38996    0.00107     0.39103
      H   34    0.10206      0.00000     0.39633    0.00161     0.39794
 =======================================================================
   * Total *    0.00000     15.99375    42.81177    0.19448    59.00000

 Normal termination of Gaussian 16 at Thu Dec 10 22:11:59 2020.
