 Gaussian 16, Revision A.03,

 -----------------------------------------------------------
 # opt freq B3LYP/6-31G(d) empiricaldispersion=gd3bj scf=xqc
 -----------------------------------------------------------

 ------------------------------
 CID_63997878_JID_5560_neutraal
 ------------------------------
 Symbolic Z-matrix:
 Charge =  0 Multiplicity = 1

 SCF Done:  E(RB3LYP) =  -959.720531664     A.U. after   15 cycles
 SCF Done:  E(RB3LYP) =  -959.740438934     A.U. after   13 cycles
 SCF Done:  E(RB3LYP) =  -959.741833379     A.U. after   12 cycles
 SCF Done:  E(RB3LYP) =  -959.742009852     A.U. after   12 cycles
 SCF Done:  E(RB3LYP) =  -959.741291720     A.U. after   12 cycles
 SCF Done:  E(RB3LYP) =  -959.742640303     A.U. after   12 cycles
 SCF Done:  E(RB3LYP) =  -959.742859549     A.U. after   13 cycles
 SCF Done:  E(RB3LYP) =  -959.743011532     A.U. after   12 cycles
 SCF Done:  E(RB3LYP) =  -959.743267379     A.U. after   12 cycles
 SCF Done:  E(RB3LYP) =  -959.743585387     A.U. after   12 cycles
 SCF Done:  E(RB3LYP) =  -959.743686257     A.U. after   10 cycles
 SCF Done:  E(RB3LYP) =  -959.743687412     A.U. after    9 cycles
 SCF Done:  E(RB3LYP) =  -959.743687610     A.U. after    8 cycles
 SCF Done:  E(RB3LYP) =  -959.743687750     A.U. after    8 cycles
 SCF Done:  E(RB3LYP) =  -959.743687802     A.U. after    7 cycles
 Optimization completed.
    -- Stationary point found.
 Normal termination of Gaussian 16 at Thu Dec 10 16:42:01 2020.

 --------------------------------------------------------------------
 #N Geom=AllCheck Guess=TCheck SCRF=Check GenChk RB3LYP/6-31G(d) Freq
 --------------------------------------------------------------------

 Structure from the checkpoint file:  "JID_5560.chk"
 ------------------------------
 CID_63997878_JID_5560_neutraal
 ------------------------------
 Charge =  0 Multiplicity = 1

 SCF Done:  E(RB3LYP) =  -959.743687802     A.U. after    1 cycles

  Exact polarizability: 199.891  10.200 149.566  12.417   1.836 117.306
 Approx polarizability: 254.360  21.348 258.028  28.406   3.438 175.323

                      1                      2                      3
                      A                      A                      A
 Frequencies --     21.2852                37.1740                47.7878
 Red. masses --      3.3367                 4.0312                 3.9340
 Frc consts  --      0.0009                 0.0033                 0.0053
 IR Inten    --      0.1273                 0.2735                 0.4925

                      4                      5                      6
                      A                      A                      A
 Frequencies --     54.5691                99.6841               118.1129
 Red. masses --      3.3418                 2.9826                 3.9063
 Frc consts  --      0.0059                 0.0175                 0.0321
 IR Inten    --      0.4597                 1.4786                 0.1448

                      7                      8                      9
                      A                      A                      A
 Frequencies --    132.1019               172.9562               180.5442
 Red. masses --      3.9555                 2.4016                 2.6589
 Frc consts  --      0.0407                 0.0423                 0.0511
 IR Inten    --      0.0751                 0.5476                 0.0523

                     10                     11                     12
                      A                      A                      A
 Frequencies --    222.4832               236.5068               239.8113
 Red. masses --      2.5201                 1.5260                 1.1035
 Frc consts  --      0.0735                 0.0503                 0.0374
 IR Inten    --      0.5393                 0.7875                 0.2239

                     13                     14                     15
                      A                      A                      A
 Frequencies --    263.3719               282.3196               292.4902
 Red. masses --      2.8172                 2.0023                 1.5311
 Frc consts  --      0.1151                 0.0940                 0.0772
 IR Inten    --      0.8776                 0.4955                 0.5452

                     16                     17                     18
                      A                      A                      A
 Frequencies --    313.6676               337.4231               343.1652
 Red. masses --      1.1640                 2.2614                 2.9880
 Frc consts  --      0.0675                 0.1517                 0.2073
 IR Inten    --      0.0873                 0.5760                 1.2778

                     19                     20                     21
                      A                      A                      A
 Frequencies --    388.2988               394.1569               449.2583
 Red. masses --      2.5814                 2.4458                 3.6391
 Frc consts  --      0.2293                 0.2239                 0.4327
 IR Inten    --      6.7365                 4.8284                 0.5596

                     22                     23                     24
                      A                      A                      A
 Frequencies --    493.3920               539.6545               552.5574
 Red. masses --      2.8615                 5.0730                 3.4455
 Frc consts  --      0.4104                 0.8705                 0.6198
 IR Inten    --      1.8586                 1.8065                 3.9235

                     25                     26                     27
                      A                      A                      A
 Frequencies --    583.5979               588.9535               606.0061
 Red. masses --      4.2096                 3.7827                 1.2298
 Frc consts  --      0.8447                 0.7731                 0.2661
 IR Inten    --      5.8582                 2.3675                40.9594

                     28                     29                     30
                      A                      A                      A
 Frequencies --    610.8594               639.6101               658.2709
 Red. masses --      3.3503                 1.2377                 3.5412
 Frc consts  --      0.7366                 0.2983                 0.9041
 IR Inten    --      3.1033                43.6620                24.7387

                     31                     32                     33
                      A                      A                      A
 Frequencies --    668.8797               688.3731               736.9710
 Red. masses --      5.0550                 2.9013                 4.3322
 Frc consts  --      1.3325                 0.8100                 1.3863
 IR Inten    --     16.3317                41.4312                 3.4730

                     34                     35                     36
                      A                      A                      A
 Frequencies --    770.3358               800.6158               818.7310
 Red. masses --      2.7638                 1.2536                 1.2720
 Frc consts  --      0.9663                 0.4734                 0.5024
 IR Inten    --      7.4510                 3.4858                25.6634

                     37                     38                     39
                      A                      A                      A
 Frequencies --    885.9871               890.7682               932.8424
 Red. masses --      1.4367                 1.8715                 1.6398
 Frc consts  --      0.6645                 0.8749                 0.8407
 IR Inten    --      0.7310                 4.4290                 0.5511

                     40                     41                     42
                      A                      A                      A
 Frequencies --    956.1519               957.8763               982.9033
 Red. masses --      2.0702                 1.9835                 2.1381
 Frc consts  --      1.1151                 1.0722                 1.2170
 IR Inten    --      1.2579                 6.4520                 8.5602

                     43                     44                     45
                      A                      A                      A
 Frequencies --   1015.9154              1039.4840              1055.3880
 Red. masses --      1.7470                 1.3019                 1.8163
 Frc consts  --      1.0623                 0.8288                 1.1920
 IR Inten    --      5.5660                 0.2027                12.5408

                     46                     47                     48
                      A                      A                      A
 Frequencies --   1085.8574              1094.3646              1102.0660
 Red. masses --      1.8937                 1.8699                 1.4801
 Frc consts  --      1.3155                 1.3195                 1.0592
 IR Inten    --      4.6020                 6.9274                 1.2227

                     49                     50                     51
                      A                      A                      A
 Frequencies --   1160.3902              1175.4748              1192.1169
 Red. masses --      3.0252                 3.0490                 3.0996
 Frc consts  --      2.4000                 2.4822                 2.5954
 IR Inten    --     51.5301                14.8082                 3.2777

                     52                     53                     54
                      A                      A                      A
 Frequencies --   1214.1964              1220.5474              1239.5185
 Red. masses --      2.7202                 2.6918                 1.3830
 Frc consts  --      2.3628                 2.3626                 1.2519
 IR Inten    --    105.4144                 6.4829                22.3375

                     55                     56                     57
                      A                      A                      A
 Frequencies --   1270.4746              1299.3878              1342.4722
 Red. masses --      2.0036                 1.4977                 1.5142
 Frc consts  --      1.9054                 1.4899                 1.6078
 IR Inten    --     14.2666                 3.7289                11.2520

                     58                     59                     60
                      A                      A                      A
 Frequencies --   1368.5370              1374.2356              1397.9003
 Red. masses --      1.3996                 1.3091                 1.9810
 Frc consts  --      1.5445                 1.4566                 2.2808
 IR Inten    --     24.2981                10.5286                 1.3810

                     61                     62                     63
                      A                      A                      A
 Frequencies --   1419.0494              1428.2556              1437.5869
 Red. masses --      1.2202                 1.2387                 1.2266
 Frc consts  --      1.4477                 1.4887                 1.4935
 IR Inten    --      1.7298                13.9279                 2.0580

                     64                     65                     66
                      A                      A                      A
 Frequencies --   1440.2986              1501.3105              1508.2435
 Red. masses --      1.2162                 1.1295                 1.0498
 Frc consts  --      1.4865                 1.4999                 1.4070
 IR Inten    --      7.4684                28.6457                 0.5425

                     67                     68                     69
                      A                      A                      A
 Frequencies --   1510.9000              1511.9390              1518.3383
 Red. masses --      1.0691                 1.0582                 1.0656
 Frc consts  --      1.4380                 1.4253                 1.4473
 IR Inten    --      2.7087                 2.2351                 1.3950

                     70                     71                     72
                      A                      A                      A
 Frequencies --   1525.9488              1527.4740              1533.9071
 Red. masses --      1.0399                 1.0617                 1.0918
 Frc consts  --      1.4267                 1.4595                 1.5135
 IR Inten    --      7.2264                 1.1725                 2.0300

                     73                     74                     75
                      A                      A                      A
 Frequencies --   1539.8576              1546.4448              1557.7528
 Red. masses --      1.0537                 1.1049                 6.2970
 Frc consts  --      1.4720                 1.5569                 9.0029
 IR Inten    --     10.8580                13.0596                 6.0350

                     76                     77                     78
                      A                      A                      A
 Frequencies --   1627.9920              2237.1759              3037.6662
 Red. masses --      5.9003                 5.9636                 1.0633
 Frc consts  --      9.2136                17.5855                 5.7808
 IR Inten    --      0.1626                 0.8118                32.7425

                     79                     80                     81
                      A                      A                      A
 Frequencies --   3049.8145              3051.7376              3052.5952
 Red. masses --      1.0377                 1.0388                 1.0347
 Frc consts  --      5.6870                 5.7000                 5.6810
 IR Inten    --      4.8238                14.9075                33.6990

                     82                     83                     84
                      A                      A                      A
 Frequencies --   3057.9012              3073.6477              3078.8173
 Red. masses --      1.0376                 1.0833                 1.0998
 Frc consts  --      5.7167                 6.0296                 6.1421
 IR Inten    --     35.1896                 8.4543                10.0005

                     85                     86                     87
                      A                      A                      A
 Frequencies --   3116.6491              3118.3587              3122.1200
 Red. masses --      1.1013                 1.1016                 1.1026
 Frc consts  --      6.3025                 6.3112                 6.3323
 IR Inten    --      6.3582                27.9952                49.1280

                     88                     89                     90
                      A                      A                      A
 Frequencies --   3126.5403              3129.2414              3142.0110
 Red. masses --      1.1011                 1.1036                 1.1013
 Frc consts  --      6.3417                 6.3669                 6.4059
 IR Inten    --     52.9679                30.1288                40.5453

                     91                     92                     93
                      A                      A                      A
 Frequencies --   3157.8879              3167.5005              3205.1112
 Red. masses --      1.1024                 1.0982                 1.0893
 Frc consts  --      6.4772                 6.4919                 6.5928
 IR Inten    --     18.7056                16.6932                13.7649

                     94                     95                     96
                      A                      A                      A
 Frequencies --   3220.8720              3496.2523              3503.4329
 Red. masses --      1.0966                 1.1602                 1.0739
 Frc consts  --      6.7028                 8.3557                 7.7660
 IR Inten    --      9.7838                58.0311                 0.3450

 - Thermochemistry -
 -------------------
 Temperature   298.150 Kelvin.  Pressure   1.00000 Atm.
 Atom     1 has atomic number  6 and mass  12.00000

 Molecular mass:   221.12382 amu.
 Principal axes and moments of inertia in atomic units:
                           1         2         3
     Eigenvalues --  1412.085277505.246527673.15226
           X            0.99998  -0.00514  -0.00340
           Y            0.00513   0.99999  -0.00109
           Z            0.00341   0.00107   0.99999
 This molecule is an asymmetric top.
 Rotational symmetry number  1.
 Warning -- assumption of classical behavior for rotation
           may cause significant error
 Rotational temperatures (Kelvin)      0.06134     0.01154     0.01129
 Rotational constants (GHZ):           1.27807     0.24046     0.23520
 Zero-point vibrational energy     765128.3 (Joules/Mol)
                                  182.87006 (Kcal/Mol)
 Warning -- explicit consideration of  28 degrees of freedom as
           vibrations may cause significant error
 Vibrational temperatures:     30.62    53.49    68.76    78.51   143.42
          (Kelvin)            169.94   190.07   248.85   259.76   320.10
                              340.28   345.03   378.93   406.19   420.83
                              451.30   485.48   493.74   558.68   567.10
                              646.38   709.88   776.44   795.01   839.67
                              847.37   871.91   878.89   920.26   947.11
                              962.37   990.42  1060.34  1108.34  1151.91
                             1177.97  1274.74  1281.62  1342.15  1375.69
                             1378.17  1414.18  1461.68  1495.59  1518.47
                             1562.31  1574.55  1585.63  1669.54  1691.25
                             1715.19  1746.96  1756.10  1783.39  1827.93
                             1869.53  1931.52  1969.02  1977.22  2011.27
                             2041.70  2054.94  2068.37  2072.27  2160.05
                             2170.03  2173.85  2175.34  2184.55  2195.50
                             2197.69  2206.95  2215.51  2224.99  2241.26
                             2342.32  3218.80  4370.52  4388.00  4390.77
                             4392.00  4399.64  4422.29  4429.73  4484.16
                             4486.62  4492.03  4498.39  4502.28  4520.65
                             4543.50  4557.33  4611.44  4634.12  5030.33
                             5040.66

 Zero-point correction=                           0.291422 (Hartree/Particle)
 Thermal correction to Energy=                    0.308712
 Thermal correction to Enthalpy=                  0.309657
 Thermal correction to Gibbs Free Energy=         0.245540
 Sum of electronic and zero-point Energies=           -959.452266
 Sum of electronic and thermal Energies=              -959.434975
 Sum of electronic and thermal Enthalpies=            -959.434031
 Sum of electronic and thermal Free Energies=         -959.498148

                     E (Thermal)             CV                S
                      KCal/Mol        Cal/Mol-Kelvin    Cal/Mol-Kelvin
 Total                  193.720             64.969            134.945
 Electronic               0.000              0.000              0.000
 Translational            0.889              2.981             42.083
 Rotational               0.889              2.981             32.764
 Vibrational            191.942             59.007             60.097
 Vibration     1          0.593              1.985              6.511
 Vibration     2          0.594              1.982              5.404
 Vibration     3          0.595              1.978              4.907
 Vibration     4          0.596              1.976              4.645
 Vibration     5          0.604              1.949              3.460
 Vibration     6          0.608              1.934              3.131
 Vibration     7          0.612              1.921              2.915
 Vibration     8          0.626              1.876              2.403
 Vibration     9          0.629              1.866              2.323
 Vibration    10          0.648              1.807              1.939
 Vibration    11          0.655              1.785              1.829
 Vibration    12          0.657              1.780              1.804
 Vibration    13          0.670              1.740              1.639
 Vibration    14          0.681              1.706              1.520
 Vibration    15          0.688              1.688              1.460
 Vibration    16          0.702              1.648              1.343
 Vibration    17          0.718              1.601              1.224
 Vibration    18          0.722              1.589              1.197
 Vibration    19          0.756              1.495              1.007
 Vibration    20          0.761              1.483              0.984
 Vibration    21          0.808              1.363              0.798
 Vibration    22          0.849              1.265              0.675
 Vibration    23          0.895              1.162              0.566
 Vibration    24          0.908              1.134              0.539
 Vibration    25          0.940              1.067              0.479
 Vibration    26          0.946              1.055              0.469
 Vibration    27          0.965              1.019              0.439
 Vibration    28          0.970              1.009              0.431

                           ! Non-Optimized Parameters !
 Normal termination of Gaussian 16 at Thu Dec 10 16:53:45 2020.

 ----------------------------------------------------------------------
 # B3LYP/6-311++G(d,p) empiricaldispersion=gd3bj scf=xqc pop=npa geom=c
 heck
 ----------------------------------------------------------------------

 --------------------------------------
 CID_63997878_JID_5560_Energie_neutraal
 --------------------------------------
 Structure from the checkpoint file:  "JID_5560.chk"
 Charge =  0 Multiplicity = 1

 SCF Done:  E(RB3LYP) =  -959.928621505     A.U. after   15 cycles
 Normal termination of Gaussian 16 at Thu Dec 10 17:02:54 2020.

 ----------------------------------------------------------------------
 # B3LYP/6-311++G(d,p) empiricaldispersion=gd3bj scf=xqc pop=npa geom=c
 heck
 ----------------------------------------------------------------------

 ------------------------------------
 CID_63997878_JID_5560_Energie_kation
 ------------------------------------
 Structure from the checkpoint file:  "JID_5560.chk"
 Charge =  1 Multiplicity = 2

 SCF Done:  E(UB3LYP) =  -959.647201081     A.U. after   26 cycles
 Normal termination of Gaussian 16 at Thu Dec 10 17:24:30 2020.
 Gaussian 16:  ES64L-G16RevA.03 25-Dec-2016

 ----------------------------------------------------------------------
 # B3LYP/6-311++G(d,p) empiricaldispersion=gd3bj scf=xqc pop=npa geom=c
 heck
 ----------------------------------------------------------------------

 -----------------------------------
 CID_63997878_JID_5560_Energie_anion
 -----------------------------------
 Structure from the checkpoint file:  "JID_5560.chk"
 Charge = -1 Multiplicity = 2

                         Standard orientation:
 ---------------------------------------------------------------------
 Center     Atomic      Atomic             Coordinates (Angstroms)
 Number     Number       Type             X           Y           Z
 ---------------------------------------------------------------------
      1          6           0       -5.113812   -0.757997    0.596885
      2          6           0       -4.403746   -0.331934   -0.698202
      3          6           0       -3.038356    0.248301   -0.471484
      4          6           0       -2.616376    1.536133   -0.657513
      5          6           0       -1.246052    1.748768   -0.310173
      6          6           0       -0.617216    0.626629    0.149315
      7         16           0       -1.729661   -0.730954    0.161366
      8          6           0        0.821731    0.462034    0.561756
      9          6           0        0.940126   -0.204069    1.946449
     10          7           0        1.537635   -0.188379   -0.547802
     11          6           0        2.994719   -0.429661   -0.465328
     12          6           0        3.359619   -1.766473    0.229359
     13          6           0        3.515648   -0.468374   -1.919984
     14          6           0        3.655541    0.679252    0.240705
     15          6           0        4.236976    1.566183    0.817328
     16          1           0       -4.547880   -1.538171    1.117285
     17          1           0       -6.113861   -1.150574    0.381686
     18          1           0       -5.214442    0.092178    1.279557
     19          1           0       -4.341259   -1.192588   -1.377639
     20          1           0       -5.004096    0.426206   -1.215366
     21          1           0       -3.271262    2.314781   -1.035746
     22          1           0       -0.737295    2.702226   -0.407114
     23          1           0        1.237731    1.471979    0.643664
     24          1           0        0.609594   -1.249062    1.913973
     25          1           0        1.973537   -0.175244    2.301157
     26          1           0        0.315133    0.325207    2.673850
     27          1           0        1.075467   -1.059994   -0.798631
     28          1           0        2.876910   -2.593840   -0.304830
     29          1           0        4.441697   -1.932309    0.207806
     30          1           0        3.029586   -1.785858    1.269124
     31          1           0        3.290118    0.475737   -2.420223
     32          1           0        4.595451   -0.646235   -1.947718
     33          1           0        3.014548   -1.277411   -2.463940
     34          1           0        4.748641    2.354148    1.321181
 ---------------------------------------------------------------------

 SCF Done:  E(UB3LYP) =  -959.914589885     A.U. after   33 cycles
 SCF Done:  E(UB3LYP) =  -959.914589885     a.u. after    1 cycles

 The electronic state is 2-A.
 Alpha  occ. eigenvalues --  -88.77016 -14.20864 -10.14838 -10.11975 -10.10273
 Alpha  occ. eigenvalues --  -10.09991 -10.08864 -10.08612 -10.07942 -10.07777
 Alpha  occ. eigenvalues --  -10.07550 -10.07459 -10.07323 -10.06938 -10.06876
 Alpha  occ. eigenvalues --   -7.85670  -5.81951  -5.81592  -5.81263  -0.83173
 Alpha  occ. eigenvalues --   -0.78157  -0.72000  -0.68796  -0.66177  -0.64097
 Alpha  occ. eigenvalues --   -0.63037  -0.61089  -0.60350  -0.54936  -0.53387
 Alpha  occ. eigenvalues --   -0.51388  -0.45337  -0.44262  -0.43539  -0.40714
 Alpha  occ. eigenvalues --   -0.40067  -0.37558  -0.35729  -0.35156  -0.33883
 Alpha  occ. eigenvalues --   -0.33720  -0.33276  -0.31124  -0.30675  -0.30440
 Alpha  occ. eigenvalues --   -0.29666  -0.29022  -0.28628  -0.27840  -0.27457
 Alpha  occ. eigenvalues --   -0.26196  -0.25476  -0.25412  -0.24513  -0.23316
 Alpha  occ. eigenvalues --   -0.19644  -0.19043  -0.15522  -0.13714  -0.12800
 Alpha  occ. eigenvalues --    0.04101
 Alpha virt. eigenvalues --    0.05427   0.06347   0.07245   0.07527   0.07801
 Alpha virt. eigenvalues --    0.08393   0.08729   0.09203   0.09347   0.09579
 Alpha virt. eigenvalues --    0.10281   0.10480   0.10629   0.11146   0.11776

  Beta  occ. eigenvalues --  -88.77006 -14.20853 -10.14836 -10.11975 -10.10241
  Beta  occ. eigenvalues --  -10.09940 -10.08866 -10.08593 -10.07920 -10.07751
  Beta  occ. eigenvalues --  -10.07533 -10.07461 -10.07302 -10.06902 -10.06860
  Beta  occ. eigenvalues --   -7.85658  -5.81945  -5.81586  -5.81242  -0.83151
  Beta  occ. eigenvalues --   -0.78103  -0.71972  -0.68744  -0.66156  -0.64060
  Beta  occ. eigenvalues --   -0.62992  -0.61034  -0.60305  -0.54873  -0.53343
  Beta  occ. eigenvalues --   -0.51347  -0.45290  -0.44202  -0.43473  -0.40674
  Beta  occ. eigenvalues --   -0.40041  -0.37522  -0.35694  -0.35123  -0.33842
  Beta  occ. eigenvalues --   -0.33685  -0.33225  -0.31098  -0.30644  -0.30404
  Beta  occ. eigenvalues --   -0.29606  -0.28983  -0.28597  -0.27798  -0.27430
  Beta  occ. eigenvalues --   -0.26148  -0.25405  -0.25377  -0.24478  -0.23275
  Beta  occ. eigenvalues --   -0.19628  -0.19028  -0.15417  -0.13672  -0.12611
  Beta virt. eigenvalues --    0.06003   0.06500   0.07086   0.07548   0.07797
  Beta virt. eigenvalues --    0.08099   0.08610   0.09119   0.09382   0.09646
  Beta virt. eigenvalues --    0.09796   0.10366   0.10595   0.10813   0.11165

 Mulliken charges and spin densities:
               1          2
     1  C    0.551983  -1.095786
     2  C   -0.372365  -0.188137
     3  C    0.090058   0.126529
     4  C   -0.353631   0.494862
     5  C    0.491911  -0.259901
     6  C    0.024941   0.096274
     7  S   -0.127866  -0.310110
     8  C   -0.176925  -0.182158
     9  C   -0.356376  -0.423439
    10  N    0.397710  -0.122532
    11  C   -2.937892   2.967759
    12  C    0.457832  -1.068691
    13  C    0.253310  -0.718547
    14  C    4.349541  -4.297121
    15  C   -1.536610   1.306722
    16  H   -0.024911   0.153751
    17  H   -0.472040   0.609648
    18  H    0.036308   0.100869
    19  H   -0.230145   0.393425
    20  H   -0.241738   0.394666
    21  H   -0.165695   0.319984
    22  H    0.018660   0.123174
    23  H    0.439237  -0.256129
    24  H    0.086122   0.096776
    25  H    0.175626  -0.061496
    26  H    0.020592   0.136225
    27  H    0.154919   0.013838
    28  H   -0.231030   0.370528
    29  H   -0.060999   0.214923
    30  H   -0.036000   0.197882
    31  H    0.068371   0.104441
    32  H    0.015680   0.123238
    33  H   -0.127866   0.261642
    34  H   -1.180714   1.376889
 Sum of Mulliken charges =  -1.00000   1.00000

 Dipole moment (field-independent basis, Debye):
    X=              1.1838    Y=              0.3740    Z=              0.6078  Tot=              1.3823
 Quadrupole moment (field-independent basis, Debye-Ang):
   XX=           -222.8364   YY=           -139.3388   ZZ=           -134.0589
   XY=            -14.2917   XZ=             -9.3836   YZ=             -3.0599

 Summary of Natural Population Analysis:

                                       Natural Population
                Natural  -----------------------------------------------
    Atom  No    Charge         Core      Valence    Rydberg      Total
 -----------------------------------------------------------------------
      C    1   -0.28107      0.99966     2.27558    0.00583     3.28107
      C    2   -0.20638      0.99958     2.19648    0.01032     3.20638
      C    3   -0.08659      0.99950     2.07354    0.01356     3.08659
      C    4   -0.12819      0.99946     2.11872    0.01002     3.12819
      C    5   -0.12452      0.99945     2.11563    0.00944     3.12452
      C    6   -0.07976      0.99947     2.06728    0.01301     3.07976
      S    7    0.19223      4.99937     2.78999    0.01842     7.80777
      C    8   -0.02782      0.99953     2.01541    0.01289     3.02782
      C    9   -0.29362      0.99964     2.28882    0.00516     3.29362
      N   10   -0.33785      0.99972     2.82565    0.01248     3.83785
      C   11    0.01826      0.99952     1.96894    0.01328     2.98174
      C   12   -0.28319      0.99963     2.27624    0.00732     3.28319
      C   13   -0.27131      0.99963     2.26554    0.00614     3.27131
      C   14   -0.00225      0.99936     1.99158    0.01131     3.00225
      C   15   -0.11287      0.99927     2.10913    0.00447     3.11287
      H   16    0.09788      0.00000     0.40112    0.00100     0.40212
      H   17    0.10005      0.00000     0.39821    0.00174     0.39995
      H   18    0.09735      0.00000     0.40159    0.00106     0.40265
      H   19    0.10420      0.00000     0.39414    0.00166     0.39580
      H   20    0.10481      0.00000     0.39357    0.00162     0.39519
      H   21    0.10457      0.00000     0.39444    0.00099     0.39543
      H   22    0.10557      0.00000     0.39340    0.00103     0.39443
      H   23    0.10518      0.00000     0.39253    0.00229     0.39482
      H   24    0.09804      0.00000     0.40086    0.00110     0.40196
      H   25    0.10294      0.00000     0.39595    0.00111     0.39706
      H   26    0.10327      0.00000     0.39580    0.00093     0.39673
      H   27    0.17711      0.00000     0.32030    0.00259     0.32289
      H   28    0.09933      0.00000     0.39941    0.00126     0.40067
      H   29    0.10207      0.00000     0.39690    0.00103     0.39793
      H   30    0.10431      0.00000     0.39444    0.00125     0.39569
      H   31    0.10667      0.00000     0.39209    0.00124     0.39333
      H   32    0.09877      0.00000     0.40022    0.00101     0.40123
      H   33    0.09965      0.00000     0.39932    0.00104     0.40035
      H   34    0.11318      0.00000     0.38453    0.00229     0.38682
 =======================================================================
   * Total *    0.00000     18.99279    40.82734    0.17987    60.00000

 Normal termination of Gaussian 16 at Thu Dec 10 17:42:44 2020.
