 Gaussian 16, Revision A.03,

 -----------------------------------------------------------
 # opt freq B3LYP/6-31G(d) empiricaldispersion=gd3bj scf=xqc
 -----------------------------------------------------------

 ------------------------------
 CID_13719524_JID_3194_neutraal
 ------------------------------
 Symbolic Z-matrix:
 Charge =  0 Multiplicity = 1

 SCF Done:  E(RB3LYP) =  -597.712981449     A.U. after   15 cycles
 SCF Done:  E(RB3LYP) =  -597.718503049     A.U. after   13 cycles
 SCF Done:  E(RB3LYP) =  -597.719124995     A.U. after   13 cycles
 SCF Done:  E(RB3LYP) =  -597.720251171     A.U. after   13 cycles
 SCF Done:  E(RB3LYP) =  -597.721772197     A.U. after   12 cycles
 SCF Done:  E(RB3LYP) =  -597.722525906     A.U. after   12 cycles
 SCF Done:  E(RB3LYP) =  -597.722142924     A.U. after   13 cycles
 SCF Done:  E(RB3LYP) =  -597.723120937     A.U. after   12 cycles
 SCF Done:  E(RB3LYP) =  -597.723248389     A.U. after   12 cycles
 SCF Done:  E(RB3LYP) =  -597.723371749     A.U. after   11 cycles
 SCF Done:  E(RB3LYP) =  -597.723647721     A.U. after    8 cycles
 SCF Done:  E(RB3LYP) =  -597.723648581     A.U. after   11 cycles
 SCF Done:  E(RB3LYP) =  -597.723648991     A.U. after   10 cycles
 SCF Done:  E(RB3LYP) =  -597.723649192     A.U. after   10 cycles
 SCF Done:  E(RB3LYP) =  -597.723649226     A.U. after    8 cycles
 Optimization completed.
    -- Stationary point found.
 Normal termination of Gaussian 16 at Wed Dec  9 23:21:42 2020.

 --------------------------------------------------------------------
 #N Geom=AllCheck Guess=TCheck SCRF=Check GenChk RB3LYP/6-31G(d) Freq
 --------------------------------------------------------------------

 Structure from the checkpoint file:  "JID_3194.chk"
 ------------------------------
 CID_13719524_JID_3194_neutraal
 ------------------------------
 Charge =  0 Multiplicity = 1

 SCF Done:  E(RB3LYP) =  -597.723649226     A.U. after    1 cycles

  Exact polarizability: 147.690  -9.464 125.772   0.271   0.326  92.318
 Approx polarizability: 184.034 -32.317 217.941   0.689  -1.936 128.202

                      1                      2                      3
                      A                      A                      A
 Frequencies --     10.9705                26.3371                98.5822
 Red. masses --      4.1346                 3.0457                 2.8517
 Frc consts  --      0.0003                 0.0012                 0.0163
 IR Inten    --      0.7061                 0.2058                 0.8766

                      4                      5                      6
                      A                      A                      A
 Frequencies --    114.1206               126.6198               146.6704
 Red. masses --      2.9905                 2.1316                 2.2392
 Frc consts  --      0.0229                 0.0201                 0.0284
 IR Inten    --      2.1219                 1.9147                 0.6479

                      7                      8                      9
                      A                      A                      A
 Frequencies --    162.0167               186.5584               209.1910
 Red. masses --      2.6010                 1.0798                 1.3262
 Frc consts  --      0.0402                 0.0221                 0.0342
 IR Inten    --      1.9200                 0.4972                 2.3492

                     10                     11                     12
                      A                      A                      A
 Frequencies --    213.2370               225.7512               242.0596
 Red. masses --      1.9910                 1.5047                 1.7078
 Frc consts  --      0.0533                 0.0452                 0.0590
 IR Inten    --      3.7970                 0.5761                 1.0186

                     13                     14                     15
                      A                      A                      A
 Frequencies --    274.8208               297.8216               300.6855
 Red. masses --      1.5095                 2.2923                 1.8661
 Frc consts  --      0.0672                 0.1198                 0.0994
 IR Inten    --      1.4533                 1.0246                 0.4257

                     16                     17                     18
                      A                      A                      A
 Frequencies --    332.1286               341.9053               372.9019
 Red. masses --      2.4431                 2.3706                 2.4852
 Frc consts  --      0.1588                 0.1633                 0.2036
 IR Inten    --      0.3542                 8.4902                 4.3992

                     19                     20                     21
                      A                      A                      A
 Frequencies --    380.6814               430.5437               436.1286
 Red. masses --      1.5487                 2.0295                 3.6441
 Frc consts  --      0.1322                 0.2217                 0.4084
 IR Inten    --     45.2849                19.6586                 2.2346

                     22                     23                     24
                      A                      A                      A
 Frequencies --    451.8182               513.6295               553.5966
 Red. masses --      3.5458                 3.6128                 3.0796
 Frc consts  --      0.4265                 0.5616                 0.5561
 IR Inten    --     17.9212                 7.8388                28.2850

                     25                     26                     27
                      A                      A                      A
 Frequencies --    576.8618               622.6265               700.2045
 Red. masses --      1.3314                 2.9423                 5.9648
 Frc consts  --      0.2610                 0.6720                 1.7230
 IR Inten    --    194.4565                13.5495                17.9385

                     28                     29                     30
                      A                      A                      A
 Frequencies --    738.7622               742.0379               771.8152
 Red. masses --      3.3514                 3.3983                 3.2783
 Frc consts  --      1.0777                 1.1025                 1.1506
 IR Inten    --      4.1142                 7.1502                 2.1738

                     31                     32                     33
                      A                      A                      A
 Frequencies --    883.7877               906.5917               909.4308
 Red. masses --      2.3253                 2.3544                 1.3634
 Frc consts  --      1.0701                 1.1401                 0.6644
 IR Inten    --     17.3394                 0.6467                19.5820

                     34                     35                     36
                      A                      A                      A
 Frequencies --    933.1611               957.6023               965.5314
 Red. masses --      1.5151                 1.2815                 2.0803
 Frc consts  --      0.7773                 0.6924                 1.1426
 IR Inten    --      1.6884                 0.5365                10.6306

                     37                     38                     39
                      A                      A                      A
 Frequencies --    990.2469              1029.9112              1043.7840
 Red. masses --      1.3245                 1.2918                 2.0297
 Frc consts  --      0.7652                 0.8073                 1.3029
 IR Inten    --      0.1296                 1.5904               118.6226

                     40                     41                     42
                      A                      A                      A
 Frequencies --   1118.8727              1133.0724              1137.7207
 Red. masses --      2.6926                 2.1655                 2.7742
 Frc consts  --      1.9860                 1.6381                 2.1157
 IR Inten    --     24.9379                42.0871                 1.0393

                     43                     44                     45
                      A                      A                      A
 Frequencies --   1189.8561              1198.3833              1198.5172
 Red. masses --      1.3082                 1.8662                 2.9759
 Frc consts  --      1.0912                 1.5791                 2.5186
 IR Inten    --      1.4390                 4.0210                21.8285

                     46                     47                     48
                      A                      A                      A
 Frequencies --   1202.8851              1230.2064              1237.8157
 Red. masses --      1.7217                 1.9768                 2.0504
 Frc consts  --      1.4678                 1.7627                 1.8510
 IR Inten    --     12.1758                92.7471                96.5801

                     49                     50                     51
                      A                      A                      A
 Frequencies --   1297.3287              1330.8475              1349.5898
 Red. masses --      2.9802                 1.8348                 1.5455
 Frc consts  --      2.9552                 1.9146                 1.6585
 IR Inten    --     93.9300                38.1672                 1.4974

                     52                     53                     54
                      A                      A                      A
 Frequencies --   1392.6155              1420.1971              1421.4463
 Red. masses --      1.2431                 1.7936                 1.2515
 Frc consts  --      1.4204                 2.1314                 1.4899
 IR Inten    --      2.0693                54.2968                14.3762

                     55                     56                     57
                      A                      A                      A
 Frequencies --   1436.1717              1445.7488              1456.4513
 Red. masses --      1.2100                 1.4059                 1.2220
 Frc consts  --      1.4705                 1.7314                 1.5273
 IR Inten    --      3.6800                10.6593                 4.1934

                     58                     59                     60
                      A                      A                      A
 Frequencies --   1501.3355              1512.4931              1515.8552
 Red. masses --      1.1153                 1.0551                 1.0556
 Frc consts  --      1.4812                 1.4222                 1.4291
 IR Inten    --      2.2039                 0.0263                 3.2586

                     61                     62                     63
                      A                      A                      A
 Frequencies --   1518.3470              1522.9977              1529.1089
 Red. masses --      1.0500                 1.0564                 1.0497
 Frc consts  --      1.4262                 1.4437                 1.4460
 IR Inten    --      1.5706                 1.3889                 2.0553

                     64                     65                     66
                      A                      A                      A
 Frequencies --   1535.7972              1538.1186              1540.6462
 Red. masses --      1.0482                 1.0580                 1.0572
 Frc consts  --      1.4567                 1.4748                 1.4785
 IR Inten    --      0.6898                 4.6189                10.9113

                     67                     68                     69
                      A                      A                      A
 Frequencies --   1547.1609              1551.4517              1674.0580
 Red. masses --      1.0613                 1.0584                 2.6284
 Frc consts  --      1.4968                 1.5010                 4.3399
 IR Inten    --      5.1256                11.0590               150.3095

                     70                     71                     72
                      A                      A                      A
 Frequencies --   1707.8599              1719.7558              3015.2929
 Red. masses --      1.9643                 4.1937                 1.0385
 Frc consts  --      3.3756                 7.3076                 5.5631
 IR Inten    --    341.3973                32.8457                59.0311

                     73                     74                     75
                      A                      A                      A
 Frequencies --   3051.5138              3054.7677              3057.5482
 Red. masses --      1.0370                 1.0382                 1.0389
 Frc consts  --      5.6895                 5.7080                 5.7223
 IR Inten    --     26.6922                27.7508                10.0891

                     76                     77                     78
                      A                      A                      A
 Frequencies --   3065.2604              3072.6648              3074.0612
 Red. masses --      1.0441                 1.0912                 1.0853
 Frc consts  --      5.7802                 6.0698                 6.0428
 IR Inten    --     23.9228                56.9312                 3.5220

                     79                     80                     81
                      A                      A                      A
 Frequencies --   3114.8645              3116.9021              3120.5483
 Red. masses --      1.1005                 1.1003                 1.0977
 Frc consts  --      6.2911                 6.2981                 6.2976
 IR Inten    --     16.8979                52.3302                21.2983

                     82                     83                     84
                      A                      A                      A
 Frequencies --   3121.6423              3136.9163              3138.7684
 Red. masses --      1.1012                 1.1019                 1.0987
 Frc consts  --      6.3224                 6.3885                 6.3776
 IR Inten    --     22.3100                31.7882                24.1108

                     85                     86                     87
                      A                      A                      A
 Frequencies --   3141.9033              3145.2292              3150.7665
 Red. masses --      1.0993                 1.1036                 1.1024
 Frc consts  --      6.3934                 6.4323                 6.4480
 IR Inten    --     17.6567                26.4099                13.4675

                     88                     89                     90
                      A                      A                      A
 Frequencies --   3249.2360              3603.7108              3711.9551
 Red. masses --      1.0859                 1.0495                 1.0952
 Frc consts  --      6.7545                 8.0302                 8.8909
 IR Inten    --      1.4847                16.9171                42.0744

 - Thermochemistry -
 -------------------
 Temperature   298.150 Kelvin.  Pressure   1.00000 Atm.
 Atom     1 has atomic number  6 and mass  12.00000

 Molecular mass:   185.14158 amu.
 Principal axes and moments of inertia in atomic units:
                           1         2         3
     Eigenvalues --  1367.028314057.353504606.61078
           X            0.99982   0.01883   0.00338
           Y           -0.01888   0.99971   0.01503
           Z           -0.00310  -0.01509   0.99988
 This molecule is an asymmetric top.
 Rotational symmetry number  1.
 Warning -- assumption of classical behavior for rotation
           may cause significant error
 Rotational temperatures (Kelvin)      0.06336     0.02135     0.01880
 Rotational constants (GHZ):           1.32019     0.44481     0.39177
 Zero-point vibrational energy     744540.2 (Joules/Mol)
                                  177.94937 (Kcal/Mol)
 Warning -- explicit consideration of  25 degrees of freedom as
           vibrations may cause significant error
 Vibrational temperatures:     15.78    37.89   141.84   164.19   182.18
          (Kelvin)            211.03   233.11   268.42   300.98   306.80
                              324.81   348.27   395.41   428.50   432.62
                              477.86   491.93   536.52   547.72   619.46
                              627.49   650.07   739.00   796.50   829.98
                              895.82  1007.44  1062.91  1067.63  1110.47
                             1271.57  1304.38  1308.47  1342.61  1377.78
                             1389.18  1424.74  1481.81  1501.77  1609.81
                             1630.24  1636.93  1711.94  1724.21  1724.40
                             1730.68  1769.99  1780.94  1866.57  1914.79
                             1941.76  2003.66  2043.35  2045.14  2066.33
                             2080.11  2095.51  2160.09  2176.14  2180.98
                             2184.56  2191.25  2200.05  2209.67  2213.01
                             2216.65  2226.02  2232.19  2408.60  2457.23
                             2474.35  4338.33  4390.45  4395.13  4399.13
                             4410.23  4420.88  4422.89  4481.60  4484.53
                             4489.77  4491.35  4513.32  4515.99  4520.50
                             4525.28  4533.25  4674.93  5184.94  5340.68

 Zero-point correction=                           0.283580 (Hartree/Particle)
 Thermal correction to Energy=                    0.299641
 Thermal correction to Enthalpy=                  0.300585
 Thermal correction to Gibbs Free Energy=         0.239612
 Sum of electronic and zero-point Energies=           -597.440069
 Sum of electronic and thermal Energies=              -597.424008
 Sum of electronic and thermal Enthalpies=            -597.423064
 Sum of electronic and thermal Free Energies=         -597.484037

                     E (Thermal)             CV                S
                      KCal/Mol        Cal/Mol-Kelvin    Cal/Mol-Kelvin
 Total                  188.028             59.211            128.329
 Electronic               0.000              0.000              0.000
 Translational            0.889              2.981             41.554
 Rotational               0.889              2.981             31.614
 Vibrational            186.250             53.250             55.161
 Vibration     1          0.593              1.987              7.827
 Vibration     2          0.593              1.985              6.088
 Vibration     3          0.604              1.950              3.482
 Vibration     4          0.607              1.938              3.198
 Vibration     5          0.611              1.927              2.997
 Vibration     6          0.617              1.906              2.715
 Vibration     7          0.622              1.889              2.526
 Vibration     8          0.632              1.858              2.262
 Vibration     9          0.642              1.827              2.051
 Vibration    10          0.644              1.821              2.016
 Vibration    11          0.650              1.802              1.912
 Vibration    12          0.658              1.776              1.788
 Vibration    13          0.677              1.720              1.566
 Vibration    14          0.691              1.678              1.429
 Vibration    15          0.693              1.672              1.413
 Vibration    16          0.714              1.611              1.250
 Vibration    17          0.721              1.592              1.203
 Vibration    18          0.744              1.528              1.068
 Vibration    19          0.750              1.511              1.036
 Vibration    20          0.792              1.404              0.857
 Vibration    21          0.797              1.391              0.839
 Vibration    22          0.810              1.357              0.790
 Vibration    23          0.869              1.220              0.625
 Vibration    24          0.909              1.132              0.537
 Vibration    25          0.933              1.081              0.491

 Optimization completed.
    -- Stationary point found.
 Normal termination of Gaussian 16 at Wed Dec  9 23:31:00 2020.

 ----------------------------------------------------------------------
 # B3LYP/6-311++G(d,p) empiricaldispersion=gd3bj scf=xqc pop=npa geom=c
 heck
 ----------------------------------------------------------------------

 --------------------------------------
 CID_13719524_JID_3194_Energie_neutraal
 --------------------------------------
 Structure from the checkpoint file:  "JID_3194.chk"
 Charge =  0 Multiplicity = 1

 SCF Done:  E(RB3LYP) =  -597.905221745     A.U. after   16 cycles
 Normal termination of Gaussian 16 at Wed Dec  9 23:35:58 2020.

 ----------------------------------------------------------------------
 # B3LYP/6-311++G(d,p) empiricaldispersion=gd3bj scf=xqc pop=npa geom=c
 heck
 ----------------------------------------------------------------------

 ------------------------------------
 CID_13719524_JID_3194_Energie_kation
 ------------------------------------
 Structure from the checkpoint file:  "JID_3194.chk"
 Charge =  1 Multiplicity = 2

 SCF Done:  E(UB3LYP) =  -597.607665096     A.U. after   30 cycles
 Normal termination of Gaussian 16 at Wed Dec  9 23:49:24 2020.
 Gaussian 16:  ES64L-G16RevA.03 25-Dec-2016

 ----------------------------------------------------------------------
 # B3LYP/6-311++G(d,p) empiricaldispersion=gd3bj scf=xqc pop=npa geom=c
 heck
 ----------------------------------------------------------------------

 -----------------------------------
 CID_13719524_JID_3194_Energie_anion
 -----------------------------------
 Structure from the checkpoint file:  "JID_3194.chk"
 Charge = -1 Multiplicity = 2

                         Standard orientation:
 ---------------------------------------------------------------------
 Center     Atomic      Atomic             Coordinates (Angstroms)
 Number     Number       Type             X           Y           Z
 ---------------------------------------------------------------------
      1          6           0       -3.094781   -0.681987   -1.291705
      2          6           0       -2.973955    0.124711    0.014117
      3          6           0       -3.016754   -0.714709    1.303944
      4          6           0       -1.802603    1.120866   -0.012471
      5          8           0       -2.085831    2.319061   -0.011248
      6          6           0       -0.374828    0.764078   -0.033801
      7          6           0        0.328853   -0.397882   -0.041628
      8          6           0        1.871903   -0.357597   -0.002119
      9          6           0        2.317752   -0.719316    1.426698
     10          6           0        2.484819   -1.326251   -1.034904
     11          8           0        2.249553    0.970313   -0.366689
     12          6           0        3.559978    1.391900   -0.048680
     13          7           0       -0.168000   -1.686647    0.044620
     14          1           0       -2.220449   -1.299300   -1.524896
     15          1           0       -3.227797   -0.001281   -2.139060
     16          1           0       -3.966546   -1.345168   -1.250068
     17          1           0       -3.846690    0.784781    0.044008
     18          1           0       -2.132533   -1.338285    1.462132
     19          1           0       -3.099378   -0.053071    2.172749
     20          1           0       -3.895306   -1.370844    1.298196
     21          1           0        0.236395    1.656174   -0.044959
     22          1           0        1.870289   -1.669958    1.727308
     23          1           0        3.406033   -0.816377    1.495248
     24          1           0        1.982134    0.051242    2.126957
     25          1           0        2.060551   -1.144430   -2.026584
     26          1           0        3.565526   -1.167288   -1.090740
     27          1           0        2.345092   -2.379802   -0.768220
     28          1           0        3.714988    1.499641    1.032709
     29          1           0        4.333447    0.720092   -0.448566
     30          1           0        3.678303    2.371292   -0.518096
     31          1           0       -1.146165   -1.813753   -0.157994
     32          1           0        0.406022   -2.415013   -0.355675
 ---------------------------------------------------------------------

 SCF Done:  E(UB3LYP) =  -597.898069235     A.U. after   33 cycles
 SCF Done:  E(UB3LYP) =  -597.898069235     a.u. after    1 cycles

 The electronic state is 2-A.
 Alpha  occ. eigenvalues --  -19.02462 -18.97316 -14.22089 -10.14183 -10.12782
 Alpha  occ. eigenvalues --  -10.11454 -10.11436 -10.07772 -10.06842 -10.06813
 Alpha  occ. eigenvalues --  -10.06239 -10.06233 -10.03786  -0.94102  -0.90693
 Alpha  occ. eigenvalues --   -0.82444  -0.69863  -0.69249  -0.64005  -0.60062
 Alpha  occ. eigenvalues --   -0.59678  -0.58994  -0.53339  -0.51131  -0.45629
 Alpha  occ. eigenvalues --   -0.44000  -0.42609  -0.38306  -0.37282  -0.36570
 Alpha  occ. eigenvalues --   -0.35789  -0.34731  -0.32889  -0.32644  -0.31753
 Alpha  occ. eigenvalues --   -0.31297  -0.30285  -0.30030  -0.29634  -0.28697
 Alpha  occ. eigenvalues --   -0.26789  -0.26111  -0.25870  -0.25241  -0.24057
 Alpha  occ. eigenvalues --   -0.22865  -0.22487  -0.20970  -0.16279  -0.12609
 Alpha  occ. eigenvalues --   -0.11461   0.04138
 Alpha virt. eigenvalues --    0.06269   0.06491   0.07503   0.08465   0.09154
 Alpha virt. eigenvalues --    0.09467   0.09763   0.10633   0.11160   0.11320
 Alpha virt. eigenvalues --    0.12050   0.12539   0.12872   0.12986   0.14460

  Beta  occ. eigenvalues --  -19.02460 -18.97206 -14.22027 -10.14187 -10.12707
  Beta  occ. eigenvalues --  -10.11404 -10.11351 -10.07776 -10.06834 -10.06772
  Beta  occ. eigenvalues --  -10.06193 -10.06192 -10.03805  -0.94092  -0.90495
  Beta  occ. eigenvalues --   -0.82328  -0.69818  -0.69187  -0.63916  -0.59994
  Beta  occ. eigenvalues --   -0.59631  -0.58915  -0.53160  -0.51066  -0.45526
  Beta  occ. eigenvalues --   -0.43926  -0.42506  -0.38263  -0.37235  -0.36520
  Beta  occ. eigenvalues --   -0.35748  -0.34673  -0.32772  -0.32548  -0.31688
  Beta  occ. eigenvalues --   -0.31220  -0.30241  -0.29983  -0.29583  -0.28643
  Beta  occ. eigenvalues --   -0.26602  -0.26041  -0.25808  -0.25171  -0.23857
  Beta  occ. eigenvalues --   -0.22739  -0.22281  -0.20939  -0.16254  -0.12518
  Beta  occ. eigenvalues --   -0.11197
  Beta virt. eigenvalues --    0.06639   0.07093   0.07245   0.08395   0.08809
  Beta virt. eigenvalues --    0.09670   0.09833   0.09962   0.11022   0.11383
  Beta virt. eigenvalues --    0.11691   0.12245   0.12746   0.13081   0.13245

 Mulliken charges and spin densities:
               1          2
     1  C    0.206180  -0.800718
     2  C   -0.058858   0.489434
     3  C   -0.396365  -0.215812
     4  C   -0.452524  -0.126992
     5  O   -0.299402   0.034514
     6  C    0.674769  -0.500121
     7  C    0.103655  -0.210913
     8  C   -1.954969   1.909101
     9  C    0.719020  -1.291092
    10  C    1.214010  -1.706446
    11  O   -0.092321   0.016969
    12  C    0.514505  -0.765652
    13  N   -0.320369   0.055157
    14  H   -0.220061   0.340454
    15  H    0.082453   0.067431
    16  H   -0.156175   0.302121
    17  H    0.192957   0.020807
    18  H    0.081285   0.051516
    19  H    0.121115   0.020002
    20  H    0.072943   0.063616
    21  H    0.311119  -0.025055
    22  H   -0.013865   0.191697
    23  H   -0.451441   0.632862
    24  H    0.145844   0.024779
    25  H    0.047442   0.143654
    26  H   -0.168500   0.311781
    27  H   -0.575402   0.712629
    28  H   -0.116019   0.274392
    29  H   -0.250085   0.374244
    30  H    0.082571   0.057102
    31  H    0.032489   0.200204
    32  H   -0.076002   0.348338
 Sum of Mulliken charges =  -1.00000   1.00000

 Dipole moment (field-independent basis, Debye):
    X=             -2.8230    Y=              1.6447    Z=              1.2655  Tot=              3.5037
 Quadrupole moment (field-independent basis, Debye-Ang):
   XX=           -144.0566   YY=           -133.7588   ZZ=           -108.5114
   XY=             12.4627   XZ=             -5.3773   YZ=             -4.0314

 Summary of Natural Population Analysis:

                                       Natural Population
                Natural  -----------------------------------------------
    Atom  No    Charge         Core      Valence    Rydberg      Total
 -----------------------------------------------------------------------
      C    1   -0.28333      0.99964     2.27812    0.00557     3.28333
      C    2   -0.15180      0.99958     2.14221    0.01002     3.15180
      C    3   -0.28692      0.99964     2.28192    0.00536     3.28692
      C    4    0.27512      0.99960     1.70412    0.02117     2.72488
      O    5   -0.29814      0.99988     3.29203    0.00623     4.29814
      C    6   -0.20693      0.99943     2.19732    0.01018     3.20693
      C    7    0.13886      0.99944     1.84673    0.01496     2.86114
      C    8    0.12704      0.99949     1.85629    0.01719     2.87296
      C    9   -0.29878      0.99961     2.29290    0.00628     3.29878
      C   10   -0.29832      0.99961     2.29093    0.00779     3.29832
      O   11   -0.30516      0.99987     3.29481    0.01048     4.30516
      C   12   -0.09784      0.99959     2.08916    0.00909     3.09784
      N   13   -0.39784      0.99969     2.88731    0.01084     3.89784
      H   14    0.09504      0.00000     0.40358    0.00137     0.40496
      H   15    0.10323      0.00000     0.39588    0.00089     0.39677
      H   16    0.09767      0.00000     0.40132    0.00101     0.40233
      H   17    0.10303      0.00000     0.39481    0.00216     0.39697
      H   18    0.10140      0.00000     0.39734    0.00126     0.39860
      H   19    0.10098      0.00000     0.39827    0.00076     0.39902
      H   20    0.09562      0.00000     0.40356    0.00082     0.40438
      H   21    0.12033      0.00000     0.37745    0.00222     0.37967
      H   22    0.10952      0.00000     0.38923    0.00124     0.39048
      H   23    0.10340      0.00000     0.39497    0.00163     0.39660
      H   24    0.10458      0.00000     0.39449    0.00093     0.39542
      H   25    0.10562      0.00000     0.39314    0.00123     0.39438
      H   26    0.10448      0.00000     0.39421    0.00132     0.39552
      H   27    0.10099      0.00000     0.39681    0.00220     0.39901
      H   28    0.08074      0.00000     0.41803    0.00123     0.41926
      H   29    0.08002      0.00000     0.41854    0.00145     0.41998
      H   30    0.09013      0.00000     0.40908    0.00079     0.40987
      H   31    0.19151      0.00000     0.30614    0.00235     0.30849
      H   32    0.19578      0.00000     0.29942    0.00480     0.30422
 =======================================================================
   * Total *   -0.00000     12.99508    37.84011    0.16481    51.00000

 Normal termination of Gaussian 16 at Thu Dec 10 00:03:59 2020.
