 Gaussian 16, Revision A.03,

 -----------------------------------------------------------
 # opt freq B3LYP/6-31G(d) empiricaldispersion=gd3bj scf=xqc
 -----------------------------------------------------------

 ---------------------------
 CID_316238_JID_405_neutraal
 ---------------------------
 Symbolic Z-matrix:
 Charge =  0 Multiplicity = 1

 SCF Done:  E(RB3LYP) =  -931.535414948     A.U. after   14 cycles
 SCF Done:  E(RB3LYP) =  -931.526035456     A.U. after   14 cycles
 SCF Done:  E(RB3LYP) =  -931.538642456     A.U. after   13 cycles
 SCF Done:  E(RB3LYP) =  -931.540743961     A.U. after   13 cycles
 SCF Done:  E(RB3LYP) =  -931.540804219     A.U. after   13 cycles
 SCF Done:  E(RB3LYP) =  -931.542166971     A.U. after   12 cycles
 SCF Done:  E(RB3LYP) =  -931.541943296     A.U. after   12 cycles
 SCF Done:  E(RB3LYP) =  -931.542496287     A.U. after   12 cycles
 SCF Done:  E(RB3LYP) =  -931.541703220     A.U. after   12 cycles
 SCF Done:  E(RB3LYP) =  -931.542569797     A.U. after   11 cycles
 SCF Done:  E(RB3LYP) =  -931.542584934     A.U. after   10 cycles
 SCF Done:  E(RB3LYP) =  -931.542586814     A.U. after    9 cycles
 SCF Done:  E(RB3LYP) =  -931.542588354     A.U. after    9 cycles
 SCF Done:  E(RB3LYP) =  -931.542588727     A.U. after    9 cycles
 Optimization completed.
    -- Stationary point found.
 Normal termination of Gaussian 16 at Tue Dec  8 10:33:04 2020.

 --------------------------------------------------------------------
 #N Geom=AllCheck Guess=TCheck SCRF=Check GenChk RB3LYP/6-31G(d) Freq
 --------------------------------------------------------------------

 Structure from the checkpoint file:  "JID_405.chk"
 ---------------------------
 CID_316238_JID_405_neutraal
 ---------------------------
 Charge =  0 Multiplicity = 1

 SCF Done:  E(RB3LYP) =  -931.542588727     A.U. after    1 cycles

  Exact polarizability:  82.850  -0.514  65.329  -1.864  -2.391  63.567
 Approx polarizability: 116.133  -2.303  98.594  -7.032  -5.019 105.563

                      1                      2                      3
                      A                      A                      A
 Frequencies --     39.5298                93.6543               132.1771
 Red. masses --      6.3777                12.4282                 3.8033
 Frc consts  --      0.0059                 0.0642                 0.0391
 IR Inten    --      0.6968                 1.7650                 1.1066

                      4                      5                      6
                      A                      A                      A
 Frequencies --    198.0060               221.9457               242.0747
 Red. masses --      5.6321                 4.4348                 1.3674
 Frc consts  --      0.1301                 0.1287                 0.0472
 IR Inten    --      1.0139                 3.0152                 1.5574

                      7                      8                      9
                      A                      A                      A
 Frequencies --    258.6613               290.4022               329.9676
 Red. masses --      2.7891                 4.4216                 4.2335
 Frc consts  --      0.1099                 0.2197                 0.2716
 IR Inten    --      5.3320                 2.0995                 4.5981

                     10                     11                     12
                      A                      A                      A
 Frequencies --    388.6706               432.3329               469.3228
 Red. masses --      3.5341                 6.8893                 5.6384
 Frc consts  --      0.3146                 0.7587                 0.7317
 IR Inten    --      6.2030                18.9722                 3.2771

                     13                     14                     15
                      A                      A                      A
 Frequencies --    517.8086               531.3080               568.2885
 Red. masses --      3.4906                 2.4844                 4.2959
 Frc consts  --      0.5514                 0.4132                 0.8174
 IR Inten    --     40.4842                10.4288                28.6856

                     16                     17                     18
                      A                      A                      A
 Frequencies --    646.2366               684.1346               696.4707
 Red. masses --      2.1967                 1.9395                 1.4302
 Frc consts  --      0.5405                 0.5348                 0.4087
 IR Inten    --     10.6238               109.8180               176.5027

                     19                     20                     21
                      A                      A                      A
 Frequencies --    730.6140               826.4380               864.6966
 Red. masses --      2.8659                 7.4368                 3.6853
 Frc consts  --      0.9013                 2.9927                 1.6235
 IR Inten    --     34.3464               122.1386                52.6600

                     22                     23                     24
                      A                      A                      A
 Frequencies --    911.9280               954.2139              1044.8540
 Red. masses --      2.2333                 2.0124                 1.4263
 Frc consts  --      1.0943                 1.0796                 0.9174
 IR Inten    --      5.2888                10.1034                 7.0377

                     25                     26                     27
                      A                      A                      A
 Frequencies --   1123.3682              1142.6109              1153.3565
 Red. masses --      1.9840                 3.0563                 3.0393
 Frc consts  --      1.4752                 2.3509                 2.3820
 IR Inten    --     44.4850                87.7245                59.1309

                     28                     29                     30
                      A                      A                      A
 Frequencies --   1201.4606              1267.5368              1293.1767
 Red. masses --      2.1522                 1.1962                 1.7608
 Frc consts  --      1.8304                 1.1324                 1.7349
 IR Inten    --    275.2801                16.4114               110.9017

                     31                     32                     33
                      A                      A                      A
 Frequencies --   1314.1130              1340.3660              1361.8097
 Red. masses --      1.5829                 1.5921                 1.4407
 Frc consts  --      1.6106                 1.6852                 1.5741
 IR Inten    --     28.2286                13.1029                12.8241

                     34                     35                     36
                      A                      A                      A
 Frequencies --   1387.7263              1442.2552              1455.9384
 Red. masses --      2.2952                 1.3625                 1.6931
 Frc consts  --      2.6042                 1.6698                 2.1146
 IR Inten    --    247.9317                 6.8572                43.6133

                     37                     38                     39
                      A                      A                      A
 Frequencies --   1480.6564              1524.5415              1533.9070
 Red. masses --      1.2060                 1.0447                 1.0459
 Frc consts  --      1.5578                 1.4306                 1.4499
 IR Inten    --     25.8157                 5.7500                15.1508

                     40                     41                     42
                      A                      A                      A
 Frequencies --   1804.3429              3069.9583              3075.1562
 Red. masses --      8.8656                 1.0396                 1.0632
 Frc consts  --     17.0059                 5.7729                 5.9239
 IR Inten    --    272.5409                12.8945                 9.8652

                     43                     44                     45
                      A                      A                      A
 Frequencies --   3087.1595              3121.2892              3142.7637
 Red. masses --      1.0825                 1.1008                 1.0984
 Frc consts  --      6.0785                 6.3189                 6.3922
 IR Inten    --      0.5203                 2.3926                 9.3569

                     46                     47                     48
                      A                      A                      A
 Frequencies --   3166.2153              3391.3921              3674.5501
 Red. masses --      1.1037                 1.0665                 1.0640
 Frc consts  --      6.5192                 7.2274                 8.4644
 IR Inten    --      6.2415               532.8737                67.8374

 - Thermochemistry -
 -------------------
 Temperature   298.150 Kelvin.  Pressure   1.00000 Atm.
 Atom     1 has atomic number  6 and mass  12.00000

 Molecular mass:   168.00925 amu.
 Principal axes and moments of inertia in atomic units:
                           1         2         3
     Eigenvalues --   868.050982210.656402367.32656
           X            0.99997  -0.00522  -0.00549
           Y            0.00526   0.99996   0.00682
           Z            0.00545  -0.00685   0.99996
 This molecule is an asymmetric top.
 Rotational symmetry number  1.
 Warning -- assumption of classical behavior for rotation
           may cause significant error
 Rotational temperatures (Kelvin)      0.09978     0.03918     0.03659
 Rotational constants (GHZ):           2.07907     0.81638     0.76235
 Zero-point vibrational energy     356662.9 (Joules/Mol)
                                   85.24449 (Kcal/Mol)
 Warning -- explicit consideration of  15 degrees of freedom as
           vibrations may cause significant error
 Vibrational temperatures:     56.87   134.75   190.17   284.89   319.33
          (Kelvin)            348.29   372.16   417.82   474.75   559.21
                              622.03   675.25   745.01   764.43   817.64
                              929.79   984.32  1002.07  1051.19  1189.06
                             1244.11  1312.06  1372.90  1503.31  1616.28
                             1643.96  1659.42  1728.63  1823.70  1860.59
                             1890.72  1928.49  1959.34  1996.63  2075.08
                             2094.77  2130.33  2193.48  2206.95  2596.05
                             4416.99  4424.46  4441.73  4490.84  4521.74
                             4555.48  4879.46  5286.86

 Zero-point correction=                           0.135846 (Hartree/Particle)
 Thermal correction to Energy=                    0.146174
 Thermal correction to Enthalpy=                  0.147118
 Thermal correction to Gibbs Free Energy=         0.099654
 Sum of electronic and zero-point Energies=           -931.406743
 Sum of electronic and thermal Energies=              -931.396414
 Sum of electronic and thermal Enthalpies=            -931.395470
 Sum of electronic and thermal Free Energies=         -931.442935

                     E (Thermal)             CV                S
                      KCal/Mol        Cal/Mol-Kelvin    Cal/Mol-Kelvin
 Total                   91.726             37.994             99.898
 Electronic               0.000              0.000              0.000
 Translational            0.889              2.981             41.265
 Rotational               0.889              2.981             29.897
 Vibrational             89.948             32.032             28.736
 Vibration     1          0.594              1.981              5.283
 Vibration     2          0.603              1.954              3.582
 Vibration     3          0.612              1.921              2.914
 Vibration     4          0.637              1.843              2.152
 Vibration     5          0.648              1.808              1.943
 Vibration     6          0.658              1.776              1.788
 Vibration     7          0.667              1.748              1.671
 Vibration     8          0.686              1.692              1.472
 Vibration     9          0.713              1.616              1.260
 Vibration    10          0.757              1.494              1.005
 Vibration    11          0.793              1.400              0.851
 Vibration    12          0.826              1.318              0.739
 Vibration    13          0.873              1.211              0.615
 Vibration    14          0.886              1.181              0.584
 Vibration    15          0.924              1.100              0.508

 Optimization completed.
    -- Stationary point found.
 Normal termination of Gaussian 16 at Tue Dec  8 10:37:01 2020.

 ----------------------------------------------------------------------
 # B3LYP/6-311++G(d,p) empiricaldispersion=gd3bj scf=xqc pop=npa geom=c
 heck
 ----------------------------------------------------------------------

 -----------------------------------
 CID_316238_JID_405_Energie_neutraal
 -----------------------------------
 Structure from the checkpoint file:  "JID_405.chk"
 Charge =  0 Multiplicity = 1

 SCF Done:  E(RB3LYP) =  -931.745515433     A.U. after   15 cycles
 Normal termination of Gaussian 16 at Tue Dec  8 10:38:37 2020.

 ----------------------------------------------------------------------
 # B3LYP/6-311++G(d,p) empiricaldispersion=gd3bj scf=xqc pop=npa geom=c
 heck
 ----------------------------------------------------------------------

 ---------------------------------
 CID_316238_JID_405_Energie_kation
 ---------------------------------
 Structure from the checkpoint file:  "JID_405.chk"
 Charge =  1 Multiplicity = 2

 SCF Done:  E(UB3LYP) =  -931.349928954     A.U. after   33 cycles
 SCF Done:  E(UB3LYP) =  -931.349928955     a.u. after    2 cycles
 Normal termination of Gaussian 16 at Tue Dec  8 10:48:02 2020.
 Gaussian 16:  ES64L-G16RevA.03 25-Dec-2016

 ----------------------------------------------------------------------
 # B3LYP/6-311++G(d,p) empiricaldispersion=gd3bj scf=xqc pop=npa geom=c
 heck
 ----------------------------------------------------------------------

 --------------------------------
 CID_316238_JID_405_Energie_anion
 --------------------------------
 Structure from the checkpoint file:  "JID_405.chk"
 Charge = -1 Multiplicity = 2

                         Standard orientation:
 ---------------------------------------------------------------------
 Center     Atomic      Atomic             Coordinates (Angstroms)
 Number     Number       Type             X           Y           Z
 ---------------------------------------------------------------------
      1          6           0       -0.114318    2.037388    0.616562
      2          6           0       -0.201514    1.025060   -0.523760
      3          6           0        1.143811    0.471697   -1.007290
      4          6           0        1.995468   -0.222921    0.028579
      5          8           0        1.606990   -0.804056    1.029678
      6          8           0        3.297126   -0.174936   -0.290178
      7         16           0       -1.404684   -0.309762   -0.146333
      8          8           0       -2.735427    0.281524   -0.119928
      9          8           0       -1.089481   -1.434368   -1.029778
     10          8           0       -1.063697   -0.701255    1.386663
     11          1           0        0.354787    1.602740    1.502083
     12          1           0       -1.112360    2.386031    0.892218
     13          1           0        0.477437    2.900396    0.292830
     14          1           0       -0.680849    1.494435   -1.389958
     15          1           0        0.970078   -0.260484   -1.804990
     16          1           0        1.731592    1.285622   -1.442738
     17          1           0        3.776352   -0.690830    0.386980
     18          1           0       -0.106877   -0.964332    1.408700
 ---------------------------------------------------------------------

 SCF Done:  E(UB3LYP) =  -931.742276967     A.U. after   33 cycles
 SCF Done:  E(UB3LYP) =  -931.742276967     a.u. after    1 cycles

 The electronic state is 2-A.
 Alpha  occ. eigenvalues --  -88.97705 -19.07792 -19.06795 -19.03825 -19.02654
 Alpha  occ. eigenvalues --  -19.02642 -10.22787 -10.13256 -10.10432 -10.08077
 Alpha  occ. eigenvalues --   -8.03828  -6.00215  -6.00031  -5.99853  -1.05053
 Alpha  occ. eigenvalues --   -1.02697  -0.94407  -0.93417  -0.92037  -0.74188
 Alpha  occ. eigenvalues --   -0.64947  -0.58807  -0.54954  -0.50098  -0.45567
 Alpha  occ. eigenvalues --   -0.42787  -0.40834  -0.40683  -0.38476  -0.37603
 Alpha  occ. eigenvalues --   -0.35252  -0.34061  -0.32373  -0.31591  -0.30851
 Alpha  occ. eigenvalues --   -0.28177  -0.27728  -0.26971  -0.25642  -0.24160
 Alpha  occ. eigenvalues --   -0.22816  -0.21534  -0.21025  -0.20525   0.04136
 Alpha virt. eigenvalues --    0.06711   0.07320   0.08823   0.09602   0.10899
 Alpha virt. eigenvalues --    0.11599   0.12799   0.12981   0.14267   0.15080
 Alpha virt. eigenvalues --    0.15404   0.16652   0.17255   0.17535   0.17657

  Beta  occ. eigenvalues --  -88.97703 -19.07698 -19.06780 -19.03791 -19.02648
  Beta  occ. eigenvalues --  -19.02639 -10.22763 -10.13241 -10.10374 -10.08037
  Beta  occ. eigenvalues --   -8.03825  -6.00210  -6.00029  -5.99848  -1.05032
  Beta  occ. eigenvalues --   -1.02578  -0.94347  -0.93338  -0.92028  -0.74130
  Beta  occ. eigenvalues --   -0.64827  -0.58749  -0.54857  -0.49972  -0.45518
  Beta  occ. eigenvalues --   -0.42714  -0.40795  -0.40600  -0.38445  -0.37523
  Beta  occ. eigenvalues --   -0.35174  -0.34006  -0.32310  -0.31515  -0.30783
  Beta  occ. eigenvalues --   -0.28115  -0.27668  -0.26953  -0.25626  -0.24039
  Beta  occ. eigenvalues --   -0.22803  -0.21500  -0.21013  -0.20473
  Beta virt. eigenvalues --    0.07189   0.07622   0.08713   0.09421   0.10105
  Beta virt. eigenvalues --    0.11708   0.11914   0.13189   0.13358   0.14293
  Beta virt. eigenvalues --    0.15331   0.15744   0.16840   0.17287   0.17759

 Mulliken charges and spin densities:
               1          2
     1  C    0.673899  -1.215957
     2  C   -1.698747   1.406435
     3  C    2.598943  -2.974183
     4  C   -0.495236   0.542753
     5  O   -0.264333  -0.051703
     6  O   -0.167828   0.052245
     7  S    0.851514  -0.598870
     8  O   -0.229949   0.010662
     9  O   -0.196748   0.000838
    10  O   -0.167015  -0.024610
    11  H    0.126139   0.042033
    12  H   -0.023475   0.199361
    13  H   -0.493756   0.651395
    14  H   -0.189897   0.492727
    15  H   -0.206395   0.456803
    16  H   -0.461526   0.712774
    17  H   -0.887158   1.194749
    18  H    0.231569   0.102549
 Sum of Mulliken charges =  -1.00000   1.00000

 Dipole moment (field-independent basis, Debye):
    X=             -5.1169    Y=             -0.7245    Z=              1.5478  Tot=              5.3947
 Quadrupole moment (field-independent basis, Debye-Ang):
   XX=           -134.7289   YY=           -100.6515   ZZ=            -92.7022
   XY=             -0.1878   XZ=             -0.3970   YZ=              3.7435

 Summary of Natural Population Analysis:

                                       Natural Population
                Natural  -----------------------------------------------
    Atom  No    Charge         Core      Valence    Rydberg      Total
 -----------------------------------------------------------------------
      C    1   -0.29673      0.99963     2.28944    0.00767     3.29673
      C    2   -0.20178      0.99955     2.18571    0.01652     3.20178
      C    3   -0.25242      0.99954     2.24071    0.01217     3.25242
      C    4    0.42595      0.99970     1.54928    0.02507     2.57405
      O    5   -0.33200      0.99984     3.32459    0.00757     4.33200
      O    6   -0.32920      0.99987     3.32248    0.00684     4.32920
      S    7    1.12667      4.99932     1.76987    0.10414     6.87333
      O    8   -0.45757      0.99990     3.45173    0.00593     4.45757
      O    9   -0.45982      0.99990     3.45410    0.00582     4.45982
      O   10   -0.44657      0.99990     3.44055    0.00613     4.44657
      H   11    0.10752      0.00000     0.39132    0.00117     0.39248
      H   12    0.11053      0.00000     0.38839    0.00108     0.38947
      H   13    0.11037      0.00000     0.38783    0.00180     0.38963
      H   14    0.12231      0.00000     0.37591    0.00178     0.37769
      H   15    0.13458      0.00000     0.36358    0.00184     0.36542
      H   16    0.12714      0.00000     0.36949    0.00337     0.37286
      H   17    0.25229      0.00000     0.20162    0.04609     0.24771
      H   18    0.25874      0.00000     0.23696    0.00430     0.24126
 =======================================================================
   * Total *   -0.00000     13.99717    29.74356    0.25928    44.00000

 Normal termination of Gaussian 16 at Tue Dec  8 10:52:34 2020.
