 Gaussian 16, Revision A.03,

 -----------------------------------------------------------
 # opt freq B3LYP/6-31G(d) empiricaldispersion=gd3bj scf=xqc
 -----------------------------------------------------------

 ------------------------------
 CID_22157777_JID_3337_neutraal
 ------------------------------
 Symbolic Z-matrix:
 Charge =  0 Multiplicity = 1

 SCF Done:  E(RB3LYP) =  -618.840137865     A.U. after   14 cycles
 SCF Done:  E(RB3LYP) =  -618.842260301     A.U. after   12 cycles
 SCF Done:  E(RB3LYP) =  -618.840500626     A.U. after   12 cycles
 SCF Done:  E(RB3LYP) =  -618.842639264     A.U. after   12 cycles
 SCF Done:  E(RB3LYP) =  -618.843486268     A.U. after   12 cycles
 SCF Done:  E(RB3LYP) =  -618.843688929     A.U. after   11 cycles
 SCF Done:  E(RB3LYP) =  -618.843787617     A.U. after   10 cycles
 SCF Done:  E(RB3LYP) =  -618.843805506     A.U. after   10 cycles
 SCF Done:  E(RB3LYP) =  -618.843806981     A.U. after    9 cycles
 SCF Done:  E(RB3LYP) =  -618.843810223     A.U. after    9 cycles
 SCF Done:  E(RB3LYP) =  -618.843826886     A.U. after    9 cycles
 SCF Done:  E(RB3LYP) =  -618.843831141     A.U. after    9 cycles
 SCF Done:  E(RB3LYP) =  -618.843832255     A.U. after    8 cycles
 SCF Done:  E(RB3LYP) =  -618.843832453     A.U. after    6 cycles
 SCF Done:  E(RB3LYP) =  -618.843832578     A.U. after    7 cycles
 Optimization completed.
    -- Stationary point found.
 Normal termination of Gaussian 16 at Wed Dec  9 23:02:09 2020.

 --------------------------------------------------------------------
 #N Geom=AllCheck Guess=TCheck SCRF=Check GenChk RB3LYP/6-31G(d) Freq
 --------------------------------------------------------------------

 Structure from the checkpoint file:  "JID_3337.chk"
 ------------------------------
 CID_22157777_JID_3337_neutraal
 ------------------------------
 Charge =  0 Multiplicity = 1

 SCF Done:  E(RB3LYP) =  -618.843832578     A.U. after    1 cycles

  Exact polarizability: 126.564  -1.920 113.271   3.417   2.822  99.909
 Approx polarizability: 165.738  -5.528 159.475   2.381   5.424 146.327

                      1                      2                      3
                      A                      A                      A
 Frequencies --     28.9955                44.4619                55.1063
 Red. masses --      3.7238                 4.7164                 1.9632
 Frc consts  --      0.0018                 0.0055                 0.0035
 IR Inten    --      1.0506                 1.0003                 2.0598

                      4                      5                      6
                      A                      A                      A
 Frequencies --     71.5557                93.1263               100.8682
 Red. masses --      1.7908                 2.1479                 3.5298
 Frc consts  --      0.0054                 0.0110                 0.0212
 IR Inten    --      0.1310                 1.4694                 0.6750

                      7                      8                      9
                      A                      A                      A
 Frequencies --    189.2179               205.2061               225.6039
 Red. masses --      3.6577                 1.8274                 1.1991
 Frc consts  --      0.0772                 0.0453                 0.0360
 IR Inten    --      3.7740                 2.7279                 0.0670

                     10                     11                     12
                      A                      A                      A
 Frequencies --    233.6157               247.5068               258.9410
 Red. masses --      1.6424                 1.4349                 1.8596
 Frc consts  --      0.0528                 0.0518                 0.0735
 IR Inten    --      0.4630                 4.4771                 1.4869

                     13                     14                     15
                      A                      A                      A
 Frequencies --    275.9121               302.7508               307.0555
 Red. masses --      1.4319                 1.4258                 1.5048
 Frc consts  --      0.0642                 0.0770                 0.0836
 IR Inten    --      0.3150                21.8625                44.6890

                     16                     17                     18
                      A                      A                      A
 Frequencies --    318.9262               326.8464               369.6940
 Red. masses --      2.0042                 2.0300                 3.0226
 Frc consts  --      0.1201                 0.1278                 0.2434
 IR Inten    --     29.2849                 9.6652                 2.4988

                     19                     20                     21
                      A                      A                      A
 Frequencies --    392.3982               403.8651               435.8920
 Red. masses --      2.4989                 2.5837                 2.6261
 Frc consts  --      0.2267                 0.2483                 0.2940
 IR Inten    --     16.5350                 7.7125                 3.9514

                     22                     23                     24
                      A                      A                      A
 Frequencies --    491.0295               515.5572               521.4772
 Red. masses --      3.0564                 3.0442                 2.5045
 Frc consts  --      0.4342                 0.4767                 0.4013
 IR Inten    --     19.1016                 2.5556                 9.7296

                     25                     26                     27
                      A                      A                      A
 Frequencies --    582.4517               613.2515               650.5032
 Red. masses --      2.9362                 3.1226                 4.1987
 Frc consts  --      0.5869                 0.6919                 1.0468
 IR Inten    --      0.8707                 5.6508                 6.9574

                     28                     29                     30
                      A                      A                      A
 Frequencies --    765.9683               850.4292               865.6507
 Red. masses --      2.8777                 2.3813                 3.3731
 Frc consts  --      0.9947                 1.0147                 1.4892
 IR Inten    --      5.6302                 0.5956                24.8902

                     31                     32                     33
                      A                      A                      A
 Frequencies --    907.4241               934.2119               947.8661
 Red. masses --      2.5018                 1.9173                 1.2042
 Frc consts  --      1.2137                 0.9859                 0.6374
 IR Inten    --      0.2606                 6.0691                 0.8859

                     34                     35                     36
                      A                      A                      A
 Frequencies --    956.4509               972.2917               995.2064
 Red. masses --      1.5587                 1.5386                 1.5957
 Frc consts  --      0.8401                 0.8570                 0.9312
 IR Inten    --      8.0866                 6.4960                 5.1909

                     37                     38                     39
                      A                      A                      A
 Frequencies --   1006.3981              1028.5379              1044.8664
 Red. masses --      2.1465                 1.7475                 1.8562
 Frc consts  --      1.2809                 1.0892                 1.1940
 IR Inten    --      4.4153                40.2193                20.4838

                     40                     41                     42
                      A                      A                      A
 Frequencies --   1060.9309              1074.2120              1076.6984
 Red. masses --      2.3367                 2.3960                 2.1164
 Frc consts  --      1.5496                 1.6290                 1.4455
 IR Inten    --     46.1368                79.6398                65.1845

                     43                     44                     45
                      A                      A                      A
 Frequencies --   1130.2142              1140.4618              1198.1732
 Red. masses --      1.8232                 1.8654                 1.8061
 Frc consts  --      1.3722                 1.4295                 1.5276
 IR Inten    --      2.6283                 8.4846                 4.9576

                     46                     47                     48
                      A                      A                      A
 Frequencies --   1211.9305              1244.2986              1259.2207
 Red. masses --      2.1266                 2.1713                 2.7559
 Frc consts  --      1.8403                 1.9807                 2.5746
 IR Inten    --      2.7530                27.5526                93.2769

                     49                     50                     51
                      A                      A                      A
 Frequencies --   1271.3441              1286.0721              1334.9073
 Red. masses --      2.6406                 1.9284                 1.2820
 Frc consts  --      2.5146                 1.8792                 1.3460
 IR Inten    --    284.8699                22.6456                26.5148

                     52                     53                     54
                      A                      A                      A
 Frequencies --   1350.0840              1370.8888              1408.3861
 Red. masses --      1.3680                 1.4025                 1.3828
 Frc consts  --      1.4691                 1.5530                 1.6160
 IR Inten    --      5.0075                 8.3073                 1.3915

                     55                     56                     57
                      A                      A                      A
 Frequencies --   1414.1933              1424.5700              1428.4487
 Red. masses --      1.2606                 1.2601                 1.2289
 Frc consts  --      1.4854                 1.5067                 1.4774
 IR Inten    --      6.5266                 9.4003                12.3723

                     58                     59                     60
                      A                      A                      A
 Frequencies --   1432.1479              1435.9974              1450.7364
 Red. masses --      1.3874                 1.1997                 1.2235
 Frc consts  --      1.6766                 1.4576                 1.5171
 IR Inten    --     54.2524                12.6376                20.2322

                     61                     62                     63
                      A                      A                      A
 Frequencies --   1457.0852              1500.3956              1505.5179
 Red. masses --      1.2321                 1.0508                 1.0467
 Frc consts  --      1.5412                 1.3938                 1.3978
 IR Inten    --      3.8901                 9.6590                 8.6865

                     64                     65                     66
                      A                      A                      A
 Frequencies --   1509.6918              1518.1321              1520.7266
 Red. masses --      1.0587                 1.0479                 1.0499
 Frc consts  --      1.4216                 1.4230                 1.4305
 IR Inten    --      1.1753                 4.8884                 3.0661

                     67                     68                     69
                      A                      A                      A
 Frequencies --   1523.4531              1532.7033              1537.0458
 Red. masses --      1.0602                 1.0510                 1.0601
 Frc consts  --      1.4497                 1.4547                 1.4757
 IR Inten    --      7.3263                 4.8370                 7.3471

                     70                     71                     72
                      A                      A                      A
 Frequencies --   1541.7258              1542.2436              1559.4758
 Red. masses --      1.0525                 1.0573                 1.0586
 Frc consts  --      1.4739                 1.4816                 1.5169
 IR Inten    --      0.7536                17.8755                16.6093

                     73                     74                     75
                      A                      A                      A
 Frequencies --   1836.5416              2993.9120              3045.3851
 Red. masses --     10.5706                 1.0821                 1.0399
 Frc consts  --     21.0064                 5.7146                 5.6822
 IR Inten    --    220.6909                25.8138                21.9822

                     76                     77                     78
                      A                      A                      A
 Frequencies --   3046.9262              3053.5331              3065.1982
 Red. masses --      1.0359                 1.0370                 1.0381
 Frc consts  --      5.6660                 5.6970                 5.7465
 IR Inten    --     29.0822                22.5657                16.9417

                     79                     80                     81
                      A                      A                      A
 Frequencies --   3071.7657              3086.6638              3105.2489
 Red. masses --      1.0375                 1.0851                 1.1007
 Frc consts  --      5.7679                 6.0910                 6.2535
 IR Inten    --      2.0004                17.2538                17.3821

                     82                     83                     84
                      A                      A                      A
 Frequencies --   3107.1621              3113.1230              3117.4171
 Red. masses --      1.1001                 1.0944                 1.0762
 Frc consts  --      6.2575                 6.2491                 6.1621
 IR Inten    --     22.7245                68.6549                 7.8694

                     85                     86                     87
                      A                      A                      A
 Frequencies --   3119.1211              3127.5438              3131.2421
 Red. masses --      1.0989                 1.1012                 1.1002
 Frc consts  --      6.2990                 6.3464                 6.3556
 IR Inten    --     27.0320                18.5700                54.7309

                     88                     89                     90
                      A                      A                      A
 Frequencies --   3134.8854              3155.4610              3161.1573
 Red. masses --      1.0999                 1.0983                 1.0997
 Frc consts  --      6.3689                 6.4433                 6.4744
 IR Inten    --      6.3523                14.6750                24.6161

                     91                     92                     93
                      A                      A                      A
 Frequencies --   3184.8591              3185.6737              3723.5760
 Red. masses --      1.1034                 1.1002                 1.0655
 Frc consts  --      6.5943                 6.5785                 8.7044
 IR Inten    --      8.6142                17.3308                 6.4848

 - Thermochemistry -
 -------------------
 Temperature   298.150 Kelvin.  Pressure   1.00000 Atm.
 Atom     1 has atomic number  6 and mass  12.00000

 Molecular mass:   188.14124 amu.
 Principal axes and moments of inertia in atomic units:
                           1         2         3
     Eigenvalues --  1655.179353613.729674093.77220
           X            0.99984  -0.00255   0.01798
           Y            0.00207   0.99965   0.02656
           Z           -0.01804  -0.02652   0.99949
 This molecule is an asymmetric top.
 Rotational symmetry number  1.
 Warning -- assumption of classical behavior for rotation
           may cause significant error
 Rotational temperatures (Kelvin)      0.05233     0.02397     0.02116
 Rotational constants (GHZ):           1.09036     0.49941     0.44085
 Zero-point vibrational energy     773718.5 (Joules/Mol)
                                  184.92315 (Kcal/Mol)
 Warning -- explicit consideration of  26 degrees of freedom as
           vibrations may cause significant error
 Vibrational temperatures:     41.72    63.97    79.29   102.95   133.99
          (Kelvin)            145.13   272.24   295.25   324.59   336.12
                              356.11   372.56   396.98   435.59   441.78
                              458.86   470.26   531.91   564.57   581.07
                              627.15   706.48   741.77   750.29   838.02
                              882.33   935.93  1102.06  1223.58  1245.48
                             1305.58  1344.12  1363.77  1376.12  1398.91
                             1431.88  1447.98  1479.84  1503.33  1526.44
                             1545.55  1549.13  1626.13  1640.87  1723.90
                             1743.70  1790.27  1811.74  1829.18  1850.37
                             1920.63  1942.47  1972.40  2026.35  2034.71
                             2049.64  2055.22  2060.54  2066.08  2087.29
                             2096.42  2158.73  2166.10  2172.11  2184.25
                             2187.99  2191.91  2205.22  2211.47  2218.20
                             2218.94  2243.74  2642.37  4307.57  4381.63
                             4383.85  4393.35  4410.14  4419.59  4441.02
                             4467.76  4470.51  4479.09  4485.27  4487.72
                             4499.84  4505.16  4510.40  4540.00  4548.20
                             4582.30  4583.47  5357.40

 Zero-point correction=                           0.294694 (Hartree/Particle)
 Thermal correction to Energy=                    0.310809
 Thermal correction to Enthalpy=                  0.311753
 Thermal correction to Gibbs Free Energy=         0.251076
 Sum of electronic and zero-point Energies=           -618.549139
 Sum of electronic and thermal Energies=              -618.533023
 Sum of electronic and thermal Enthalpies=            -618.532079
 Sum of electronic and thermal Free Energies=         -618.592757

                     E (Thermal)             CV                S
                      KCal/Mol        Cal/Mol-Kelvin    Cal/Mol-Kelvin
 Total                  195.036             59.310            127.707
 Electronic               0.000              0.000              0.000
 Translational            0.889              2.981             41.602
 Rotational               0.889              2.981             31.571
 Vibrational            193.258             53.349             54.534
 Vibration     1          0.593              1.984              5.897
 Vibration     2          0.595              1.980              5.050
 Vibration     3          0.596              1.976              4.625
 Vibration     4          0.598              1.968              4.110
 Vibration     5          0.602              1.954              3.593
 Vibration     6          0.604              1.948              3.437
 Vibration     7          0.633              1.855              2.235
 Vibration     8          0.640              1.832              2.086
 Vibration     9          0.650              1.802              1.914
 Vibration    10          0.654              1.789              1.851
 Vibration    11          0.661              1.767              1.748
 Vibration    12          0.668              1.748              1.669
 Vibration    13          0.678              1.718              1.559
 Vibration    14          0.694              1.668              1.402
 Vibration    15          0.697              1.660              1.378
 Vibration    16          0.705              1.637              1.316
 Vibration    17          0.711              1.622              1.276
 Vibration    18          0.742              1.534              1.081
 Vibration    19          0.760              1.486              0.991
 Vibration    20          0.769              1.462              0.949
 Vibration    21          0.796              1.392              0.840
 Vibration    22          0.847              1.270              0.681
 Vibration    23          0.871              1.216              0.620
 Vibration    24          0.876              1.202              0.607
 Vibration    25          0.939              1.069              0.481
 Vibration    26          0.973              1.004              0.427

 Optimization completed.
    -- Stationary point found.
 Normal termination of Gaussian 16 at Wed Dec  9 23:11:32 2020.

 ----------------------------------------------------------------------
 # B3LYP/6-311++G(d,p) empiricaldispersion=gd3bj scf=xqc pop=npa geom=c
 heck
 ----------------------------------------------------------------------

 --------------------------------------
 CID_22157777_JID_3337_Energie_neutraal
 --------------------------------------
 Structure from the checkpoint file:  "JID_3337.chk"
 Charge =  0 Multiplicity = 1

 SCF Done:  E(RB3LYP) =  -619.034152215     A.U. after   14 cycles
 Normal termination of Gaussian 16 at Wed Dec  9 23:16:10 2020.

 ----------------------------------------------------------------------
 # B3LYP/6-311++G(d,p) empiricaldispersion=gd3bj scf=xqc pop=npa geom=c
 heck
 ----------------------------------------------------------------------

 ------------------------------------
 CID_22157777_JID_3337_Energie_kation
 ------------------------------------
 Structure from the checkpoint file:  "JID_3337.chk"
 Charge =  1 Multiplicity = 2

 SCF Done:  E(UB3LYP) =  -618.692132115     A.U. after   25 cycles
 Normal termination of Gaussian 16 at Wed Dec  9 23:27:13 2020.
 Gaussian 16:  ES64L-G16RevA.03 25-Dec-2016

 ----------------------------------------------------------------------
 # B3LYP/6-311++G(d,p) empiricaldispersion=gd3bj scf=xqc pop=npa geom=c
 heck
 ----------------------------------------------------------------------

 -----------------------------------
 CID_22157777_JID_3337_Energie_anion
 -----------------------------------
 Structure from the checkpoint file:  "JID_3337.chk"
 Charge = -1 Multiplicity = 2

                         Standard orientation:
 ---------------------------------------------------------------------
 Center     Atomic      Atomic             Coordinates (Angstroms)
 Number     Number       Type             X           Y           Z
 ---------------------------------------------------------------------
      1          6           0        1.749998   -1.472051    1.465027
      2          6           0        2.277764   -0.670941    0.264973
      3          6           0        3.049649   -1.615939   -0.671193
      4          6           0        1.206959    0.089107   -0.557316
      5          6           0        0.251191    1.086761    0.176506
      6          6           0        1.028426    2.057194    1.081905
      7          6           0       -0.515667    1.892607   -0.892294
      8          6           0       -0.788610    0.370350    1.057549
      9          8           0       -1.448779   -0.690492    0.333712
     10          6           0       -2.747476   -0.506709   -0.014581
     11          8           0       -3.401628    0.469890    0.272827
     12          6           0       -3.243080   -1.688259   -0.812341
     13          8           0        1.865914    0.763798   -1.639779
     14          1           0        0.875163   -2.071435    1.188251
     15          1           0        1.475660   -0.836211    2.310990
     16          1           0        2.524915   -2.160093    1.820923
     17          1           0        2.988487    0.080219    0.645753
     18          1           0        2.394590   -2.425414   -1.018463
     19          1           0        3.423309   -1.088298   -1.550799
     20          1           0        3.895147   -2.073926   -0.145785
     21          1           0        0.570846   -0.651220   -1.053453
     22          1           0        1.780155    2.611875    0.507867
     23          1           0        0.353494    2.798946    1.523573
     24          1           0        1.542090    1.540879    1.899958
     25          1           0       -1.039691    1.226452   -1.585534
     26          1           0       -1.261731    2.538923   -0.418740
     27          1           0        0.164851    2.505638   -1.484986
     28          1           0       -0.340305   -0.104048    1.927880
     29          1           0       -1.542768    1.084582    1.394058
     30          1           0       -2.698135   -1.746315   -1.760756
     31          1           0       -3.054460   -2.619417   -0.269544
     32          1           0       -4.309505   -1.574518   -1.008098
     33          1           0        2.518920    1.365106   -1.246574
 ---------------------------------------------------------------------

 SCF Done:  E(UB3LYP) =  -619.020653364     A.U. after   33 cycles
 SCF Done:  E(UB3LYP) =  -619.020653364     a.u. after    1 cycles

 The electronic state is 2-A.
 Alpha  occ. eigenvalues --  -19.07259 -19.02158 -19.01741 -10.21387 -10.12454
 Alpha  occ. eigenvalues --  -10.11792 -10.09108 -10.08837 -10.07581 -10.06391
 Alpha  occ. eigenvalues --  -10.05940 -10.05498 -10.05362  -1.01290  -0.93094
 Alpha  occ. eigenvalues --   -0.92155  -0.72977  -0.69265  -0.66828  -0.59928
 Alpha  occ. eigenvalues --   -0.59237  -0.58198  -0.57479  -0.48724  -0.48133
 Alpha  occ. eigenvalues --   -0.45196  -0.41175  -0.39977  -0.39289  -0.38003
 Alpha  occ. eigenvalues --   -0.37037  -0.35200  -0.34767  -0.33509  -0.32246
 Alpha  occ. eigenvalues --   -0.31266  -0.30256  -0.29934  -0.29364  -0.28919
 Alpha  occ. eigenvalues --   -0.28404  -0.28177  -0.26348  -0.25873  -0.25211
 Alpha  occ. eigenvalues --   -0.24802  -0.23360  -0.22507  -0.21067  -0.20087
 Alpha  occ. eigenvalues --   -0.19250  -0.17098   0.04360
 Alpha virt. eigenvalues --    0.05992   0.07341   0.07872   0.08420   0.09078
 Alpha virt. eigenvalues --    0.09486   0.09773   0.10076   0.10464   0.11165
 Alpha virt. eigenvalues --    0.11927   0.12110   0.12438   0.12998   0.13488

  Beta  occ. eigenvalues --  -19.07253 -19.02153 -19.01716 -10.21386 -10.12444
  Beta  occ. eigenvalues --  -10.11786 -10.09105 -10.08798 -10.07563 -10.06345
  Beta  occ. eigenvalues --  -10.05914 -10.05484 -10.05342  -1.01281  -0.93083
  Beta  occ. eigenvalues --   -0.92106  -0.72954  -0.69230  -0.66788  -0.59885
  Beta  occ. eigenvalues --   -0.59175  -0.58147  -0.57438  -0.48678  -0.48080
  Beta  occ. eigenvalues --   -0.45151  -0.41140  -0.39950  -0.39269  -0.37958
  Beta  occ. eigenvalues --   -0.36999  -0.35164  -0.34729  -0.33472  -0.32206
  Beta  occ. eigenvalues --   -0.31231  -0.30219  -0.29904  -0.29333  -0.28888
  Beta  occ. eigenvalues --   -0.28373  -0.28148  -0.26328  -0.25852  -0.25179
  Beta  occ. eigenvalues --   -0.24775  -0.23308  -0.22479  -0.21042  -0.20068
  Beta  occ. eigenvalues --   -0.19235  -0.17075
  Beta virt. eigenvalues --    0.06509   0.07144   0.07943   0.08451   0.08753
  Beta virt. eigenvalues --    0.09551   0.09926   0.10062   0.10413   0.10954
  Beta virt. eigenvalues --    0.11578   0.12327   0.12445   0.12771   0.13235

 Mulliken charges and spin densities:
               1          2
     1  C    0.487655  -1.134015
     2  C   -1.814883   2.300021
     3  C    0.662951  -1.268115
     4  C    1.270113  -2.225573
     5  C   -2.027539   2.695070
     6  C    1.622626  -2.132371
     7  C    0.196663  -0.591386
     8  C    0.220143  -1.050036
     9  O    0.049990   0.042740
    10  C   -0.640367   0.850180
    11  O   -0.275022   0.009897
    12  C    1.092342  -1.656615
    13  O   -0.135591  -0.006115
    14  H    0.040377   0.130645
    15  H   -0.079207   0.199315
    16  H   -0.239117   0.398140
    17  H   -0.350293   0.544805
    18  H   -0.039117   0.161047
    19  H   -0.079547   0.215494
    20  H   -0.202634   0.344891
    21  H    0.397013  -0.099744
    22  H   -0.477012   0.628302
    23  H   -0.144610   0.305127
    24  H   -0.266955   0.427667
    25  H    0.110825   0.054232
    26  H    0.095245   0.059313
    27  H    0.025911   0.145437
    28  H   -0.002315   0.181139
    29  H    0.084739   0.134762
    30  H   -0.266574   0.435427
    31  H   -0.253605   0.429867
    32  H   -0.079250   0.241363
    33  H    0.017044   0.229088
 Sum of Mulliken charges =  -1.00000   1.00000

 Dipole moment (field-independent basis, Debye):
    X=             -2.4949    Y=             -0.2256    Z=             -0.7552  Tot=              2.6164
 Quadrupole moment (field-independent basis, Debye-Ang):
   XX=           -152.1918   YY=           -129.7456   ZZ=           -120.7384
   XY=             -4.7863   XZ=             -4.4726   YZ=             -2.2723

 Summary of Natural Population Analysis:

                                       Natural Population
                Natural  -----------------------------------------------
    Atom  No    Charge         Core      Valence    Rydberg      Total
 -----------------------------------------------------------------------
      C    1   -0.28772      0.99964     2.28154    0.00654     3.28772
      C    2   -0.12473      0.99959     2.11382    0.01131     3.12473
      C    3   -0.28164      0.99965     2.27682    0.00517     3.28164
      C    4    0.07119      0.99949     1.91398    0.01534     2.92881
      C    5   -0.06412      0.99955     2.05117    0.01340     3.06412
      C    6   -0.29019      0.99962     2.28231    0.00826     3.29019
      C    7   -0.28417      0.99963     2.27790    0.00664     3.28417
      C    8   -0.01491      0.99947     2.00355    0.01189     3.01491
      O    9   -0.28795      0.99986     3.27843    0.00966     4.28795
      C   10    0.40905      0.99971     1.56662    0.02462     2.59095
      O   11   -0.30640      0.99987     3.30096    0.00557     4.30640
      C   12   -0.33264      0.99962     2.32782    0.00520     3.33264
      O   13   -0.37380      0.99990     3.36728    0.00662     4.37380
      H   14    0.10111      0.00000     0.39747    0.00142     0.39889
      H   15    0.09796      0.00000     0.40073    0.00131     0.40204
      H   16    0.10069      0.00000     0.39836    0.00095     0.39931
      H   17    0.09430      0.00000     0.40303    0.00267     0.40570
      H   18    0.09494      0.00000     0.40400    0.00106     0.40506
      H   19    0.10713      0.00000     0.39170    0.00116     0.39287
      H   20    0.09684      0.00000     0.40218    0.00098     0.40316
      H   21    0.09213      0.00000     0.40551    0.00236     0.40787
      H   22    0.10262      0.00000     0.39544    0.00194     0.39738
      H   23    0.10253      0.00000     0.39634    0.00113     0.39747
      H   24    0.10390      0.00000     0.39457    0.00153     0.39610
      H   25    0.10056      0.00000     0.39854    0.00090     0.39944
      H   26    0.09968      0.00000     0.39946    0.00086     0.40032
      H   27    0.10779      0.00000     0.39130    0.00091     0.39221
      H   28    0.09701      0.00000     0.40148    0.00151     0.40299
      H   29    0.10220      0.00000     0.39644    0.00137     0.39780
      H   30    0.11532      0.00000     0.38348    0.00119     0.38468
      H   31    0.11520      0.00000     0.38338    0.00143     0.38480
      H   32    0.10881      0.00000     0.39038    0.00081     0.39119
      H   33    0.22730      0.00000     0.26905    0.00365     0.27270
 =======================================================================
   * Total *   -0.00000     12.99560    38.84505    0.15935    52.00000

 Normal termination of Gaussian 16 at Wed Dec  9 23:41:38 2020.
