 Gaussian 16, Revision A.03,

 -----------------------------------------------------------
 # opt freq B3LYP/6-31G(d) empiricaldispersion=gd3bj scf=xqc
 -----------------------------------------------------------

 -------------------------------
 CID_45834453_JID_10566_neutraal
 -------------------------------
 Symbolic Z-matrix:
 Charge =  0 Multiplicity = 1

 SCF Done:  E(RB3LYP) =  -924.799990161     A.U. after   16 cycles
 SCF Done:  E(RB3LYP) =  -924.803839514     A.U. after   14 cycles
 SCF Done:  E(RB3LYP) =  -924.805699592     A.U. after   14 cycles
 SCF Done:  E(RB3LYP) =  -924.811108309     A.U. after   14 cycles
 SCF Done:  E(RB3LYP) =  -924.816027156     A.U. after   14 cycles
 SCF Done:  E(RB3LYP) =  -924.819157140     A.U. after   13 cycles
 SCF Done:  E(RB3LYP) =  -924.820202428     A.U. after   16 cycles
 SCF Done:  E(RB3LYP) =  -924.821497091     A.U. after   13 cycles
 SCF Done:  E(RB3LYP) =  -924.821839672     A.U. after   13 cycles
 SCF Done:  E(RB3LYP) =  -924.822351024     A.U. after   12 cycles
 SCF Done:  E(RB3LYP) =  -924.822527442     A.U. after   10 cycles
 SCF Done:  E(RB3LYP) =  -924.822527764     A.U. after    8 cycles
 SCF Done:  E(RB3LYP) =  -924.822527823     A.U. after    8 cycles
 SCF Done:  E(RB3LYP) =  -924.822527840     A.U. after    8 cycles
 Optimization completed.
    -- Stationary point found.
 Normal termination of Gaussian 16 at Sun Dec 13 13:23:23 2020.

 --------------------------------------------------------------------
 #N Geom=AllCheck Guess=TCheck SCRF=Check GenChk RB3LYP/6-31G(d) Freq
 --------------------------------------------------------------------

 Structure from the checkpoint file:  "JID_10566.chk"
 -------------------------------
 CID_45834453_JID_10566_neutraal
 -------------------------------
 Charge =  0 Multiplicity = 1

 SCF Done:  E(RB3LYP) =  -924.822527840     A.U. after    1 cycles

  Exact polarizability: 154.974 -16.350 189.003  18.034  -0.606 126.241
 Approx polarizability: 215.596 -34.284 328.647  42.139   1.145 203.955

                      1                      2                      3
                      A                      A                      A
 Frequencies --     15.1284                28.8697                48.4604
 Red. masses --      4.9798                 3.3579                 5.5688
 Frc consts  --      0.0007                 0.0016                 0.0077
 IR Inten    --      1.2576                 0.7637                 2.5111

                      4                      5                      6
                      A                      A                      A
 Frequencies --     49.8050                52.9703                76.4182
 Red. masses --      5.3405                 6.3290                 3.9343
 Frc consts  --      0.0078                 0.0105                 0.0135
 IR Inten    --      0.0952                 2.2529                 2.1726

                      7                      8                      9
                      A                      A                      A
 Frequencies --     92.4021               109.4735               121.3353
 Red. masses --      5.4631                 7.4175                 4.0838
 Frc consts  --      0.0275                 0.0524                 0.0354
 IR Inten    --      1.3201                 2.0903                 0.2409

                     10                     11                     12
                      A                      A                      A
 Frequencies --    157.6099               179.0108               222.2321
 Red. masses --      6.4573                 8.4861                 1.4851
 Frc consts  --      0.0945                 0.1602                 0.0432
 IR Inten    --      1.2908                 0.2501                 0.9089

                     13                     14                     15
                      A                      A                      A
 Frequencies --    234.9914               250.3283               283.3207
 Red. masses --      1.7818                 1.2003                 3.4342
 Frc consts  --      0.0580                 0.0443                 0.1624
 IR Inten    --      1.5410                 0.5608                 0.7864

                     16                     17                     18
                      A                      A                      A
 Frequencies --    291.3252               327.5285               337.4343
 Red. masses --      6.0177                 4.4971                 3.1407
 Frc consts  --      0.3009                 0.2842                 0.2107
 IR Inten    --      0.2454                 0.2638                 3.1164

                     19                     20                     21
                      A                      A                      A
 Frequencies --    343.2336               403.2865               426.8466
 Red. masses --      2.7508                 2.6869                 2.0148
 Frc consts  --      0.1909                 0.2575                 0.2163
 IR Inten    --      2.9544                 2.3982                 1.3915

                     22                     23                     24
                      A                      A                      A
 Frequencies --    446.5937               465.5056               507.3767
 Red. masses --      4.0666                 5.1501                 7.4638
 Frc consts  --      0.4779                 0.6575                 1.1321
 IR Inten    --     31.9938                 0.7876                15.0356

                     25                     26                     27
                      A                      A                      A
 Frequencies --    512.3851               521.5328               580.9312
 Red. masses --      3.6986                 2.0481                 8.7663
 Frc consts  --      0.5721                 0.3282                 1.7431
 IR Inten    --      4.7318                24.5725                 9.8502

                     28                     29                     30
                      A                      A                      A
 Frequencies --    601.6818               634.2463               653.2571
 Red. masses --      5.8770                 2.6291                 4.8278
 Frc consts  --      1.2535                 0.6231                 1.2139
 IR Inten    --     13.3066                48.1616                 3.1867

                     31                     32                     33
                      A                      A                      A
 Frequencies --    663.7893               674.8268               755.2946
 Red. masses --      3.6437                 6.0831                11.1694
 Frc consts  --      0.9459                 1.6321                 3.7542
 IR Inten    --     19.0593                 6.0221                10.3908

                     34                     35                     36
                      A                      A                      A
 Frequencies --    769.9770               786.9833               809.6895
 Red. masses --      3.6920                 1.4548                 4.0061
 Frc consts  --      1.2896                 0.5309                 1.5474
 IR Inten    --     15.7549                18.9131                12.7093

                     37                     38                     39
                      A                      A                      A
 Frequencies --    830.8995               835.0878               847.3506
 Red. masses --      2.7136                 3.3858                 1.5686
 Frc consts  --      1.1038                 1.3911                 0.6636
 IR Inten    --      1.5718                35.2760                 4.4955

                     40                     41                     42
                      A                      A                      A
 Frequencies --    881.3634               910.7318               919.0331
 Red. masses --      1.3358                 3.4677                 1.4737
 Frc consts  --      0.6114                 1.6946                 0.7334
 IR Inten    --      1.9056                 3.4473                 4.5107

                     43                     44                     45
                      A                      A                      A
 Frequencies --    948.3286               950.6067               970.8268
 Red. masses --      2.4356                 1.4623                 2.0454
 Frc consts  --      1.2906                 0.7785                 1.1358
 IR Inten    --     20.1666                 1.3850                 1.9400

                     46                     47                     48
                      A                      A                      A
 Frequencies --    978.5565               983.5669              1037.4244
 Red. masses --      2.3895                 1.4907                 7.2107
 Frc consts  --      1.3481                 0.8497                 4.5724
 IR Inten    --      1.6051                 0.0818                 3.0052

                     49                     50                     51
                      A                      A                      A
 Frequencies --   1064.6358              1077.7371              1099.5144
 Red. masses --      5.3204                 1.4735                 1.9708
 Frc consts  --      3.5530                 1.0084                 1.4038
 IR Inten    --     27.2571                 1.2908                 4.9946

                     52                     53                     54
                      A                      A                      A
 Frequencies --   1157.8222              1193.1089              1206.4848
 Red. masses --      2.2417                 1.6959                 2.2468
 Frc consts  --      1.7706                 1.4224                 1.9269
 IR Inten    --      2.8548                11.1475                13.5043

                     55                     56                     57
                      A                      A                      A
 Frequencies --   1211.6384              1229.6925              1251.3379
 Red. masses --      1.7658                 1.6260                 1.8933
 Frc consts  --      1.5273                 1.4487                 1.7467
 IR Inten    --      2.4519                23.7398                 2.1444

                     58                     59                     60
                      A                      A                      A
 Frequencies --   1274.9624              1334.9256              1338.8336
 Red. masses --      2.2957                 2.1603                 2.5006
 Frc consts  --      2.1987                 2.2682                 2.6409
 IR Inten    --      2.1642                30.4642                60.4928

                     61                     62                     63
                      A                      A                      A
 Frequencies --   1345.3197              1350.6165              1366.6914
 Red. masses --      6.0290                 1.7613                 1.9304
 Frc consts  --      6.4290                 1.8930                 2.1244
 IR Inten    --     53.3145                 6.9031                36.6573

                     64                     65                     66
                      A                      A                      A
 Frequencies --   1374.8693              1392.8206              1393.9436
 Red. masses --      2.1898                 2.1188                 1.7498
 Frc consts  --      2.4388                 2.4218                 2.0033
 IR Inten    --      3.3576                53.9333                29.2305

                     67                     68                     69
                      A                      A                      A
 Frequencies --   1414.4799              1432.2175              1444.8985
 Red. masses --      1.4649                 1.2940                 2.4404
 Frc consts  --      1.7269                 1.5639                 3.0019
 IR Inten    --      5.0760                 3.0319                11.7165

                     70                     71                     72
                      A                      A                      A
 Frequencies --   1448.6026              1451.7268              1463.5736
 Red. masses --      3.4571                 1.2965                 4.1637
 Frc consts  --      4.2742                 1.6099                 5.2548
 IR Inten    --     17.7418                15.1740                 5.0085

                     73                     74                     75
                      A                      A                      A
 Frequencies --   1471.5686              1491.7171              1503.8542
 Red. masses --      2.3913                 1.2736                 2.8626
 Frc consts  --      3.0510                 1.6698                 3.8144
 IR Inten    --     20.7984                10.8165                38.5601

                     76                     77                     78
                      A                      A                      A
 Frequencies --   1514.3600              1520.8619              1526.4593
 Red. masses --      1.2698                 1.0663                 1.0617
 Frc consts  --      1.7157                 1.4531                 1.4575
 IR Inten    --      4.2845                 0.4524                 2.2191

                     79                     80                     81
                      A                      A                      A
 Frequencies --   1534.3450              1535.5535              1542.0911
 Red. masses --      4.7643                 1.0584                 1.0515
 Frc consts  --      6.6083                 1.4704                 1.4733
 IR Inten    --     48.2180                 5.2364                12.3288

                     82                     83                     84
                      A                      A                      A
 Frequencies --   1607.5071              1803.0572              2380.3197
 Red. masses --      6.5420                 8.9481                12.6653
 Frc consts  --      9.9602                17.1396                42.2801
 IR Inten    --     47.7280               393.5780                 5.2966

                     85                     86                     87
                      A                      A                      A
 Frequencies --   3038.5796              3042.2465              3066.9096
 Red. masses --      1.0391                 1.0405                 1.0797
 Frc consts  --      5.6523                 5.6738                 5.9835
 IR Inten    --     21.0770                20.4286                 2.3216

                     88                     89                     90
                      A                      A                      A
 Frequencies --   3077.6477              3103.7884              3109.7976
 Red. masses --      1.0604                 1.0994                 1.0979
 Frc consts  --      5.9175                 6.2399                 6.2556
 IR Inten    --     19.6291                14.7017                31.3932

                     91                     92                     93
                      A                      A                      A
 Frequencies --   3111.1665              3121.9446              3126.9167
 Red. masses --      1.0597                 1.1018                 1.1024
 Frc consts  --      6.0432                 6.3270                 6.3506
 IR Inten    --      2.6412                26.0123                38.8938

                     94                     95                     96
                      A                      A                      A
 Frequencies --   3128.3587              3164.9464              3265.4010
 Red. masses --      1.1053                 1.1069                 1.0940
 Frc consts  --      6.3734                 6.5329                 6.8728
 IR Inten    --     23.4618                 1.2418                 2.8234

                     97                     98                     99
                      A                      A                      A
 Frequencies --   3276.9539              3289.0031              3555.8284
 Red. masses --      1.0990                 1.1014                 1.0751
 Frc consts  --      6.9531                 7.0199                 8.0088
 IR Inten    --      0.6527                 0.2144                37.0440

 - Thermochemistry -
 -------------------
 Temperature   298.150 Kelvin.  Pressure   1.00000 Atm.
 Atom     1 has atomic number  6 and mass  12.00000

 Molecular mass:   273.13381 amu.
 Principal axes and moments of inertia in atomic units:
                           1         2         3
     Eigenvalues --  3833.076625991.519727869.35217
           X            0.99848   0.05245   0.01701
           Y           -0.05240   0.99862  -0.00363
           Z           -0.01718   0.00273   0.99985
 This molecule is an asymmetric top.
 Rotational symmetry number  1.
 Warning -- assumption of classical behavior for rotation
           may cause significant error
 Rotational temperatures (Kelvin)      0.02260     0.01446     0.01101
 Rotational constants (GHZ):           0.47083     0.30122     0.22934
 Zero-point vibrational energy     734276.8 (Joules/Mol)
                                  175.49637 (Kcal/Mol)
 Warning -- explicit consideration of  28 degrees of freedom as
           vibrations may cause significant error
 Vibrational temperatures:     21.77    41.54    69.72    71.66    76.21
          (Kelvin)            109.95   132.95   157.51   174.57   226.77
                              257.56   319.74   338.10   360.17   407.64
                              419.15   471.24   485.49   493.84   580.24
                              614.14   642.55   669.76   730.00   737.21
                              750.37   835.83   865.69   912.54   939.89
                              955.04   970.93  1086.70  1107.83  1132.29
                             1164.96  1195.48  1201.51  1219.15  1268.09
                             1310.34  1322.28  1364.43  1367.71  1396.80
                             1407.92  1415.13  1492.62  1531.77  1550.62
                             1581.96  1665.85  1716.62  1735.86  1743.28
                             1769.25  1800.40  1834.39  1920.66  1926.28
                             1935.62  1943.24  1966.36  1978.13  2003.96
                             2005.57  2035.12  2060.64  2078.89  2084.22
                             2088.71  2105.76  2117.26  2146.25  2163.71
                             2178.83  2188.18  2196.23  2207.58  2209.32
                             2218.73  2312.84  2594.20  3424.75  4371.84
                             4377.11  4412.60  4428.05  4465.66  4474.31
                             4476.27  4491.78  4498.94  4501.01  4553.65
                             4698.18  4714.81  4732.14  5116.04

 Zero-point correction=                           0.279671 (Hartree/Particle)
 Thermal correction to Energy=                    0.298381
 Thermal correction to Enthalpy=                  0.299325
 Thermal correction to Gibbs Free Energy=         0.230071
 Sum of electronic and zero-point Energies=           -924.542857
 Sum of electronic and thermal Energies=              -924.524147
 Sum of electronic and thermal Enthalpies=            -924.523202
 Sum of electronic and thermal Free Energies=         -924.592457

                     E (Thermal)             CV                S
                      KCal/Mol        Cal/Mol-Kelvin    Cal/Mol-Kelvin
 Total                  187.237             68.868            145.759
 Electronic               0.000              0.000              0.000
 Translational            0.889              2.981             42.713
 Rotational               0.889              2.981             33.557
 Vibrational            185.460             62.907             69.488
 Vibration     1          0.593              1.986              7.189
 Vibration     2          0.593              1.984              5.906
 Vibration     3          0.595              1.978              4.879
 Vibration     4          0.595              1.978              4.825
 Vibration     5          0.596              1.976              4.703
 Vibration     6          0.599              1.965              3.981
 Vibration     7          0.602              1.955              3.609
 Vibration     8          0.606              1.942              3.278
 Vibration     9          0.609              1.931              3.079
 Vibration    10          0.621              1.894              2.578
 Vibration    11          0.629              1.868              2.339
 Vibration    12          0.648              1.807              1.941
 Vibration    13          0.655              1.787              1.840
 Vibration    14          0.663              1.762              1.728
 Vibration    15          0.682              1.705              1.514
 Vibration    16          0.687              1.690              1.466
 Vibration    17          0.711              1.620              1.272
 Vibration    18          0.718              1.601              1.224
 Vibration    19          0.722              1.589              1.197
 Vibration    20          0.769              1.463              0.951
 Vibration    21          0.789              1.412              0.869
 Vibration    22          0.806              1.368              0.806
 Vibration    23          0.823              1.327              0.750
 Vibration    24          0.863              1.234              0.640
 Vibration    25          0.867              1.223              0.628
 Vibration    26          0.877              1.202              0.606
 Vibration    27          0.938              1.073              0.484
 Vibration    28          0.960              1.028              0.447

                           ! Non-Optimized Parameters !
 Normal termination of Gaussian 16 at Sun Dec 13 13:42:12 2020.

 ----------------------------------------------------------------------
 # B3LYP/6-311++G(d,p) empiricaldispersion=gd3bj scf=xqc pop=npa geom=c
 heck
 ----------------------------------------------------------------------

 ---------------------------------------
 CID_45834453_JID_10566_Energie_neutraal
 ---------------------------------------
 Structure from the checkpoint file:  "JID_10566.chk"
 Charge =  0 Multiplicity = 1

 SCF Done:  E(RB3LYP) =  -925.075421565     A.U. after   16 cycles
 Normal termination of Gaussian 16 at Sun Dec 13 13:49:04 2020.

 ----------------------------------------------------------------------
 # B3LYP/6-311++G(d,p) empiricaldispersion=gd3bj scf=xqc pop=npa geom=c
 heck
 ----------------------------------------------------------------------

 -------------------------------------
 CID_45834453_JID_10566_Energie_kation
 -------------------------------------
 Structure from the checkpoint file:  "JID_10566.chk"
 Charge =  1 Multiplicity = 2

 SCF Done:  E(UB3LYP) =  -924.743762284     A.U. after   33 cycles
 SCF Done:  E(UB3LYP) =  -924.743762284     a.u. after    2 cycles
 Normal termination of Gaussian 16 at Sun Dec 13 14:26:44 2020.
 Gaussian 16:  ES64L-G16RevA.03 25-Dec-2016

 ----------------------------------------------------------------------
 # B3LYP/6-311++G(d,p) empiricaldispersion=gd3bj scf=xqc pop=npa geom=c
 heck
 ----------------------------------------------------------------------

 ------------------------------------
 CID_45834453_JID_10566_Energie_anion
 ------------------------------------
 Structure from the checkpoint file:  "JID_10566.chk"
 Charge = -1 Multiplicity = 2

                         Standard orientation:
 ---------------------------------------------------------------------
 Center     Atomic      Atomic             Coordinates (Angstroms)
 Number     Number       Type             X           Y           Z
 ---------------------------------------------------------------------
      1          6           0       -3.863505   -0.634831    0.826336
      2          6           0       -3.212449   -1.184825   -0.446480
      3          6           0       -4.132561   -1.041181   -1.662911
      4          6           0       -1.877645   -0.483250   -0.731104
      5          7           0       -0.928865   -0.633855    0.360821
      6          6           0       -0.350959    0.333778    1.137183
      7          6           0        0.477189   -0.315131    2.038226
      8          6           0        0.339509   -1.679833    1.717409
      9          7           0       -0.504251   -1.865603    0.699099
     10          7           0       -0.650946    1.700847    0.995005
     11          6           0       -0.283286    2.577896    0.001566
     12          8           0       -0.706400    3.720445   -0.032225
     13          6           0        0.650291    2.097346   -1.120745
     14          7           0        1.686408    1.157518   -0.738823
     15          6           0        2.742990    1.337413    0.093974
     16          7           0        3.401141    0.206320    0.251863
     17          6           0        2.683224   -0.662775   -0.524982
     18          7           0        1.636780   -0.128445   -1.151829
     19          6           0        3.008189   -2.047403   -0.651652
     20          7           0        3.277848   -3.173058   -0.742050
     21          1           0       -4.078502    0.437443    0.725024
     22          1           0       -3.214263   -0.774092    1.696905
     23          1           0       -4.810542   -1.145771    1.029666
     24          1           0       -2.987278   -2.246860   -0.292994
     25          1           0       -4.375816    0.012620   -1.851449
     26          1           0       -3.668182   -1.447753   -2.568743
     27          1           0       -5.075111   -1.574373   -1.500778
     28          1           0       -1.409098   -0.880933   -1.636835
     29          1           0       -2.044338    0.589122   -0.870178
     30          1           0        1.098662    0.143994    2.792040
     31          1           0        0.827313   -2.532885    2.168850
     32          1           0       -1.265790    2.129608    1.679665
     33          1           0        0.063309    1.609012   -1.901962
     34          1           0        1.099052    2.999152   -1.541201
     35          1           0        2.979042    2.288867    0.550264
 ---------------------------------------------------------------------

 SCF Done:  E(UB3LYP) =  -925.079764710     A.U. after   33 cycles
 SCF Done:  E(UB3LYP) =  -925.079764710     a.u. after    1 cycles

 The electronic state is 2-A.
 Alpha  occ. eigenvalues --  -19.01474 -14.29831 -14.29040 -14.27175 -14.23485
 Alpha  occ. eigenvalues --  -14.21747 -14.20758 -14.18666 -10.19960 -10.15415
 Alpha  occ. eigenvalues --  -10.13682 -10.13132 -10.12354 -10.12236 -10.09762
 Alpha  occ. eigenvalues --  -10.09424 -10.08644 -10.07901 -10.07733 -10.07577
 Alpha  occ. eigenvalues --   -0.97995  -0.96925  -0.96152  -0.85589  -0.81046
 Alpha  occ. eigenvalues --   -0.78293  -0.76283  -0.74324  -0.70763  -0.68821
 Alpha  occ. eigenvalues --   -0.65363  -0.60679  -0.60346  -0.55915  -0.54634
 Alpha  occ. eigenvalues --   -0.52509  -0.51704  -0.49670  -0.48237  -0.45980
 Alpha  occ. eigenvalues --   -0.45503  -0.40009  -0.39564  -0.39032  -0.38194
 Alpha  occ. eigenvalues --   -0.37408  -0.36944  -0.35492  -0.35283  -0.34717
 Alpha  occ. eigenvalues --   -0.34012  -0.32891  -0.31934  -0.31267  -0.30591
 Alpha  occ. eigenvalues --   -0.30186  -0.29604  -0.26262  -0.25710  -0.25040
 Alpha  occ. eigenvalues --   -0.24956  -0.24723  -0.22926  -0.21959  -0.21801
 Alpha  occ. eigenvalues --   -0.20149  -0.19160  -0.18479  -0.18075  -0.16253
 Alpha  occ. eigenvalues --   -0.15997  -0.15095   0.03831
 Alpha virt. eigenvalues --    0.05518   0.06635   0.07270   0.07596   0.07932
 Alpha virt. eigenvalues --    0.08649   0.09047   0.09668   0.09771   0.10130
 Alpha virt. eigenvalues --    0.10519   0.10930   0.11571   0.11822   0.12433

  Beta  occ. eigenvalues --  -19.01434 -14.29832 -14.28812 -14.27157 -14.23484
  Beta  occ. eigenvalues --  -14.21245 -14.20827 -14.18491 -10.19892 -10.15398
  Beta  occ. eigenvalues --  -10.13679 -10.13067 -10.12244 -10.12228 -10.09762
  Beta  occ. eigenvalues --  -10.09423 -10.08624 -10.07880 -10.07731 -10.07557
  Beta  occ. eigenvalues --   -0.97681  -0.96758  -0.96119  -0.85534  -0.80859
  Beta  occ. eigenvalues --   -0.78043  -0.76276  -0.73795  -0.70747  -0.68790
  Beta  occ. eigenvalues --   -0.65180  -0.60648  -0.60315  -0.55534  -0.54525
  Beta  occ. eigenvalues --   -0.52446  -0.51550  -0.49574  -0.48142  -0.45832
  Beta  occ. eigenvalues --   -0.45449  -0.39834  -0.39430  -0.38731  -0.37912
  Beta  occ. eigenvalues --   -0.37349  -0.36758  -0.35417  -0.35227  -0.34575
  Beta  occ. eigenvalues --   -0.33912  -0.32772  -0.31748  -0.31201  -0.30553
  Beta  occ. eigenvalues --   -0.30066  -0.29557  -0.26236  -0.25686  -0.25012
  Beta  occ. eigenvalues --   -0.24645  -0.23907  -0.22526  -0.21848  -0.21696
  Beta  occ. eigenvalues --   -0.19728  -0.19028  -0.18050  -0.17828  -0.15967
  Beta  occ. eigenvalues --   -0.15561  -0.14185
  Beta virt. eigenvalues --    0.05800   0.06817   0.07453   0.07924   0.08168
  Beta virt. eigenvalues --    0.08617   0.08951   0.09544   0.09815   0.09927
  Beta virt. eigenvalues --    0.10525   0.10662   0.10974   0.11688   0.11916

 Mulliken charges and spin densities:
               1          2
     1  C    0.066339  -0.602174
     2  C   -0.422700   0.657810
     3  C   -0.131937  -0.563989
     4  C   -0.334452  -0.172154
     5  N    0.846661   0.009158
     6  C   -1.051237  -0.126617
     7  C    0.543859  -0.080771
     8  C   -0.343792   0.057170
     9  N   -0.234684  -0.048454
    10  N   -0.217429   0.039198
    11  C   -0.398397   0.390104
    12  O   -0.300398   0.018825
    13  C    0.785558  -0.973547
    14  N    0.157008   0.081051
    15  C    0.120329   0.099252
    16  N   -0.119592  -0.041226
    17  C    1.054113   0.059049
    18  N   -0.275909   0.258174
    19  C   -1.323562  -0.028446
    20  N   -0.272171   0.090553
    21  H   -0.023496   0.168715
    22  H    0.083979   0.055918
    23  H   -0.065854   0.222363
    24  H    0.191859   0.007731
    25  H   -0.121636   0.262310
    26  H   -0.019484   0.158469
    27  H   -0.068061   0.215781
    28  H    0.204759   0.014179
    29  H    0.449245  -0.286861
    30  H    0.172824  -0.006708
    31  H    0.167820   0.002464
    32  H    0.188117   0.149570
    33  H   -0.307110   0.504900
    34  H   -0.042723   0.294621
    35  H    0.042153   0.113583
 Sum of Mulliken charges =  -1.00000   1.00000

 Dipole moment (field-independent basis, Debye):
    X=             -3.1966    Y=              2.5743    Z=              3.7586  Tot=              5.5653
 Quadrupole moment (field-independent basis, Debye-Ang):
   XX=           -185.1334   YY=           -173.8318   ZZ=           -137.9514
   XY=             19.7169   XZ=              3.4843   YZ=             -0.5350

 Summary of Natural Population Analysis:

                                       Natural Population
                Natural  -----------------------------------------------
    Atom  No    Charge         Core      Valence    Rydberg      Total
 -----------------------------------------------------------------------
      C    1   -0.28818      0.99965     2.28279    0.00573     3.28818
      C    2   -0.12021      0.99961     2.11200    0.00860     3.12021
      C    3   -0.28371      0.99965     2.27942    0.00464     3.28371
      C    4   -0.08154      0.99958     2.07009    0.01186     3.08154
      N    5   -0.10737      0.99961     2.59368    0.01409     3.60737
      C    6    0.15968      0.99948     1.82645    0.01440     2.84032
      C    7   -0.15844      0.99949     2.15042    0.00853     3.15844
      C    8   -0.00799      0.99964     1.99532    0.01303     3.00799
      N    9   -0.14491      0.99973     2.63388    0.01129     3.64491
      N   10   -0.32280      0.99963     2.81435    0.00882     3.82280
      C   11    0.34819      0.99968     1.62947    0.02266     2.65181
      O   12   -0.30966      0.99988     3.30381    0.00598     4.30966
      C   13   -0.13003      0.99957     2.11926    0.01120     3.13003
      N   14   -0.09305      0.99966     2.57951    0.01389     3.59305
      C   15    0.11047      0.99962     1.87385    0.01605     2.88953
      N   16   -0.25614      0.99971     2.74715    0.00928     3.75614
      C   17    0.10540      0.99954     1.87707    0.01799     2.89460
      N   18   -0.06634      0.99970     2.55486    0.01178     3.56634
      C   19    0.14519      0.99962     1.83711    0.01808     2.85481
      N   20   -0.15988      0.99979     2.65215    0.00794     3.65988
      H   21    0.09655      0.00000     0.40243    0.00102     0.40345
      H   22    0.10359      0.00000     0.39549    0.00092     0.39641
      H   23    0.09939      0.00000     0.39992    0.00069     0.40061
      H   24    0.10349      0.00000     0.39460    0.00192     0.39651
      H   25    0.09764      0.00000     0.40137    0.00100     0.40236
      H   26    0.10075      0.00000     0.39836    0.00089     0.39925
      H   27    0.09994      0.00000     0.39922    0.00083     0.40006
      H   28    0.11098      0.00000     0.38769    0.00134     0.38902
      H   29    0.10010      0.00000     0.39817    0.00173     0.39990
      H   30    0.11116      0.00000     0.38810    0.00075     0.38884
      H   31    0.10065      0.00000     0.39862    0.00073     0.39935
      H   32    0.20132      0.00000     0.29648    0.00220     0.29868
      H   33    0.12491      0.00000     0.37309    0.00200     0.37509
      H   34    0.11575      0.00000     0.38287    0.00138     0.38425
      H   35    0.09510      0.00000     0.40383    0.00107     0.40490
 =======================================================================
   * Total *    0.00000     19.99284    51.75287    0.25429    72.00000

 Normal termination of Gaussian 16 at Sun Dec 13 14:46:30 2020.
