 Gaussian 16, Revision A.03,

 -----------------------------------------------------------
 # opt freq B3LYP/6-31G(d) empiricaldispersion=gd3bj scf=xqc
 -----------------------------------------------------------

 -----------------------------
 CID_45083384_JID_684_neutraal
 -----------------------------
 Symbolic Z-matrix:
 Charge =  0 Multiplicity = 1

 SCF Done:  E(RB3LYP) =  -497.212022002     A.U. after   15 cycles
 SCF Done:  E(RB3LYP) =  -497.215091001     A.U. after   12 cycles
 SCF Done:  E(RB3LYP) =  -497.215496815     A.U. after   12 cycles
 SCF Done:  E(RB3LYP) =  -497.215460750     A.U. after   13 cycles
 SCF Done:  E(RB3LYP) =  -497.215545585     A.U. after   12 cycles
 SCF Done:  E(RB3LYP) =  -497.215681937     A.U. after   11 cycles
 SCF Done:  E(RB3LYP) =  -497.215721971     A.U. after   11 cycles
 SCF Done:  E(RB3LYP) =  -497.215736044     A.U. after   11 cycles
 SCF Done:  E(RB3LYP) =  -497.215740325     A.U. after   10 cycles
 SCF Done:  E(RB3LYP) =  -497.215742202     A.U. after   10 cycles
 SCF Done:  E(RB3LYP) =  -497.215742676     A.U. after    8 cycles
 SCF Done:  E(RB3LYP) =  -497.215742811     A.U. after    8 cycles
 SCF Done:  E(RB3LYP) =  -497.215742845     A.U. after    7 cycles
 Optimization completed.
    -- Stationary point found.
 Normal termination of Gaussian 16 at Tue Dec  8 12:26:58 2020.

 --------------------------------------------------------------------
 #N Geom=AllCheck Guess=TCheck SCRF=Check GenChk RB3LYP/6-31G(d) Freq
 --------------------------------------------------------------------

 Structure from the checkpoint file:  "JID_684.chk"
 -----------------------------
 CID_45083384_JID_684_neutraal
 -----------------------------
 Charge =  0 Multiplicity = 1

 SCF Done:  E(RB3LYP) =  -497.215742845     A.U. after    1 cycles

  Exact polarizability: 112.613   0.910  77.245  -0.380   2.999  46.895
 Approx polarizability: 157.447   1.910 131.113   3.491   6.009  68.007

                      1                      2                      3
                      A                      A                      A
 Frequencies --     45.5251                82.2132               135.5906
 Red. masses --      4.6448                 5.1784                 5.1222
 Frc consts  --      0.0057                 0.0206                 0.0555
 IR Inten    --      0.7054                 4.5048                 6.5079

                      4                      5                      6
                      A                      A                      A
 Frequencies --    161.1116               231.3255               251.1273
 Red. masses --      3.8136                 2.7171                 2.6159
 Frc consts  --      0.0583                 0.0857                 0.0972
 IR Inten    --      5.8525                 1.7396                 2.1700

                      7                      8                      9
                      A                      A                      A
 Frequencies --    265.0981               306.1195               328.4404
 Red. masses --      1.2024                 2.2166                 1.6340
 Frc consts  --      0.0498                 0.1224                 0.1039
 IR Inten    --      1.2187                36.7217               105.8969

                     10                     11                     12
                      A                      A                      A
 Frequencies --    419.5830               463.4919               568.6099
 Red. masses --      4.9612                 4.1113                 3.7706
 Frc consts  --      0.5146                 0.5204                 0.7183
 IR Inten    --      7.9294                28.9644                 3.4596

                     13                     14                     15
                      A                      A                      A
 Frequencies --    618.3219               680.5753               721.2258
 Red. masses --      2.7740                 3.3154                 4.3167
 Frc consts  --      0.6249                 0.9048                 1.3230
 IR Inten    --     10.4247                 7.4018                 5.4875

                     16                     17                     18
                      A                      A                      A
 Frequencies --    774.3231               802.2950               838.5926
 Red. masses --      4.9804                 1.4707                 1.3724
 Frc consts  --      1.7594                 0.5578                 0.5686
 IR Inten    --     87.4128                 5.0080                26.5169

                     19                     20                     21
                      A                      A                      A
 Frequencies --    902.7577               941.9550              1020.6714
 Red. masses --      2.9466                 3.2531                 1.7934
 Frc consts  --      1.4149                 1.7006                 1.1008
 IR Inten    --     31.0533                19.0697                38.0548

                     22                     23                     24
                      A                      A                      A
 Frequencies --   1025.6061              1028.5528              1086.5978
 Red. masses --      4.1333                 1.8073                 1.6090
 Frc consts  --      2.5616                 1.1265                 1.1193
 IR Inten    --      4.7475                 0.1175                33.6052

                     25                     26                     27
                      A                      A                      A
 Frequencies --   1107.0761              1159.8677              1187.9512
 Red. masses --      3.0439                 1.4265                 2.8738
 Frc consts  --      2.1980                 1.1307                 2.3894
 IR Inten    --     62.7924                68.5497                49.5342

                     28                     29                     30
                      A                      A                      A
 Frequencies --   1238.1225              1299.5157              1316.5959
 Red. masses --      2.8169                 1.4482                 2.7801
 Frc consts  --      2.5441                 1.4409                 2.8394
 IR Inten    --     16.1316                 9.5354                 0.4737

                     31                     32                     33
                      A                      A                      A
 Frequencies --   1350.6936              1390.2376              1430.9188
 Red. masses --      1.6132                 2.1218                 1.2218
 Frc consts  --      1.7340                 2.4162                 1.4740
 IR Inten    --     12.3178                17.0539                32.3208

                     34                     35                     36
                      A                      A                      A
 Frequencies --   1432.6092              1463.5426              1520.6033
 Red. masses --      1.2396                 1.6286                 1.0499
 Frc consts  --      1.4990                 2.0553                 1.4303
 IR Inten    --     57.6870                 2.8524                11.8573

                     37                     38                     39
                      A                      A                      A
 Frequencies --   1523.9604              1586.0611              1654.8129
 Red. masses --      1.0604                 5.4227                 7.0889
 Frc consts  --      1.4510                 8.0372                11.4374
 IR Inten    --      0.2627                94.9723                39.7889

                     40                     41                     42
                      A                      A                      A
 Frequencies --   1794.5357              2923.6842              3056.2239
 Red. masses --      9.3560                 1.0840                 1.0353
 Frc consts  --     17.7520                 5.4593                 5.6974
 IR Inten    --    215.2113               134.4023                12.6252

                     43                     44                     45
                      A                      A                      A
 Frequencies --   3094.0516              3126.8432              3143.2885
 Red. masses --      1.0871                 1.1013                 1.1034
 Frc consts  --      6.1316                 6.3440                 6.4235
 IR Inten    --      9.5439                28.0713                24.6842

                     46                     47                     48
                      A                      A                      A
 Frequencies --   3269.8211              3310.3540              3729.2171
 Red. masses --      1.0969                 1.0987                 1.0660
 Frc consts  --      6.9101                 7.0935                 8.7346
 IR Inten    --      1.2523                 1.8074                15.5135

 - Thermochemistry -
 -------------------
 Temperature   298.150 Kelvin.  Pressure   1.00000 Atm.
 Atom     1 has atomic number  6 and mass  12.00000

 Molecular mass:   140.04734 amu.
 Principal axes and moments of inertia in atomic units:
                           1         2         3
     Eigenvalues --   436.243682787.893882862.99899
           X            0.99989   0.00720  -0.01317
           Y           -0.00663   0.99907   0.04271
           Z            0.01347  -0.04262   0.99900
 This molecule is an asymmetric top.
 Rotational symmetry number  1.
 Warning -- assumption of classical behavior for rotation
           may cause significant error
 Rotational temperatures (Kelvin)      0.19854     0.03107     0.03025
 Rotational constants (GHZ):           4.13700     0.64735     0.63037
 Zero-point vibrational energy     369707.7 (Joules/Mol)
                                   88.36226 (Kcal/Mol)
 Warning -- explicit consideration of  13 degrees of freedom as
           vibrations may cause significant error
 Vibrational temperatures:     65.50   118.29   195.08   231.80   332.83
          (Kelvin)            361.32   381.42   440.44   472.55   603.69
                              666.86   818.10   889.63   979.20  1037.68
                             1114.08  1154.32  1206.55  1298.87  1355.26
                             1468.52  1475.62  1479.86  1563.37  1592.84
                             1668.79  1709.20  1781.38  1869.71  1894.29
                             1943.35  2000.24  2058.77  2061.21  2105.71
                             2187.81  2192.64  2281.99  2380.91  2581.94
                             4206.53  4397.22  4451.65  4498.83  4522.49
                             4704.54  4762.86  5365.51

 Zero-point correction=                           0.140814 (Hartree/Particle)
 Thermal correction to Energy=                    0.150520
 Thermal correction to Enthalpy=                  0.151464
 Thermal correction to Gibbs Free Energy=         0.105276
 Sum of electronic and zero-point Energies=           -497.074929
 Sum of electronic and thermal Energies=              -497.065223
 Sum of electronic and thermal Enthalpies=            -497.064279
 Sum of electronic and thermal Free Energies=         -497.110466

                     E (Thermal)             CV                S
                      KCal/Mol        Cal/Mol-Kelvin    Cal/Mol-Kelvin
 Total                   94.452             34.966             97.209
 Electronic               0.000              0.000              0.000
 Translational            0.889              2.981             40.722
 Rotational               0.889              2.981             29.633
 Vibrational             92.675             29.005             26.854
 Vibration     1          0.595              1.979              5.003
 Vibration     2          0.600              1.961              3.837
 Vibration     3          0.613              1.918              2.865
 Vibration     4          0.622              1.890              2.537
 Vibration     5          0.653              1.793              1.869
 Vibration     6          0.663              1.761              1.723
 Vibration     7          0.671              1.737              1.628
 Vibration     8          0.697              1.662              1.383
 Vibration     9          0.712              1.619              1.268
 Vibration    10          0.782              1.428              0.893
 Vibration    11          0.821              1.331              0.756
 Vibration    12          0.925              1.099              0.507
 Vibration    13          0.978              0.993              0.419

 Optimization completed.
    -- Stationary point found.
 Normal termination of Gaussian 16 at Tue Dec  8 12:39:31 2020.

 ----------------------------------------------------------------------
 # B3LYP/6-311++G(d,p) empiricaldispersion=gd3bj scf=xqc pop=npa geom=c
 heck
 ----------------------------------------------------------------------

 -------------------------------------
 CID_45083384_JID_684_Energie_neutraal
 -------------------------------------
 Structure from the checkpoint file:  "JID_684.chk"
 Charge =  0 Multiplicity = 1

 SCF Done:  E(RB3LYP) =  -497.369193140     A.U. after   15 cycles
 Normal termination of Gaussian 16 at Tue Dec  8 12:43:50 2020.

 ----------------------------------------------------------------------
 # B3LYP/6-311++G(d,p) empiricaldispersion=gd3bj scf=xqc pop=npa geom=c
 heck
 ----------------------------------------------------------------------

 -----------------------------------
 CID_45083384_JID_684_Energie_kation
 -----------------------------------
 Structure from the checkpoint file:  "JID_684.chk"
 Charge =  1 Multiplicity = 2

 SCF Done:  E(UB3LYP) =  -497.037098034     A.U. after   29 cycles
 Normal termination of Gaussian 16 at Tue Dec  8 13:04:40 2020.
 Gaussian 16:  ES64L-G16RevA.03 25-Dec-2016

 ----------------------------------------------------------------------
 # B3LYP/6-311++G(d,p) empiricaldispersion=gd3bj scf=xqc pop=npa geom=c
 heck
 ----------------------------------------------------------------------

 ----------------------------------
 CID_45083384_JID_684_Energie_anion
 ----------------------------------
 Structure from the checkpoint file:  "JID_684.chk"
 Charge = -1 Multiplicity = 2

                         Standard orientation:
 ---------------------------------------------------------------------
 Center     Atomic      Atomic             Coordinates (Angstroms)
 Number     Number       Type             X           Y           Z
 ---------------------------------------------------------------------
      1          6           0       -2.871290   -0.193506    1.160596
      2          6           0       -2.161341    0.502012   -0.005244
      3          6           0       -0.683556    0.267137    0.008770
      4          6           0        0.414176    1.064974    0.067631
      5          6           0        1.564172    0.196400    0.020352
      6          6           0        1.067382   -1.077545   -0.069993
      7          8           0       -0.284484   -1.055477   -0.074407
      8          6           0        2.981644    0.562273    0.055628
      9          8           0        3.897739   -0.239372    0.011310
     10          8           0       -2.735734    0.127651   -1.259830
     11          1           0       -2.703960   -1.275855    1.120713
     12          1           0       -3.946538   -0.002694    1.100759
     13          1           0       -2.496268    0.170144    2.123355
     14          1           0       -2.316141    1.583153    0.063989
     15          1           0        0.418363    2.144247    0.132427
     16          1           0        1.542203   -2.043918   -0.135515
     17          1           0        3.180668    1.653367    0.127901
     18          1           0       -2.565610   -0.821338   -1.376646
 ---------------------------------------------------------------------

 SCF Done:  E(UB3LYP) =  -497.372571278     A.U. after   33 cycles
 SCF Done:  E(UB3LYP) =  -497.372571278     a.u. after    1 cycles

 The electronic state is 2-A.
 Alpha  occ. eigenvalues --  -19.04239 -19.01597 -18.92320 -10.12226 -10.08857
 Alpha  occ. eigenvalues --  -10.06251 -10.06011 -10.05613 -10.04123 -10.01854
 Alpha  occ. eigenvalues --   -0.97223  -0.91725  -0.85949  -0.67236  -0.65832
 Alpha  occ. eigenvalues --   -0.59959  -0.52307  -0.49796  -0.44969  -0.42450
 Alpha  occ. eigenvalues --   -0.37148  -0.35814  -0.34328  -0.32474  -0.31911
 Alpha  occ. eigenvalues --   -0.29782  -0.27823  -0.27392  -0.26886  -0.25222
 Alpha  occ. eigenvalues --   -0.23109  -0.22750  -0.22646  -0.17574  -0.14387
 Alpha  occ. eigenvalues --   -0.09534  -0.08525   0.05339
 Alpha virt. eigenvalues --    0.07088   0.09211   0.09742   0.10450   0.11386
 Alpha virt. eigenvalues --    0.12122   0.12891   0.14108   0.14367   0.15702
 Alpha virt. eigenvalues --    0.16687   0.17094   0.17747   0.18774   0.19360

  Beta  occ. eigenvalues --  -19.04001 -19.01592 -18.91852 -10.12220 -10.08898
  Beta  occ. eigenvalues --  -10.05899 -10.05588 -10.05533 -10.04119 -10.01912
  Beta  occ. eigenvalues --   -0.96812  -0.91705  -0.85072  -0.67184  -0.65651
  Beta  occ. eigenvalues --   -0.59636  -0.52139  -0.49036  -0.44626  -0.42256
  Beta  occ. eigenvalues --   -0.36874  -0.35645  -0.34192  -0.32047  -0.31423
  Beta  occ. eigenvalues --   -0.29463  -0.27538  -0.27143  -0.26790  -0.24808
  Beta  occ. eigenvalues --   -0.23013  -0.22455  -0.20421  -0.17548  -0.13671
  Beta  occ. eigenvalues --   -0.08126  -0.07974
  Beta virt. eigenvalues --    0.07605   0.09299   0.09880   0.10598   0.11508
  Beta virt. eigenvalues --    0.12008   0.12212   0.13017   0.14240   0.14921
  Beta virt. eigenvalues --    0.15805   0.16601   0.17019   0.17767   0.18866

 Mulliken charges and spin densities:
               1          2
     1  C    0.880073  -1.373653
     2  C   -2.526506   1.804044
     3  C    0.721804  -1.013871
     4  C    0.043689   0.048823
     5  C    0.980451  -0.463299
     6  C   -0.449769   0.525539
     7  O   -0.030464   0.033630
     8  C   -0.018211   0.183260
     9  O   -0.402770   0.156608
    10  O   -0.199434  -0.005374
    11  H   -0.036247   0.193210
    12  H   -0.429874   0.566846
    13  H   -0.009166   0.145561
    14  H    0.036752   0.141988
    15  H    0.055945   0.073929
    16  H    0.130402  -0.002994
    17  H    0.021283  -0.027129
    18  H    0.232040   0.012881
 Sum of Mulliken charges =  -1.00000   1.00000

 Dipole moment (field-independent basis, Debye):
    X=             -4.0801    Y=              0.6583    Z=             -0.6205  Tot=              4.1792
 Quadrupole moment (field-independent basis, Debye-Ang):
   XX=           -128.5059   YY=            -66.4176   ZZ=            -74.3418
   XY=              4.1568   XZ=              3.0322   YZ=              2.9206

 Summary of Natural Population Analysis:

                                       Natural Population
                Natural  -----------------------------------------------
    Atom  No    Charge         Core      Valence    Rydberg      Total
 -----------------------------------------------------------------------
      C    1   -0.29541      0.99965     2.28991    0.00585     3.29541
      C    2    0.04120      0.99953     1.94480    0.01447     2.95880
      C    3    0.10952      0.99945     1.87465    0.01639     2.89048
      C    4   -0.13067      0.99946     2.12364    0.00757     3.13067
      C    5   -0.13489      0.99951     2.12579    0.00958     3.13489
      C    6    0.18375      0.99947     1.80195    0.01483     2.81625
      O    7   -0.23001      0.99986     3.22148    0.00867     4.23001
      C    8    0.25015      0.99968     1.72959    0.02058     2.74985
      O    9   -0.25939      0.99988     3.25187    0.00765     4.25939
      O   10   -0.37054      0.99990     3.36448    0.00616     4.37054
      H   11    0.10013      0.00000     0.39838    0.00149     0.39987
      H   12    0.09899      0.00000     0.39958    0.00143     0.40101
      H   13    0.10296      0.00000     0.39602    0.00102     0.39704
      H   14    0.08971      0.00000     0.40837    0.00192     0.41029
      H   15    0.10265      0.00000     0.39622    0.00113     0.39735
      H   16    0.08815      0.00000     0.41075    0.00110     0.41185
      H   17    0.02623      0.00000     0.47082    0.00296     0.47377
      H   18    0.22748      0.00000     0.26983    0.00268     0.27252
 =======================================================================
   * Total *    0.00000      9.99639    26.87814    0.12547    37.00000

 Normal termination of Gaussian 16 at Tue Dec  8 13:11:11 2020.
