 Gaussian 16, Revision A.03,

 -----------------------------------------------------------
 # opt freq B3LYP/6-31G(d) empiricaldispersion=gd3bj scf=xqc
 -----------------------------------------------------------

 ------------------------------
 CID_18923529_JID_8308_neutraal
 ------------------------------
 Symbolic Z-matrix:
 Charge =  0 Multiplicity = 1

 SCF Done:  E(RB3LYP) =  -860.107743322     A.U. after   15 cycles
 SCF Done:  E(RB3LYP) =  -860.110745185     A.U. after   13 cycles
 SCF Done:  E(RB3LYP) =  -860.110400790     A.U. after   14 cycles
 SCF Done:  E(RB3LYP) =  -860.112697543     A.U. after   12 cycles
 SCF Done:  E(RB3LYP) =  -860.113248510     A.U. after   13 cycles
 SCF Done:  E(RB3LYP) =  -860.114482518     A.U. after   13 cycles
 SCF Done:  E(RB3LYP) =  -860.115061340     A.U. after   13 cycles
 SCF Done:  E(RB3LYP) =  -860.115328976     A.U. after   12 cycles
 SCF Done:  E(RB3LYP) =  -860.115413604     A.U. after   12 cycles
 SCF Done:  E(RB3LYP) =  -860.115443465     A.U. after   11 cycles
 SCF Done:  E(RB3LYP) =  -860.115477861     A.U. after    9 cycles
 SCF Done:  E(RB3LYP) =  -860.115483842     A.U. after    9 cycles
 SCF Done:  E(RB3LYP) =  -860.115486724     A.U. after    9 cycles
 SCF Done:  E(RB3LYP) =  -860.115487119     A.U. after    8 cycles
 SCF Done:  E(RB3LYP) =  -860.115487230     A.U. after    7 cycles
 SCF Done:  E(RB3LYP) =  -860.115487246     A.U. after    7 cycles
 Optimization completed.
    -- Stationary point found.
 Normal termination of Gaussian 16 at Fri Dec 11 20:00:42 2020.

 --------------------------------------------------------------------
 #N Geom=AllCheck Guess=TCheck SCRF=Check GenChk RB3LYP/6-31G(d) Freq
 --------------------------------------------------------------------

 Structure from the checkpoint file:  "JID_8308.chk"
 ------------------------------
 CID_18923529_JID_8308_neutraal
 ------------------------------
 Charge =  0 Multiplicity = 1

 SCF Done:  E(RB3LYP) =  -860.115487246     A.U. after    1 cycles

  Exact polarizability: 292.599 -19.388 157.123  -0.933 -12.777  82.798
 Approx polarizability: 403.759 -47.892 260.136   1.968 -31.906 127.130

                      1                      2                      3
                      A                      A                      A
 Frequencies --     26.4653                39.5466                47.0936
 Red. masses --      6.7086                 5.5850                 6.5675
 Frc consts  --      0.0028                 0.0051                 0.0086
 IR Inten    --      1.6598                 0.2079                 1.5889

                      4                      5                      6
                      A                      A                      A
 Frequencies --     63.5898                71.0538                89.6753
 Red. masses --      3.5740                 3.6239                 3.4991
 Frc consts  --      0.0085                 0.0108                 0.0166
 IR Inten    --      0.9763                 4.3110                 0.7666

                      7                      8                      9
                      A                      A                      A
 Frequencies --    100.0113               108.8962               122.3167
 Red. masses --      1.4015                 2.4826                 2.5072
 Frc consts  --      0.0083                 0.0173                 0.0221
 IR Inten    --      0.2904                 3.6425                 3.6311

                     10                     11                     12
                      A                      A                      A
 Frequencies --    137.6470               158.8074               199.4599
 Red. masses --      2.8169                 4.2498                 2.8602
 Frc consts  --      0.0314                 0.0631                 0.0670
 IR Inten    --      1.1986                 0.6242                 1.3442

                     13                     14                     15
                      A                      A                      A
 Frequencies --    212.1593               238.9495               269.0746
 Red. masses --      2.5927                 3.9427                 3.9514
 Frc consts  --      0.0688                 0.1326                 0.1686
 IR Inten    --      3.3540                 1.0998                 4.8063

                     16                     17                     18
                      A                      A                      A
 Frequencies --    297.1894               359.4024               396.3400
 Red. masses --      5.2645                 3.7170                 3.6730
 Frc consts  --      0.2739                 0.2829                 0.3399
 IR Inten    --      3.6479                 5.0910                 1.0549

                     19                     20                     21
                      A                      A                      A
 Frequencies --    413.5923               423.0334               428.8977
 Red. masses --      4.7234                 3.0923                 3.5453
 Frc consts  --      0.4760                 0.3260                 0.3842
 IR Inten    --     13.2374                 4.2963                15.2661

                     22                     23                     24
                      A                      A                      A
 Frequencies --    453.4455               486.0802               524.6928
 Red. masses --      4.7377                 2.4536                 4.6742
 Frc consts  --      0.5739                 0.3416                 0.7582
 IR Inten    --      9.8325                 5.3929                 4.3364

                     25                     26                     27
                      A                      A                      A
 Frequencies --    560.0925               589.7510               600.3167
 Red. masses --      2.2505                 1.3184                 4.7900
 Frc consts  --      0.4160                 0.2702                 1.0171
 IR Inten    --      1.3837               124.9748                17.1813

                     28                     29                     30
                      A                      A                      A
 Frequencies --    625.4941               657.9845               698.9020
 Red. masses --      4.2774                 6.8097                 5.2831
 Frc consts  --      0.9860                 1.7370                 1.5204
 IR Inten    --     55.7337                 1.3811                 8.6020

                     31                     32                     33
                      A                      A                      A
 Frequencies --    714.9002               762.6785               799.9231
 Red. masses --      3.3573                 5.0235                 6.3529
 Frc consts  --      1.0109                 1.7216                 2.3951
 IR Inten    --     12.3195                13.9503                26.5010

                     34                     35                     36
                      A                      A                      A
 Frequencies --    843.5436               866.0801               870.5502
 Red. masses --      1.4117                 1.5689                 4.0747
 Frc consts  --      0.5918                 0.6934                 1.8194
 IR Inten    --     20.1527                32.6590                 7.1345

                     37                     38                     39
                      A                      A                      A
 Frequencies --    897.8198               926.6473               934.9825
 Red. masses --      2.0791                 4.4815                 4.5589
 Frc consts  --      0.9874                 2.2673                 2.3481
 IR Inten    --      1.8423                20.4211                22.6453

                     40                     41                     42
                      A                      A                      A
 Frequencies --    944.6484               961.5676               999.0952
 Red. masses --      2.9843                 1.3178                 1.3113
 Frc consts  --      1.5690                 0.7179                 0.7712
 IR Inten    --      2.7321                 0.5578                 7.0070

                     43                     44                     45
                      A                      A                      A
 Frequencies --   1010.2073              1030.2318              1041.8949
 Red. masses --      2.3369                 1.1533                 2.5788
 Frc consts  --      1.4051                 0.7212                 1.6494
 IR Inten    --     46.1933                23.7394                10.3481

                     46                     47                     48
                      A                      A                      A
 Frequencies --   1100.0222              1132.2875              1153.3100
 Red. masses --      3.1182                 2.7317                 1.5025
 Frc consts  --      2.2231                 2.0635                 1.1775
 IR Inten    --     10.7225               274.2119                 9.0432

                     49                     50                     51
                      A                      A                      A
 Frequencies --   1162.8708              1174.5463              1195.1386
 Red. masses --      1.4220                 2.0477                 1.2795
 Frc consts  --      1.1329                 1.6644                 1.0767
 IR Inten    --     25.1525                53.9353                 8.8908

                     52                     53                     54
                      A                      A                      A
 Frequencies --   1197.2948              1223.0864              1226.0978
 Red. masses --      1.8275                 1.5088                 1.2209
 Frc consts  --      1.5435                 1.3298                 1.0814
 IR Inten    --    420.9183                 9.0448                17.6734

                     55                     56                     57
                      A                      A                      A
 Frequencies --   1257.9868              1302.9047              1308.8587
 Red. masses --      1.6889                 1.9845                 1.8143
 Frc consts  --      1.5747                 1.9848                 1.8313
 IR Inten    --      5.6577                64.2604                26.8307

                     58                     59                     60
                      A                      A                      A
 Frequencies --   1336.6460              1345.4831              1362.7167
 Red. masses --      1.6996                 1.8803                 2.6479
 Frc consts  --      1.7891                 2.0056                 2.8971
 IR Inten    --     21.7377                 8.0989                42.3610

                     61                     62                     63
                      A                      A                      A
 Frequencies --   1375.4106              1392.0570              1401.1230
 Red. masses --      1.8535                 1.8705                 2.5391
 Frc consts  --      2.0658                 2.1356                 2.9369
 IR Inten    --     27.1391               270.3601                95.5667

                     64                     65                     66
                      A                      A                      A
 Frequencies --   1420.1527              1468.3454              1478.5872
 Red. masses --      1.7872                 1.2961                 2.5013
 Frc consts  --      2.1237                 1.6464                 3.2219
 IR Inten    --     94.5121                11.5413                13.6321

                     67                     68                     69
                      A                      A                      A
 Frequencies --   1499.6538              1514.8022              1515.8627
 Red. masses --      1.1167                 1.0802                 1.0620
 Frc consts  --      1.4797                 1.4604                 1.4378
 IR Inten    --      2.1785                13.3933                 5.7948

                     70                     71                     72
                      A                      A                      A
 Frequencies --   1517.4757              1540.1195              1544.1092
 Red. masses --      1.0942                 1.0592                 1.0769
 Frc consts  --      1.4846                 1.4802                 1.5127
 IR Inten    --     13.7047                12.7880                 9.6670

                     73                     74                     75
                      A                      A                      A
 Frequencies --   1567.3226              1617.1814              1666.2370
 Red. masses --      2.4406                 6.2319                 5.4905
 Frc consts  --      3.5323                 9.6026                 8.9812
 IR Inten    --    118.8696                31.5942               208.8279

                     76                     77                     78
                      A                      A                      A
 Frequencies --   1700.9561              1752.6082              1816.8020
 Red. masses --      5.7517                 9.9081                 8.8932
 Frc consts  --      9.8046                17.9313                17.2952
 IR Inten    --     52.8309               418.7996               517.6258

                     79                     80                     81
                      A                      A                      A
 Frequencies --   3024.2961              3049.1870              3059.5871
 Red. masses --      1.0391                 1.0669                 1.0447
 Frc consts  --      5.5995                 5.8446                 5.7618
 IR Inten    --     62.5841                40.4704                37.0884

                     82                     83                     84
                      A                      A                      A
 Frequencies --   3093.8828              3141.9682              3144.1751
 Red. masses --      1.0981                 1.0911                 1.0981
 Frc consts  --      6.1929                 6.3461                 6.3962
 IR Inten    --     32.6009                16.6574                23.0407

                     85                     86                     87
                      A                      A                      A
 Frequencies --   3150.0176              3187.1161              3187.7452
 Red. masses --      1.1031                 1.0913                 1.1033
 Frc consts  --      6.4488                 6.5311                 6.6056
 IR Inten    --     23.5450                 1.6028                 3.7085

                     88                     89                     90
                      A                      A                      A
 Frequencies --   3191.6343              3207.1349              3216.1815
 Red. masses --      1.0891                 1.0892                 1.0933
 Frc consts  --      6.5363                 6.6006                 6.6628
 IR Inten    --     12.1684                 6.2844                10.5873

                     91                     92                     93
                      A                      A                      A
 Frequencies --   3224.7425              3232.4543              3705.7643
 Red. masses --      1.0890                 1.0939                 1.0643
 Frc consts  --      6.6725                 6.7346                 8.6109
 IR Inten    --      8.3745                 4.9615                86.8876

 - Thermochemistry -
 -------------------
 Temperature   298.150 Kelvin.  Pressure   1.00000 Atm.
 Atom     1 has atomic number  6 and mass  12.00000

 Molecular mass:   249.10011 amu.
 Principal axes and moments of inertia in atomic units:
                           1         2         3
     Eigenvalues --  1912.19683********************
           X            0.99996   0.00832  -0.00256
           Y           -0.00832   0.99997  -0.00003
           Z            0.00256   0.00005   1.00000
 This molecule is an asymmetric top.
 Rotational symmetry number  1.
 Warning -- assumption of classical behavior for rotation
           may cause significant error
 Rotational temperatures (Kelvin)      0.04530     0.00745     0.00657
 Rotational constants (GHZ):           0.94381     0.15528     0.13691
 Zero-point vibrational energy     700345.8 (Joules/Mol)
                                  167.38666 (Kcal/Mol)
 Warning -- explicit consideration of  27 degrees of freedom as
           vibrations may cause significant error
 Vibrational temperatures:     38.08    56.90    67.76    91.49   102.23
          (Kelvin)            129.02   143.89   156.68   175.99   198.04
                              228.49   286.98   305.25   343.80   387.14
                              427.59   517.10   570.24   595.07   608.65
                              617.09   652.41   699.36   754.92   805.85
                              848.52   863.72   899.95   946.69  1005.56
                             1028.58  1097.32  1150.91  1213.67  1246.10
                             1252.53  1291.76  1333.24  1345.23  1359.14
                             1383.48  1437.48  1453.46  1482.27  1499.05
                             1582.69  1629.11  1659.36  1673.11  1689.91
                             1719.54  1722.64  1759.75  1764.08  1809.96
                             1874.59  1883.16  1923.14  1935.85  1960.65
                             1978.91  2002.86  2015.90  2043.28  2112.62
                             2127.36  2157.67  2179.46  2180.99  2183.31
                             2215.89  2221.63  2255.03  2326.76  2397.34
                             2447.30  2521.61  2613.97  4351.29  4387.10
                             4402.06  4451.41  4520.59  4523.77  4532.17
                             4585.55  4586.45  4592.05  4614.35  4627.37
                             4639.69  4650.78  5331.77

 Zero-point correction=                           0.266748 (Hartree/Particle)
 Thermal correction to Energy=                    0.284729
 Thermal correction to Enthalpy=                  0.285673
 Thermal correction to Gibbs Free Energy=         0.218475
 Sum of electronic and zero-point Energies=           -859.848740
 Sum of electronic and thermal Energies=              -859.830759
 Sum of electronic and thermal Enthalpies=            -859.829814
 Sum of electronic and thermal Free Energies=         -859.897012

                     E (Thermal)             CV                S
                      KCal/Mol        Cal/Mol-Kelvin    Cal/Mol-Kelvin
 Total                  178.670             64.992            141.430
 Electronic               0.000              0.000              0.000
 Translational            0.889              2.981             42.439
 Rotational               0.889              2.981             34.037
 Vibrational            176.892             59.030             64.954
 Vibration     1          0.593              1.985              6.078
 Vibration     2          0.594              1.981              5.282
 Vibration     3          0.595              1.979              4.936
 Vibration     4          0.597              1.972              4.343
 Vibration     5          0.598              1.968              4.124
 Vibration     6          0.602              1.956              3.667
 Vibration     7          0.604              1.949              3.454
 Vibration     8          0.606              1.942              3.288
 Vibration     9          0.610              1.930              3.063
 Vibration    10          0.614              1.916              2.836
 Vibration    11          0.621              1.893              2.564
 Vibration    12          0.638              1.841              2.138
 Vibration    13          0.643              1.822              2.025
 Vibration    14          0.657              1.781              1.811
 Vibration    15          0.673              1.730              1.602
 Vibration    16          0.691              1.679              1.433
 Vibration    17          0.734              1.556              1.125
 Vibration    18          0.763              1.478              0.976
 Vibration    19          0.777              1.441              0.914
 Vibration    20          0.785              1.420              0.882
 Vibration    21          0.790              1.407              0.862
 Vibration    22          0.812              1.353              0.785
 Vibration    23          0.842              1.281              0.694
 Vibration    24          0.880              1.195              0.599
 Vibration    25          0.916              1.118              0.524
 Vibration    26          0.947              1.054              0.468
 Vibration    27          0.958              1.031              0.449

                           ! Non-Optimized Parameters !
 Normal termination of Gaussian 16 at Fri Dec 11 20:11:23 2020.

 ----------------------------------------------------------------------
 # B3LYP/6-311++G(d,p) empiricaldispersion=gd3bj scf=xqc pop=npa geom=c
 heck
 ----------------------------------------------------------------------

 --------------------------------------
 CID_18923529_JID_8308_Energie_neutraal
 --------------------------------------
 Structure from the checkpoint file:  "JID_8308.chk"
 Charge =  0 Multiplicity = 1

 SCF Done:  E(RB3LYP) =  -860.367231911     A.U. after   15 cycles
 Normal termination of Gaussian 16 at Fri Dec 11 20:16:40 2020.

 ----------------------------------------------------------------------
 # B3LYP/6-311++G(d,p) empiricaldispersion=gd3bj scf=xqc pop=npa geom=c
 heck
 ----------------------------------------------------------------------

 ------------------------------------
 CID_18923529_JID_8308_Energie_kation
 ------------------------------------
 Structure from the checkpoint file:  "JID_8308.chk"
 Charge =  1 Multiplicity = 2

 SCF Done:  E(UB3LYP) =  -860.073709382     A.U. after   23 cycles
 Normal termination of Gaussian 16 at Fri Dec 11 20:28:19 2020.
 Gaussian 16:  ES64L-G16RevA.03 25-Dec-2016

 ----------------------------------------------------------------------
 # B3LYP/6-311++G(d,p) empiricaldispersion=gd3bj scf=xqc pop=npa geom=c
 heck
 ----------------------------------------------------------------------

 -----------------------------------
 CID_18923529_JID_8308_Energie_anion
 -----------------------------------
 Structure from the checkpoint file:  "JID_8308.chk"
 Charge = -1 Multiplicity = 2

                         Standard orientation:
 ---------------------------------------------------------------------
 Center     Atomic      Atomic             Coordinates (Angstroms)
 Number     Number       Type             X           Y           Z
 ---------------------------------------------------------------------
      1          6           0        3.050770   -2.314637   -0.796033
      2          7           0        2.560757   -1.071579   -0.189396
      3          6           0        1.156996   -0.880062   -0.099281
      4          6           0        0.560651    0.340780   -0.456176
      5          6           0       -0.815944    0.493242   -0.381854
      6          6           0       -1.650114   -0.566811    0.019070
      7          6           0       -1.040063   -1.789129    0.348761
      8          6           0        0.339112   -1.947400    0.296017
      9          6           0       -3.103200   -0.458981    0.101751
     10          6           0       -3.850657    0.632255   -0.150867
     11          6           0       -5.315580    0.660500   -0.046203
     12          8           0       -5.999613    1.640229   -0.273911
     13          8           0       -5.863994   -0.527513    0.336056
     14          6           0        3.524937   -0.222138    0.322090
     15          8           0        4.719071   -0.473522    0.191708
     16          6           0        3.092985    1.057502    1.044792
     17          8           0        2.978913    2.153533    0.149912
     18          6           0        4.225489    2.605025   -0.366351
     19          1           0        2.307179   -2.678915   -1.506140
     20          1           0        3.242618   -3.084784   -0.039603
     21          1           0        3.989405   -2.101134   -1.306814
     22          1           0        1.186171    1.163870   -0.781685
     23          1           0       -1.249802    1.447654   -0.662035
     24          1           0       -1.661418   -2.623807    0.662354
     25          1           0        0.786155   -2.896139    0.573764
     26          1           0       -3.623256   -1.365538    0.402904
     27          1           0       -3.420017    1.580938   -0.452513
     28          1           0       -6.824842   -0.368575    0.364856
     29          1           0        2.122475    0.956899    1.533533
     30          1           0        3.864456    1.253441    1.800933
     31          1           0        4.905739    2.892077    0.448422
     32          1           0        4.720368    1.841251   -0.977246
     33          1           0        4.002145    3.481124   -0.979367
 ---------------------------------------------------------------------

 SCF Done:  E(UB3LYP) =  -860.399664684     A.U. after   21 cycles

 The electronic state is 2-A.
 Alpha  occ. eigenvalues --  -19.04584 -19.02799 -18.98922 -18.95413 -14.24974
 Alpha  occ. eigenvalues --  -10.16675 -10.14199 -10.13117 -10.12936 -10.10435
 Alpha  occ. eigenvalues --  -10.08053 -10.05183 -10.04808 -10.04757 -10.04164
 Alpha  occ. eigenvalues --  -10.03841 -10.02373 -10.01326  -0.96240  -0.96003
 Alpha  occ. eigenvalues --   -0.93702  -0.86828  -0.84002  -0.72931  -0.66190
 Alpha  occ. eigenvalues --   -0.65879  -0.62694  -0.61552  -0.60258  -0.56299
 Alpha  occ. eigenvalues --   -0.53124  -0.49164  -0.48176  -0.44487  -0.43340
 Alpha  occ. eigenvalues --   -0.42574  -0.40636  -0.40289  -0.37384  -0.36580
 Alpha  occ. eigenvalues --   -0.35671  -0.34977  -0.34298  -0.33483  -0.32614
 Alpha  occ. eigenvalues --   -0.31269  -0.30937  -0.30616  -0.29922  -0.29847
 Alpha  occ. eigenvalues --   -0.29172  -0.27990  -0.26009  -0.25450  -0.25057
 Alpha  occ. eigenvalues --   -0.24711  -0.23028  -0.21379  -0.19864  -0.19000
 Alpha  occ. eigenvalues --   -0.18581  -0.15606  -0.14635  -0.13778  -0.13534
 Alpha  occ. eigenvalues --   -0.09492   0.02347
 Alpha virt. eigenvalues --    0.06852   0.07542   0.08583   0.09009   0.09119
 Alpha virt. eigenvalues --    0.09778   0.10202   0.10795   0.11102   0.11535
 Alpha virt. eigenvalues --    0.12237   0.12315   0.12942   0.13366   0.14047

  Beta  occ. eigenvalues --  -19.04569 -19.02768 -18.98824 -18.95139 -14.25037
  Beta  occ. eigenvalues --  -10.16588 -10.14068 -10.13122 -10.12937 -10.10416
  Beta  occ. eigenvalues --  -10.07727 -10.05203 -10.04897 -10.04679 -10.04081
  Beta  occ. eigenvalues --  -10.03640 -10.02087 -10.01113  -0.96045  -0.95939
  Beta  occ. eigenvalues --   -0.93566  -0.86441  -0.83881  -0.72655  -0.66061
  Beta  occ. eigenvalues --   -0.65379  -0.62503  -0.61224  -0.60002  -0.56253
  Beta  occ. eigenvalues --   -0.52570  -0.48996  -0.47969  -0.44284  -0.42974
  Beta  occ. eigenvalues --   -0.42489  -0.40579  -0.40218  -0.37319  -0.36469
  Beta  occ. eigenvalues --   -0.35443  -0.34911  -0.34155  -0.33294  -0.32469
  Beta  occ. eigenvalues --   -0.31148  -0.30879  -0.29831  -0.29791  -0.29720
  Beta  occ. eigenvalues --   -0.29080  -0.27670  -0.25742  -0.24876  -0.24853
  Beta  occ. eigenvalues --   -0.24481  -0.22787  -0.21240  -0.19601  -0.18131
  Beta  occ. eigenvalues --   -0.17605  -0.15468  -0.13731  -0.13247  -0.13117
  Beta  occ. eigenvalues --   -0.07992
  Beta virt. eigenvalues --    0.06829   0.07341   0.07852   0.08939   0.09023
  Beta virt. eigenvalues --    0.09406   0.09783   0.10306   0.10884   0.11225
  Beta virt. eigenvalues --    0.11574   0.12226   0.12617   0.12967   0.13525

 Mulliken charges and spin densities:
               1          2
     1  C   -0.322238   0.002257
     2  N    0.198983  -0.024489
     3  C   -0.801752   0.176019
     4  C   -0.330586  -0.045984
     5  C   -0.776157   0.171285
     6  C    0.948890   0.032521
     7  C   -0.048962   0.077521
     8  C   -0.144580   0.023179
     9  C   -0.273952   0.171499
    10  C   -0.096193   0.126190
    11  C    0.074326   0.133223
    12  O   -0.402885   0.089144
    13  O   -0.228445   0.008094
    14  C    0.109428   0.049221
    15  O   -0.346285   0.032628
    16  C   -0.577303   0.003867
    17  O   -0.056544   0.001038
    18  C   -0.281065   0.000888
    19  H    0.149707  -0.000435
    20  H    0.163616   0.001104
    21  H    0.149740   0.006198
    22  H    0.248057   0.007395
    23  H    0.084448  -0.010533
    24  H    0.122679  -0.001429
    25  H    0.117352   0.000613
    26  H    0.139296  -0.019100
    27  H    0.141119  -0.015266
    28  H    0.254771  -0.000128
    29  H    0.211790   0.001147
    30  H    0.155170   0.002225
    31  H    0.119083   0.000247
    32  H    0.168409   0.000072
    33  H    0.130086  -0.000211
 Sum of Mulliken charges =  -1.00000   1.00000

 Dipole moment (field-independent basis, Debye):
    X=              8.1046    Y=             -2.1185    Z=              0.4492  Tot=              8.3889
 Quadrupole moment (field-independent basis, Debye-Ang):
   XX=           -206.3383   YY=           -118.0933   ZZ=           -112.9875
   XY=             22.2663   XZ=             -5.7144   YZ=              0.4881

 Summary of Natural Population Analysis:

                                       Natural Population
                Natural  -----------------------------------------------
    Atom  No    Charge         Core      Valence    Rydberg      Total
 -----------------------------------------------------------------------
      C    1   -0.17704      0.99965     2.17048    0.00691     3.17704
      N    2   -0.25001      0.99962     2.73964    0.01075     3.75001
      C    3    0.12011      0.99947     1.86908    0.01134     2.87989
      C    4   -0.14957      0.99956     2.13734    0.01267     3.14957
      C    5   -0.01819      0.99956     2.01374    0.00490     3.01819
      C    6   -0.03872      0.99954     2.02757    0.01161     3.03872
      C    7   -0.06845      0.99954     2.06063    0.00827     3.06845
      C    8   -0.12925      0.99953     2.12170    0.00802     3.12925
      C    9   -0.01641      0.99953     2.00767    0.00921     3.01641
      C   10   -0.12179      0.99948     2.11253    0.00977     3.12179
      C   11    0.39692      0.99969     1.57846    0.02494     2.60308
      O   12   -0.30712      0.99987     3.29946    0.00779     4.30712
      O   13   -0.35889      0.99988     3.35283    0.00617     4.35889
      C   14    0.33957      0.99967     1.64003    0.02073     2.66043
      O   15   -0.32599      0.99988     3.31959    0.00652     4.32599
      C   16   -0.04822      0.99956     2.03802    0.01064     3.04822
      O   17   -0.29268      0.99989     3.28269    0.01010     4.29268
      C   18   -0.10086      0.99962     2.09258    0.00866     3.10086
      H   19    0.09919      0.00000     0.39992    0.00089     0.40081
      H   20    0.09017      0.00000     0.40870    0.00113     0.40983
      H   21    0.10718      0.00000     0.39165    0.00117     0.39282
      H   22    0.10902      0.00000     0.38872    0.00226     0.39098
      H   23    0.09673      0.00000     0.40261    0.00066     0.40327
      H   24    0.09250      0.00000     0.40610    0.00140     0.40750
      H   25    0.09571      0.00000     0.40357    0.00072     0.40429
      H   26    0.09190      0.00000     0.40642    0.00168     0.40810
      H   27    0.09293      0.00000     0.40523    0.00184     0.40707
      H   28    0.23028      0.00000     0.26639    0.00333     0.26972
      H   29    0.10549      0.00000     0.39359    0.00092     0.39451
      H   30    0.08554      0.00000     0.41301    0.00145     0.41446
      H   31    0.07623      0.00000     0.42253    0.00124     0.42377
      H   32    0.08775      0.00000     0.41089    0.00136     0.41225
      H   33    0.08602      0.00000     0.41317    0.00081     0.41398
 =======================================================================
   * Total *    0.00009     17.99354    47.79652    0.20985    65.99991

 Normal termination of Gaussian 16 at Fri Dec 11 20:39:00 2020.
