 Gaussian 16, Revision A.03,

 -----------------------------------------------------------
 # opt freq B3LYP/6-31G(d) empiricaldispersion=gd3bj scf=xqc
 -----------------------------------------------------------

 -------------------------------
 CID_116464015_JID_3372_neutraal
 -------------------------------
 Symbolic Z-matrix:
 Charge =  0 Multiplicity = 1

 SCF Done:  E(RB3LYP) =  -627.400079164     A.U. after   15 cycles
 SCF Done:  E(RB3LYP) =  -627.404527836     A.U. after   12 cycles
 SCF Done:  E(RB3LYP) =  -627.405176960     A.U. after   12 cycles
 SCF Done:  E(RB3LYP) =  -627.405661408     A.U. after   13 cycles
 SCF Done:  E(RB3LYP) =  -627.406096647     A.U. after   13 cycles
 SCF Done:  E(RB3LYP) =  -627.406264764     A.U. after   13 cycles
 SCF Done:  E(RB3LYP) =  -627.406659540     A.U. after   12 cycles
 SCF Done:  E(RB3LYP) =  -627.406723284     A.U. after   11 cycles
 SCF Done:  E(RB3LYP) =  -627.406739473     A.U. after   10 cycles
 SCF Done:  E(RB3LYP) =  -627.406743540     A.U. after   10 cycles
 SCF Done:  E(RB3LYP) =  -627.406813128     A.U. after    9 cycles
 SCF Done:  E(RB3LYP) =  -627.406816382     A.U. after   11 cycles
 SCF Done:  E(RB3LYP) =  -627.406832847     A.U. after   11 cycles
 SCF Done:  E(RB3LYP) =  -627.406835236     A.U. after   10 cycles
 SCF Done:  E(RB3LYP) =  -627.406836151     A.U. after    9 cycles
 Optimization completed.
    -- Stationary point found.
 Normal termination of Gaussian 16 at Wed Dec  9 23:09:54 2020.

 --------------------------------------------------------------------
 #N Geom=AllCheck Guess=TCheck SCRF=Check GenChk RB3LYP/6-31G(d) Freq
 --------------------------------------------------------------------

 Structure from the checkpoint file:  "JID_3372.chk"
 -------------------------------
 CID_116464015_JID_3372_neutraal
 -------------------------------
 Charge =  0 Multiplicity = 1

 SCF Done:  E(RB3LYP) =  -627.406836151     A.U. after    1 cycles

  Exact polarizability: 147.575   2.549 107.588  -2.254  -4.935  71.712
 Approx polarizability: 190.910  -0.337 171.251  -5.954 -16.684 108.572

                      1                      2                      3
                      A                      A                      A
 Frequencies --     38.3159                64.9068                67.0439
 Red. masses --      4.3422                 1.6739                 1.4983
 Frc consts  --      0.0038                 0.0042                 0.0040
 IR Inten    --      1.3638                 1.2882                 1.9102

                      4                      5                      6
                      A                      A                      A
 Frequencies --     94.7144               108.1312               130.0945
 Red. masses --      3.0718                 4.0624                 3.4441
 Frc consts  --      0.0162                 0.0280                 0.0343
 IR Inten    --      0.2444                 1.2774                 3.1809

                      7                      8                      9
                      A                      A                      A
 Frequencies --    137.2068               185.0961               215.1129
 Red. masses --      3.1054                 4.0022                 1.9215
 Frc consts  --      0.0344                 0.0808                 0.0524
 IR Inten    --      2.0069                 0.2990                 4.4535

                     10                     11                     12
                      A                      A                      A
 Frequencies --    228.4012               242.4632               290.4991
 Red. masses --      1.9256                 1.4116                 2.0848
 Frc consts  --      0.0592                 0.0489                 0.1037
 IR Inten    --      0.8999                22.7758                 7.3886

                     13                     14                     15
                      A                      A                      A
 Frequencies --    326.2966               355.9398               404.3067
 Red. masses --      2.4372                 3.5793                 4.4793
 Frc consts  --      0.1529                 0.2672                 0.4314
 IR Inten    --     28.1049                 1.7300                 2.5225

                     16                     17                     18
                      A                      A                      A
 Frequencies --    415.7751               471.4493               539.8463
 Red. masses --      6.0701                 3.5273                 4.1434
 Frc consts  --      0.6183                 0.4619                 0.7114
 IR Inten    --      1.4886                 3.5787                 6.8062

                     19                     20                     21
                      A                      A                      A
 Frequencies --    620.9473               656.6019               696.0701
 Red. masses --      4.1719                 5.8047                 4.2112
 Frc consts  --      0.9477                 1.4745                 1.2022
 IR Inten    --      1.8615                 4.4912                14.9338

                     22                     23                     24
                      A                      A                      A
 Frequencies --    762.2359               779.7748               790.2818
 Red. masses --      3.6316                 2.1293                 1.6406
 Frc consts  --      1.2432                 0.7628                 0.6037
 IR Inten    --     13.1725                11.5530                 6.3662

                     25                     26                     27
                      A                      A                      A
 Frequencies --    806.7067               859.1803               873.8918
 Red. masses --      3.0884                 2.0534                 1.3777
 Frc consts  --      1.1842                 0.8931                 0.6199
 IR Inten    --     27.9676                24.7571                76.1909

                     28                     29                     30
                      A                      A                      A
 Frequencies --    902.3905              1006.4436              1035.6407
 Red. masses --      2.6443                 1.7853                 3.8142
 Frc consts  --      1.2687                 1.0655                 2.4103
 IR Inten    --      2.1641                26.8421                 7.6155

                     31                     32                     33
                      A                      A                      A
 Frequencies --   1041.5784              1059.7156              1088.8175
 Red. masses --      5.0973                 2.9473                 1.5965
 Frc consts  --      3.2582                 1.9501                 1.1151
 IR Inten    --     21.2952                25.9584                 9.1549

                     34                     35                     36
                      A                      A                      A
 Frequencies --   1134.3024              1155.8705              1157.3389
 Red. masses --      1.9756                 2.2241                 1.8397
 Frc consts  --      1.4977                 1.7507                 1.4519
 IR Inten    --     12.3926                62.6443               154.3060

                     37                     38                     39
                      A                      A                      A
 Frequencies --   1179.4042              1213.4529              1216.1132
 Red. masses --      1.3651                 1.7927                 1.4173
 Frc consts  --      1.1188                 1.5553                 1.2350
 IR Inten    --     31.5680                42.9760                10.7343

                     40                     41                     42
                      A                      A                      A
 Frequencies --   1278.4488              1317.7538              1339.4473
 Red. masses --      4.8381                 1.4972                 1.1231
 Frc consts  --      4.6590                 1.5318                 1.1872
 IR Inten    --    303.5690                59.4674                11.8548

                     43                     44                     45
                      A                      A                      A
 Frequencies --   1366.1868              1410.5948              1417.1816
 Red. masses --      3.0689                 2.5194                 1.6951
 Frc consts  --      3.3748                 2.9536                 2.0059
 IR Inten    --      0.4695                21.5676                25.3510

                     46                     47                     48
                      A                      A                      A
 Frequencies --   1437.4893              1442.8287              1465.9225
 Red. masses --      1.6889                 1.3075                 1.7751
 Frc consts  --      2.0561                 1.6037                 2.2475
 IR Inten    --     28.1012                14.9346                 5.7679

                     49                     50                     51
                      A                      A                      A
 Frequencies --   1485.3321              1504.8826              1511.0027
 Red. masses --      1.8449                 3.6015                 1.0618
 Frc consts  --      2.3982                 4.8055                 1.4283
 IR Inten    --      6.6803                46.6334                 9.2860

                     52                     53                     54
                      A                      A                      A
 Frequencies --   1511.4330              1522.2153              1534.1652
 Red. masses --      1.0469                 1.1589                 1.0965
 Frc consts  --      1.4090                 1.5821                 1.5205
 IR Inten    --      3.7273                18.2791                 0.6862

                     55                     56                     57
                      A                      A                      A
 Frequencies --   1540.9701              1541.6517              1606.3540
 Red. masses --      1.0816                 1.1521                 5.9325
 Frc consts  --      1.5132                 1.6133                 9.0192
 IR Inten    --     19.7764                 6.7295                 9.8115

                     58                     59                     60
                      A                      A                      A
 Frequencies --   1689.2291              1817.5390              2960.2753
 Red. masses --      1.0960                11.8520                 1.0746
 Frc consts  --      1.8426                23.0680                 5.5482
 IR Inten    --     26.5315               238.3803                97.2615

                     61                     62                     63
                      A                      A                      A
 Frequencies --   3062.0868              3068.4772              3090.9806
 Red. masses --      1.0374                 1.0373                 1.0582
 Frc consts  --      5.7307                 5.7542                 5.9570
 IR Inten    --     22.5817                51.0144                36.6515

                     64                     65                     66
                      A                      A                      A
 Frequencies --   3109.6017              3134.6703              3136.1384
 Red. masses --      1.0870                 1.1029                 1.1031
 Frc consts  --      6.1930                 6.3854                 6.3924
 IR Inten    --     14.8586                21.1449                14.0027

                     67                     68                     69
                      A                      A                      A
 Frequencies --   3141.2562              3159.4617              3178.8363
 Red. masses --      1.1004                 1.1064                 1.1049
 Frc consts  --      6.3975                 6.5068                 6.5783
 IR Inten    --     14.7301                23.9446                 4.4522

                     70                     71                     72
                      A                      A                      A
 Frequencies --   3266.0055              3458.3167              3548.4544
 Red. masses --      1.0976                 1.0493                 1.0929
 Frc consts  --      6.8983                 7.3942                 8.1082
 IR Inten    --      1.8360                 4.4741                 0.8982

 - Thermochemistry -
 -------------------
 Temperature   298.150 Kelvin.  Pressure   1.00000 Atm.
 Atom     1 has atomic number  6 and mass  12.00000

 Molecular mass:   183.10078 amu.
 Principal axes and moments of inertia in atomic units:
                           1         2         3
     Eigenvalues --  1319.284563366.377834340.03187
           X            0.99996   0.00855   0.00258
           Y           -0.00857   0.99995   0.00426
           Z           -0.00255  -0.00429   0.99999
 This molecule is an asymmetric top.
 Rotational symmetry number  1.
 Warning -- assumption of classical behavior for rotation
           may cause significant error
 Rotational temperatures (Kelvin)      0.06565     0.02573     0.01996
 Rotational constants (GHZ):           1.36797     0.53611     0.41584
 Zero-point vibrational energy     570663.9 (Joules/Mol)
                                  136.39194 (Kcal/Mol)
 Warning -- explicit consideration of  18 degrees of freedom as
           vibrations may cause significant error
 Vibrational temperatures:     55.13    93.39    96.46   136.27   155.58
          (Kelvin)            187.18   197.41   266.31   309.50   328.62
                              348.85   417.96   469.47   512.12   581.71
                              598.21   678.31   776.72   893.40   944.70
                             1001.49  1096.69  1121.92  1137.04  1160.67
                             1236.17  1257.34  1298.34  1448.05  1490.06
                             1498.60  1524.69  1566.57  1632.01  1663.04
                             1665.15  1696.90  1745.89  1749.72  1839.40
                             1895.95  1927.17  1965.64  2029.53  2039.01
                             2068.23  2075.91  2109.14  2137.06  2165.19
                             2174.00  2174.61  2190.13  2207.32  2217.11
                             2218.09  2311.19  2430.42  2615.03  4259.18
                             4405.66  4414.85  4447.23  4474.02  4510.09
                             4512.20  4519.57  4545.76  4573.64  4699.05
                             4975.75  5105.43

 Zero-point correction=                           0.217354 (Hartree/Particle)
 Thermal correction to Energy=                    0.231097
 Thermal correction to Enthalpy=                  0.232041
 Thermal correction to Gibbs Free Energy=         0.176092
 Sum of electronic and zero-point Energies=           -627.189482
 Sum of electronic and thermal Energies=              -627.175739
 Sum of electronic and thermal Enthalpies=            -627.174795
 Sum of electronic and thermal Free Energies=         -627.230744

                     E (Thermal)             CV                S
                      KCal/Mol        Cal/Mol-Kelvin    Cal/Mol-Kelvin
 Total                  145.016             48.832            117.756
 Electronic               0.000              0.000              0.000
 Translational            0.889              2.981             41.521
 Rotational               0.889              2.981             31.333
 Vibrational            143.238             42.870             44.901
 Vibration     1          0.594              1.982              5.344
 Vibration     2          0.597              1.971              4.302
 Vibration     3          0.598              1.970              4.238
 Vibration     4          0.603              1.953              3.560
 Vibration     5          0.606              1.943              3.302
 Vibration     6          0.612              1.923              2.945
 Vibration     7          0.614              1.916              2.842
 Vibration     8          0.631              1.860              2.276
 Vibration     9          0.645              1.818              2.000
 Vibration    10          0.651              1.798              1.891
 Vibration    11          0.659              1.775              1.785
 Vibration    12          0.686              1.691              1.471
 Vibration    13          0.710              1.623              1.278
 Vibration    14          0.731              1.563              1.140
 Vibration    15          0.769              1.461              0.947
 Vibration    16          0.779              1.436              0.906
 Vibration    17          0.828              1.313              0.734
 Vibration    18          0.895              1.162              0.566

                           ! Non-Optimized Parameters !
 Normal termination of Gaussian 16 at Wed Dec  9 23:15:47 2020.

 ----------------------------------------------------------------------
 # B3LYP/6-311++G(d,p) empiricaldispersion=gd3bj scf=xqc pop=npa geom=c
 heck
 ----------------------------------------------------------------------

 ---------------------------------------
 CID_116464015_JID_3372_Energie_neutraal
 ---------------------------------------
 Structure from the checkpoint file:  "JID_3372.chk"
 Charge =  0 Multiplicity = 1

 SCF Done:  E(RB3LYP) =  -627.591209902     A.U. after   15 cycles
 Normal termination of Gaussian 16 at Wed Dec  9 23:18:34 2020.

 ----------------------------------------------------------------------
 # B3LYP/6-311++G(d,p) empiricaldispersion=gd3bj scf=xqc pop=npa geom=c
 heck
 ----------------------------------------------------------------------

 -------------------------------------
 CID_116464015_JID_3372_Energie_kation
 -------------------------------------
 Structure from the checkpoint file:  "JID_3372.chk"
 Charge =  1 Multiplicity = 2

 SCF Done:  E(UB3LYP) =  -627.273555362     A.U. after   28 cycles
 Normal termination of Gaussian 16 at Wed Dec  9 23:25:49 2020.
 Gaussian 16:  ES64L-G16RevA.03 25-Dec-2016

 ----------------------------------------------------------------------
 # B3LYP/6-311++G(d,p) empiricaldispersion=gd3bj scf=xqc pop=npa geom=c
 heck
 ----------------------------------------------------------------------

 ------------------------------------
 CID_116464015_JID_3372_Energie_anion
 ------------------------------------
 Structure from the checkpoint file:  "JID_3372.chk"
 Charge = -1 Multiplicity = 2

                         Standard orientation:
 ---------------------------------------------------------------------
 Center     Atomic      Atomic             Coordinates (Angstroms)
 Number     Number       Type             X           Y           Z
 ---------------------------------------------------------------------
      1          6           0        3.650650   -0.165175    0.689634
      2          6           0        3.078525   -0.631086   -0.640585
      3          8           0        1.689003   -0.258550   -0.755206
      4          6           0        0.804680   -1.038561   -0.090235
      5          8           0        1.085969   -2.094122    0.435489
      6          6           0       -0.540669   -0.421081   -0.103244
      7          7           0       -1.613826   -1.193115    0.109545
      8          7           0       -2.657008   -0.351130    0.071340
      9          6           0       -2.278405    0.938259   -0.160147
     10          6           0       -0.902242    0.945329   -0.284324
     11          6           0       -0.024063    2.147254   -0.464796
     12          7           0        0.771148    2.393555    0.749973
     13          6           0       -4.003953   -0.878325    0.174487
     14          1           0        3.432825    0.895950    0.841714
     15          1           0        4.735668   -0.319286    0.709068
     16          1           0        3.204667   -0.730140    1.512330
     17          1           0        3.560161   -0.131516   -1.484629
     18          1           0        3.168412   -1.713611   -0.760674
     19          1           0       -3.001509    1.740367   -0.213101
     20          1           0        0.680516    1.966345   -1.281031
     21          1           0       -0.660061    2.999516   -0.762890
     22          1           0        1.351041    3.220090    0.611056
     23          1           0        0.143483    2.606610    1.524112
     24          1           0       -4.359986   -1.234439   -0.798082
     25          1           0       -3.994504   -1.710370    0.879737
     26          1           0       -4.669815   -0.092993    0.539386
 ---------------------------------------------------------------------

 SCF Done:  E(UB3LYP) =  -627.581590833     A.U. after   33 cycles
 SCF Done:  E(UB3LYP) =  -627.581590833     a.u. after    1 cycles

 The electronic state is 2-A.
 Alpha  occ. eigenvalues --  -19.05682 -18.99694 -14.29388 -14.22853 -14.18748
 Alpha  occ. eigenvalues --  -10.18983 -10.12996 -10.11292 -10.10149 -10.09274
 Alpha  occ. eigenvalues --  -10.09262 -10.07269 -10.06674  -0.99742  -0.95485
 Alpha  occ. eigenvalues --   -0.90954  -0.77933  -0.74613  -0.69145  -0.67557
 Alpha  occ. eigenvalues --   -0.62038  -0.58034  -0.55269  -0.50076  -0.47657
 Alpha  occ. eigenvalues --   -0.44930  -0.42770  -0.39383  -0.38318  -0.37869
 Alpha  occ. eigenvalues --   -0.37355  -0.36151  -0.34405  -0.33974  -0.32176
 Alpha  occ. eigenvalues --   -0.31351  -0.30625  -0.30155  -0.29323  -0.28210
 Alpha  occ. eigenvalues --   -0.27594  -0.26347  -0.23996  -0.19975  -0.19552
 Alpha  occ. eigenvalues --   -0.17438  -0.15422  -0.14712  -0.13852   0.04236
 Alpha virt. eigenvalues --    0.06069   0.06957   0.07207   0.08506   0.08687
 Alpha virt. eigenvalues --    0.09496   0.10197   0.10689   0.11239   0.11630
 Alpha virt. eigenvalues --    0.12377   0.12760   0.13209   0.14568   0.15132

  Beta  occ. eigenvalues --  -19.05673 -18.99649 -14.29382 -14.22782 -14.18707
  Beta  occ. eigenvalues --  -10.18928 -10.12991 -10.11247 -10.10127 -10.09261
  Beta  occ. eigenvalues --  -10.09242 -10.07265 -10.06659  -0.99688  -0.95430
  Beta  occ. eigenvalues --   -0.90889  -0.77860  -0.74547  -0.69086  -0.67522
  Beta  occ. eigenvalues --   -0.61964  -0.57949  -0.55216  -0.50009  -0.47587
  Beta  occ. eigenvalues --   -0.44883  -0.42718  -0.39335  -0.38229  -0.37800
  Beta  occ. eigenvalues --   -0.37286  -0.36064  -0.34334  -0.33933  -0.32117
  Beta  occ. eigenvalues --   -0.31281  -0.30524  -0.30110  -0.29262  -0.28134
  Beta  occ. eigenvalues --   -0.27519  -0.26316  -0.23967  -0.19856  -0.19459
  Beta  occ. eigenvalues --   -0.17390  -0.15265  -0.14600  -0.13797
  Beta virt. eigenvalues --    0.06483   0.07159   0.07465   0.07987   0.08759
  Beta virt. eigenvalues --    0.09586   0.09952   0.10378   0.11106   0.11608
  Beta virt. eigenvalues --    0.11905   0.12605   0.13205   0.13387   0.14660

 Mulliken charges and spin densities:
               1          2
     1  C   -0.044750  -0.317531
     2  C   -0.232693   0.037263
     3  O    0.027332   0.002987
     4  C    0.202842  -0.275961
     5  O   -0.263774   0.016511
     6  C    0.135216  -0.485975
     7  N   -0.504249   0.349052
     8  N    0.209946  -0.033201
     9  C   -0.138662   0.015384
    10  C    0.244389   0.432796
    11  C    0.845570  -1.859074
    12  N   -0.306305   0.015694
    13  C    0.825743  -1.149378
    14  H    0.185930  -0.013137
    15  H   -0.066652   0.193150
    16  H    0.076775   0.077075
    17  H   -0.066778   0.215564
    18  H    0.180919  -0.018193
    19  H   -1.270236   1.482571
    20  H    0.031488   0.164890
    21  H   -0.231208   0.375984
    22  H   -0.128229   0.342374
    23  H    0.068148   0.143257
    24  H   -0.072738   0.247737
    25  H   -0.106445   0.274587
    26  H   -0.601579   0.765578
 Sum of Mulliken charges =  -1.00000   1.00000

 Dipole moment (field-independent basis, Debye):
    X=              5.6581    Y=             -3.0215    Z=             -1.7062  Tot=              6.6373
 Quadrupole moment (field-independent basis, Debye-Ang):
   XX=           -145.7273   YY=           -127.5046   ZZ=            -99.8466
   XY=              8.1216   XZ=              0.3498   YZ=              2.2133

 Summary of Natural Population Analysis:

                                       Natural Population
                Natural  -----------------------------------------------
    Atom  No    Charge         Core      Valence    Rydberg      Total
 -----------------------------------------------------------------------
      C    1   -0.30155      0.99966     2.29759    0.00431     3.30155
      C    2   -0.01666      0.99959     2.00534    0.01173     3.01666
      O    3   -0.28029      0.99987     3.27156    0.00886     4.28029
      C    4    0.40332      0.99963     1.57288    0.02417     2.59668
      O    5   -0.30015      0.99987     3.29544    0.00483     4.30015
      C    6    0.01775      0.99947     1.96702    0.01576     2.98225
      N    7   -0.11972      0.99970     2.60909    0.01093     3.61972
      N    8   -0.09829      0.99967     2.58566    0.01295     3.59829
      C    9   -0.00512      0.99949     1.99339    0.01224     3.00512
      C   10   -0.05239      0.99950     2.04169    0.01121     3.05239
      C   11   -0.09831      0.99959     2.08658    0.01214     3.09831
      N   12   -0.41740      0.99977     2.90704    0.01059     3.91740
      C   13   -0.17198      0.99963     2.16409    0.00825     3.17198
      H   14    0.10935      0.00000     0.38921    0.00144     0.39065
      H   15    0.09518      0.00000     0.40380    0.00102     0.40482
      H   16    0.10582      0.00000     0.39301    0.00117     0.39418
      H   17    0.08717      0.00000     0.41174    0.00109     0.41283
      H   18    0.09234      0.00000     0.40645    0.00121     0.40766
      H   19    0.10997      0.00000     0.38604    0.00399     0.39003
      H   20    0.10106      0.00000     0.39721    0.00173     0.39894
      H   21    0.08428      0.00000     0.41353    0.00220     0.41572
      H   22    0.17373      0.00000     0.32346    0.00280     0.32627
      H   23    0.17322      0.00000     0.32466    0.00212     0.32678
      H   24    0.09682      0.00000     0.40212    0.00106     0.40318
      H   25    0.10638      0.00000     0.39225    0.00138     0.39362
      H   26    0.10547      0.00000     0.39140    0.00314     0.39453
 =======================================================================
   * Total *   -0.00000     12.99545    35.83224    0.17231    49.00000

 Normal termination of Gaussian 16 at Wed Dec  9 23:34:15 2020.
