 Gaussian 16, Revision A.03,

 -----------------------------------------------------------
 # opt freq B3LYP/6-31G(d) empiricaldispersion=gd3bj scf=xqc
 -----------------------------------------------------------

 -------------------------------
 CID_144584891_JID_3491_neutraal
 -------------------------------
 Symbolic Z-matrix:
 Charge =  0 Multiplicity = 1

 SCF Done:  E(RB3LYP) =  -541.971913892     A.U. after   13 cycles
 SCF Done:  E(RB3LYP) =  -541.975347594     A.U. after   10 cycles
 SCF Done:  E(RB3LYP) =  -541.975622022     A.U. after   10 cycles
 SCF Done:  E(RB3LYP) =  -541.975689445     A.U. after    9 cycles
 SCF Done:  E(RB3LYP) =  -541.975707202     A.U. after    9 cycles
 SCF Done:  E(RB3LYP) =  -541.975733875     A.U. after    9 cycles
 SCF Done:  E(RB3LYP) =  -541.975761791     A.U. after   10 cycles
 SCF Done:  E(RB3LYP) =  -541.975774867     A.U. after    9 cycles
 SCF Done:  E(RB3LYP) =  -541.975778909     A.U. after    8 cycles
 SCF Done:  E(RB3LYP) =  -541.975779538     A.U. after    8 cycles
 SCF Done:  E(RB3LYP) =  -541.975779546     A.U. after    6 cycles
 Optimization completed.
    -- Stationary point found.
 Normal termination of Gaussian 16 at Wed Dec  9 23:28:45 2020.

 --------------------------------------------------------------------
 #N Geom=AllCheck Guess=TCheck SCRF=Check GenChk RB3LYP/6-31G(d) Freq
 --------------------------------------------------------------------

 Structure from the checkpoint file:  "JID_3491.chk"
 -------------------------------
 CID_144584891_JID_3491_neutraal
 -------------------------------
 Charge =  0 Multiplicity = 1

 SCF Done:  E(RB3LYP) =  -541.975779546     A.U. after    1 cycles

  Exact polarizability: 145.407   0.383 121.408  -0.292  -3.000 108.013
 Approx polarizability: 176.421   0.035 169.198   2.097  -4.005 168.352

                      1                      2                      3
                      A                      A                      A
 Frequencies --     24.7661                81.9320               102.5242
 Red. masses --      3.2781                 2.7716                 2.0144
 Frc consts  --      0.0012                 0.0110                 0.0125
 IR Inten    --      0.0608                 1.1635                 0.8885

                      4                      5                      6
                      A                      A                      A
 Frequencies --    111.7704               138.0755               177.5457
 Red. masses --      2.4301                 2.5845                 2.4832
 Frc consts  --      0.0179                 0.0290                 0.0461
 IR Inten    --      1.1174                 0.7756                 0.1527

                      7                      8                      9
                      A                      A                      A
 Frequencies --    233.5016               256.2144               260.5303
 Red. masses --      1.2211                 1.4225                 1.7051
 Frc consts  --      0.0392                 0.0550                 0.0682
 IR Inten    --      0.2763                 0.9398                 0.7524

                     10                     11                     12
                      A                      A                      A
 Frequencies --    276.9715               320.5698               336.1770
 Red. masses --      2.0338                 3.0466                 2.0399
 Frc consts  --      0.0919                 0.1845                 0.1358
 IR Inten    --      0.0880                 0.6878                 0.9800

                     13                     14                     15
                      A                      A                      A
 Frequencies --    354.9100               371.2685               435.6767
 Red. masses --      2.2570                 2.4775                 2.9080
 Frc consts  --      0.1675                 0.2012                 0.3252
 IR Inten    --      0.2793                 2.0047                 1.4754

                     16                     17                     18
                      A                      A                      A
 Frequencies --    443.9001               471.8901               524.6525
 Red. masses --      2.6202                 2.7414                 2.1762
 Frc consts  --      0.3042                 0.3597                 0.3529
 IR Inten    --      5.7359                 1.0269                 0.7862

                     19                     20                     21
                      A                      A                      A
 Frequencies --    582.0962               612.9932               691.1431
 Red. masses --      2.5782                 2.4145                 3.5211
 Frc consts  --      0.5147                 0.5346                 0.9910
 IR Inten    --      4.5628                 0.6317                 2.5440

                     22                     23                     24
                      A                      A                      A
 Frequencies --    775.2126               794.1530               823.1264
 Red. masses --      2.5218                 1.4378                 1.7315
 Frc consts  --      0.8929                 0.5343                 0.6912
 IR Inten    --      0.7476                58.0617                33.4445

                     25                     26                     27
                      A                      A                      A
 Frequencies --    833.3122               858.9643               872.6993
 Red. masses --      1.9304                 2.1424                 2.2633
 Frc consts  --      0.7898                 0.9313                 1.0156
 IR Inten    --      2.5407                 2.2055                 1.7973

                     28                     29                     30
                      A                      A                      A
 Frequencies --    916.2661               931.7238               951.7603
 Red. masses --      1.5732                 1.7264                 2.0781
 Frc consts  --      0.7782                 0.8830                 1.1091
 IR Inten    --      4.9407                 1.5171                 0.9863

                     31                     32                     33
                      A                      A                      A
 Frequencies --    978.2315               992.3747               998.9746
 Red. masses --      1.6928                 1.7880                 2.1759
 Frc consts  --      0.9544                 1.0374                 1.2794
 IR Inten    --      4.4126                 2.6256                 2.1387

                     34                     35                     36
                      A                      A                      A
 Frequencies --   1031.2989              1060.6306              1072.3888
 Red. masses --      1.7676                 2.2654                 1.7666
 Frc consts  --      1.1076                 1.5015                 1.1970
 IR Inten    --      6.8414                10.2865                 1.3890

                     37                     38                     39
                      A                      A                      A
 Frequencies --   1079.4722              1092.0669              1117.1628
 Red. masses --      1.9236                 1.8471                 1.5291
 Frc consts  --      1.3206                 1.2979                 1.1244
 IR Inten    --      1.7414                10.8290                 1.4030

                     40                     41                     42
                      A                      A                      A
 Frequencies --   1124.8101              1134.4760              1155.1162
 Red. masses --      2.3632                 1.7594                 1.7412
 Frc consts  --      1.7616                 1.3341                 1.3688
 IR Inten    --      4.0844                 2.5645                 8.5307

                     43                     44                     45
                      A                      A                      A
 Frequencies --   1164.2018              1181.5280              1202.3800
 Red. masses --      2.9641                 1.9787                 1.5432
 Frc consts  --      2.3670                 1.6275                 1.3145
 IR Inten    --     43.9937                29.1300                 1.8946

                     46                     47                     48
                      A                      A                      A
 Frequencies --   1209.9136              1220.6455              1238.1751
 Red. masses --      2.4040                 1.9265                 1.5249
 Frc consts  --      2.0734                 1.6912                 1.3774
 IR Inten    --     12.2672                14.6074                 4.7415

                     49                     50                     51
                      A                      A                      A
 Frequencies --   1273.5046              1277.5835              1296.3275
 Red. masses --      1.4157                 1.4359                 1.2590
 Frc consts  --      1.3527                 1.3808                 1.2465
 IR Inten    --      6.2863                 2.2105                 5.7314

                     52                     53                     54
                      A                      A                      A
 Frequencies --   1299.4578              1323.6591              1339.8937
 Red. masses --      1.3723                 1.4288                 1.3332
 Frc consts  --      1.3653                 1.4750                 1.4102
 IR Inten    --     22.0626                 3.0651                 0.7384

                     55                     56                     57
                      A                      A                      A
 Frequencies --   1358.4224              1369.3141              1378.3774
 Red. masses --      1.2768                 1.3398                 1.3798
 Frc consts  --      1.3882                 1.4801                 1.5446
 IR Inten    --     10.9972                 7.5728                 9.0658

                     58                     59                     60
                      A                      A                      A
 Frequencies --   1385.1914              1398.5700              1400.1263
 Red. masses --      1.3811                 1.4668                 1.3890
 Frc consts  --      1.5613                 1.6904                 1.6043
 IR Inten    --      1.4818                 0.4714                15.0091

                     61                     62                     63
                      A                      A                      A
 Frequencies --   1407.4639              1411.2765              1419.0229
 Red. masses --      1.4050                 1.3979                 1.3527
 Frc consts  --      1.6399                 1.6404                 1.6048
 IR Inten    --      9.5202                12.1638                 2.6591

                     64                     65                     66
                      A                      A                      A
 Frequencies --   1423.5756              1434.9159              1483.5477
 Red. masses --      1.4626                 1.3303                 1.1828
 Frc consts  --      1.7463                 1.6138                 1.5338
 IR Inten    --      9.9690                16.0509                 2.6900

                     67                     68                     69
                      A                      A                      A
 Frequencies --   1507.7736              1509.6893              1512.2707
 Red. masses --      1.0817                 1.2043                 1.0905
 Frc consts  --      1.4489                 1.6171                 1.4694
 IR Inten    --      3.1585                26.5456                 0.9410

                     70                     71                     72
                      A                      A                      A
 Frequencies --   1516.9479              1518.7583              1522.5610
 Red. masses --      1.0818                 1.0667                 1.0760
 Frc consts  --      1.4667                 1.4497                 1.4696
 IR Inten    --      4.9797                 4.4794                 1.3489

                     73                     74                     75
                      A                      A                      A
 Frequencies --   1525.1747              1530.3193              1535.4267
 Red. masses --      1.0839                 1.0852                 1.0655
 Frc consts  --      1.4855                 1.4974                 1.4800
 IR Inten    --      1.2063                 4.0471                 7.1513

                     76                     77                     78
                      A                      A                      A
 Frequencies --   1542.1631              1548.9911              2900.1079
 Red. masses --      1.0721                 1.0640                 1.0739
 Frc consts  --      1.5022                 1.5041                 5.3218
 IR Inten    --     17.9154                 1.9936                47.9814

                     79                     80                     81
                      A                      A                      A
 Frequencies --   2916.3577              2946.8877              3015.2660
 Red. masses --      1.0791                 1.0616                 1.0806
 Frc consts  --      5.4077                 5.4317                 5.7885
 IR Inten    --     68.1322               109.8918                 9.4908

                     82                     83                     84
                      A                      A                      A
 Frequencies --   3017.3308              3022.2947              3031.3158
 Red. masses --      1.0683                 1.0742                 1.0622
 Frc consts  --      5.7304                 5.7808                 5.7508
 IR Inten    --     16.9216                62.0698                29.1382

                     85                     86                     87
                      A                      A                      A
 Frequencies --   3036.7631              3037.8370              3049.7533
 Red. masses --      1.0621                 1.0831                 1.0364
 Frc consts  --      5.7708                 5.8891                 5.6795
 IR Inten    --     16.2432                36.8620                23.6881

                     88                     89                     90
                      A                      A                      A
 Frequencies --   3053.0031              3066.0367              3070.1662
 Red. masses --      1.0667                 1.0862                 1.0964
 Frc consts  --      5.8578                 6.0162                 6.0891
 IR Inten    --     36.4466                28.5345                65.8237

                     91                     92                     93
                      A                      A                      A
 Frequencies --   3071.0360              3073.3603              3080.2599
 Red. masses --      1.0725                 1.0989                 1.1032
 Frc consts  --      5.9594                 6.1153                 6.1672
 IR Inten    --     46.3251                49.7572                84.2974

                     94                     95                     96
                      A                      A                      A
 Frequencies --   3096.7033              3109.1814              3114.5848
 Red. masses --      1.0949                 1.0985                 1.1008
 Frc consts  --      6.1864                 6.2568                 6.2917
 IR Inten    --     40.8652                35.9558                40.0415

                     97                     98                     99
                      A                      A                      A
 Frequencies --   3118.7186              3126.9556              3487.7697
 Red. masses --      1.1022                 1.1031                 1.0735
 Frc consts  --      6.3162                 6.3549                 7.6936
 IR Inten    --     34.6593                29.5773                 1.0177

 - Thermochemistry -
 -------------------
 Temperature   298.150 Kelvin.  Pressure   1.00000 Atm.
 Atom     1 has atomic number  6 and mass  12.00000

 Molecular mass:   182.17830 amu.
 Principal axes and moments of inertia in atomic units:
                           1         2         3
     Eigenvalues --  1307.695153844.686384427.19123
           X            0.99999   0.00428   0.00274
           Y           -0.00425   0.99996  -0.00816
           Z           -0.00278   0.00815   0.99996
 This molecule is an asymmetric top.
 Rotational symmetry number  1.
 Warning -- assumption of classical behavior for rotation
           may cause significant error
 Rotational temperatures (Kelvin)      0.06623     0.02253     0.01956
 Rotational constants (GHZ):           1.38009     0.46941     0.40765
 Zero-point vibrational energy     858393.4 (Joules/Mol)
                                  205.16095 (Kcal/Mol)
 Warning -- explicit consideration of  20 degrees of freedom as
           vibrations may cause significant error
 Vibrational temperatures:     35.63   117.88   147.51   160.81   198.66
          (Kelvin)            255.45   335.96   368.64   374.84   398.50
                              461.23   483.68   510.64   534.17   626.84
                              638.67   678.94   754.86   837.51   881.96
                              994.40  1115.36  1142.61  1184.30  1198.95
                             1235.86  1255.62  1318.30  1340.54  1369.37
                             1407.46  1427.81  1437.30  1483.81  1526.01
                             1542.93  1553.12  1571.24  1607.35  1618.35
                             1632.26  1661.95  1675.03  1699.96  1729.96
                             1740.80  1756.24  1781.46  1832.29  1838.16
                             1865.13  1869.63  1904.45  1927.81  1954.47
                             1970.14  1983.18  1992.98  2012.23  2014.47
                             2025.03  2030.51  2041.66  2048.21  2064.52
                             2134.49  2169.35  2172.11  2175.82  2182.55
                             2185.15  2190.63  2194.39  2201.79  2209.14
                             2218.83  2228.65  4172.61  4195.99  4239.91
                             4338.30  4341.27  4348.41  4361.39  4369.22
                             4370.77  4387.91  4392.59  4411.34  4417.28
                             4418.54  4421.88  4431.81  4455.47  4473.42
                             4481.19  4487.14  4498.99  5018.12

 Zero-point correction=                           0.326945 (Hartree/Particle)
 Thermal correction to Energy=                    0.340173
 Thermal correction to Enthalpy=                  0.341118
 Thermal correction to Gibbs Free Energy=         0.287100
 Sum of electronic and zero-point Energies=           -541.648835
 Sum of electronic and thermal Energies=              -541.635606
 Sum of electronic and thermal Enthalpies=            -541.634662
 Sum of electronic and thermal Free Energies=         -541.688679

                     E (Thermal)             CV                S
                      KCal/Mol        Cal/Mol-Kelvin    Cal/Mol-Kelvin
 Total                  213.462             51.989            113.690
 Electronic               0.000              0.000              0.000
 Translational            0.889              2.981             41.506
 Rotational               0.889              2.981             31.476
 Vibrational            211.685             46.027             40.707
 Vibration     1          0.593              1.985              6.210
 Vibration     2          0.600              1.962              3.844
 Vibration     3          0.605              1.947              3.406
 Vibration     4          0.607              1.940              3.238
 Vibration     5          0.614              1.915              2.830
 Vibration     6          0.628              1.870              2.354
 Vibration     7          0.654              1.790              1.852
 Vibration     8          0.666              1.752              1.687
 Vibration     9          0.669              1.745              1.658
 Vibration    10          0.678              1.716              1.552
 Vibration    11          0.706              1.634              1.307
 Vibration    12          0.717              1.603              1.230
 Vibration    13          0.731              1.565              1.144
 Vibration    14          0.743              1.531              1.075
 Vibration    15          0.796              1.392              0.840
 Vibration    16          0.803              1.374              0.814
 Vibration    17          0.829              1.312              0.732
 Vibration    18          0.880              1.195              0.599
 Vibration    19          0.939              1.070              0.481
 Vibration    20          0.972              1.004              0.428

 Optimization completed.
    -- Stationary point found.
 Normal termination of Gaussian 16 at Wed Dec  9 23:40:18 2020.

 ----------------------------------------------------------------------
 # B3LYP/6-311++G(d,p) empiricaldispersion=gd3bj scf=xqc pop=npa geom=c
 heck
 ----------------------------------------------------------------------

 ---------------------------------------
 CID_144584891_JID_3491_Energie_neutraal
 ---------------------------------------
 Structure from the checkpoint file:  "JID_3491.chk"
 Charge =  0 Multiplicity = 1

 SCF Done:  E(RB3LYP) =  -542.125771535     A.U. after   14 cycles
 Normal termination of Gaussian 16 at Wed Dec  9 23:45:55 2020.

 ----------------------------------------------------------------------
 # B3LYP/6-311++G(d,p) empiricaldispersion=gd3bj scf=xqc pop=npa geom=c
 heck
 ----------------------------------------------------------------------

 -------------------------------------
 CID_144584891_JID_3491_Energie_kation
 -------------------------------------
 Structure from the checkpoint file:  "JID_3491.chk"
 Charge =  1 Multiplicity = 2

 SCF Done:  E(UB3LYP) =  -541.851982001     A.U. after   28 cycles
 Normal termination of Gaussian 16 at Thu Dec 10 00:02:00 2020.
 Gaussian 16:  ES64L-G16RevA.03 25-Dec-2016

 ----------------------------------------------------------------------
 # B3LYP/6-311++G(d,p) empiricaldispersion=gd3bj scf=xqc pop=npa geom=c
 heck
 ----------------------------------------------------------------------

 ------------------------------------
 CID_144584891_JID_3491_Energie_anion
 ------------------------------------
 Structure from the checkpoint file:  "JID_3491.chk"
 Charge = -1 Multiplicity = 2

                         Standard orientation:
 ---------------------------------------------------------------------
 Center     Atomic      Atomic             Coordinates (Angstroms)
 Number     Number       Type             X           Y           Z
 ---------------------------------------------------------------------
      1          6           0        0.093379    2.649290   -0.161580
      2          6           0        0.159485    1.125088   -0.137184
      3          6           0       -1.074152    0.477704    0.535237
      4          6           0       -0.516984   -0.755734    1.300731
      5          6           0        0.989918   -0.776829    0.989947
      6          7           0        1.278724    0.628655    0.670160
      7          6           0        2.627406    0.846132    0.155316
      8          6           0        3.009257   -0.069364   -1.019831
      9          6           0        2.786591   -1.537371   -0.633790
     10          6           0        1.345505   -1.748566   -0.154110
     11          6           0       -2.171783    0.141755   -0.471108
     12          7           0       -3.408279   -0.249583    0.194498
     13          6           0       -4.445394   -0.665388   -0.739949
     14          1           0       -0.822410    2.982964   -0.662796
     15          1           0        0.939761    3.088939   -0.700400
     16          1           0        0.096208    3.039345    0.861786
     17          1           0        0.213627    0.767732   -1.184311
     18          1           0       -1.495047    1.188784    1.254699
     19          1           0       -0.993238   -1.691340    0.981891
     20          1           0       -0.689562   -0.653330    2.375579
     21          1           0        1.584906   -1.056974    1.871114
     22          1           0        3.327947    0.665189    0.983766
     23          1           0        2.734697    1.900591   -0.118693
     24          1           0        4.055327    0.106552   -1.300946
     25          1           0        2.398781    0.176486   -1.899403
     26          1           0        3.014940   -2.202203   -1.475679
     27          1           0        3.481483   -1.804800    0.176654
     28          1           0        0.654701   -1.592130   -0.994388
     29          1           0        1.193780   -2.780973    0.187012
     30          1           0       -2.391591    1.026571   -1.085264
     31          1           0       -1.797492   -0.634957   -1.170563
     32          1           0       -3.209195   -1.016564    0.834609
     33          1           0       -4.138001   -1.473614   -1.430993
     34          1           0       -5.327034   -1.003297   -0.185613
     35          1           0       -4.745086    0.193231   -1.352740
 ---------------------------------------------------------------------

 SCF Done:  E(UB3LYP) =  -542.109393438     A.U. after   29 cycles

 The electronic state is 2-A.
 Alpha  occ. eigenvalues --  -14.20004 -14.19799 -10.09857 -10.09457 -10.09103
 Alpha  occ. eigenvalues --  -10.09075 -10.08700 -10.07258 -10.06631 -10.06427
 Alpha  occ. eigenvalues --  -10.06403 -10.06323 -10.06057  -0.83905  -0.80720
 Alpha  occ. eigenvalues --   -0.70983  -0.68683  -0.66175  -0.62909  -0.58833
 Alpha  occ. eigenvalues --   -0.56451  -0.53925  -0.51132  -0.49650  -0.46994
 Alpha  occ. eigenvalues --   -0.43667  -0.40704  -0.38722  -0.37713  -0.35736
 Alpha  occ. eigenvalues --   -0.34932  -0.34197  -0.33756  -0.32631  -0.32569
 Alpha  occ. eigenvalues --   -0.31057  -0.30272  -0.27816  -0.27504  -0.27326
 Alpha  occ. eigenvalues --   -0.27109  -0.26281  -0.25443  -0.24808  -0.23403
 Alpha  occ. eigenvalues --   -0.22322  -0.22166  -0.21509  -0.20762  -0.13194
 Alpha  occ. eigenvalues --   -0.11105   0.04459
 Alpha virt. eigenvalues --    0.06150   0.06871   0.07434   0.07963   0.08567
 Alpha virt. eigenvalues --    0.09236   0.09588   0.10003   0.10247   0.10775
 Alpha virt. eigenvalues --    0.11371   0.12065   0.12396   0.13002   0.13170

  Beta  occ. eigenvalues --  -14.19991 -14.19800 -10.09851 -10.09451 -10.09088
  Beta  occ. eigenvalues --  -10.09063 -10.08663 -10.07255 -10.06618 -10.06412
  Beta  occ. eigenvalues --  -10.06383 -10.06303 -10.06039  -0.83896  -0.80698
  Beta  occ. eigenvalues --   -0.70960  -0.68659  -0.66150  -0.62878  -0.58788
  Beta  occ. eigenvalues --   -0.56410  -0.53865  -0.51087  -0.49602  -0.46963
  Beta  occ. eigenvalues --   -0.43626  -0.40673  -0.38691  -0.37670  -0.35705
  Beta  occ. eigenvalues --   -0.34897  -0.34167  -0.33715  -0.32602  -0.32532
  Beta  occ. eigenvalues --   -0.31034  -0.30245  -0.27790  -0.27474  -0.27289
  Beta  occ. eigenvalues --   -0.27075  -0.26250  -0.25411  -0.24778  -0.23373
  Beta  occ. eigenvalues --   -0.22296  -0.22145  -0.21479  -0.20735  -0.13162
  Beta  occ. eigenvalues --   -0.11094
  Beta virt. eigenvalues --    0.06525   0.07092   0.07425   0.07807   0.08610
  Beta virt. eigenvalues --    0.09055   0.09673   0.09899   0.10311   0.10804
  Beta virt. eigenvalues --    0.11214   0.11728   0.12353   0.12601   0.13208

 Mulliken charges and spin densities:
               1          2
     1  C    0.710802  -1.361650
     2  C   -0.973044   0.197396
     3  C    0.013239   0.769013
     4  C    0.280046  -1.141491
     5  C   -0.512921   1.032751
     6  N    0.187100   0.017851
     7  C   -0.054051  -0.202214
     8  C   -0.010225  -0.147453
     9  C    1.164274  -1.720916
    10  C   -0.027037  -0.348172
    11  C   -0.204102  -0.717293
    12  N   -0.191262   0.157785
    13  C    0.865758  -1.183525
    14  H   -0.008898   0.147529
    15  H   -0.072721   0.194207
    16  H    0.082816   0.076964
    17  H   -0.105757   0.282857
    18  H    0.137555   0.077092
    19  H   -0.303247   0.469969
    20  H    0.051617   0.112133
    21  H   -0.209865   0.429787
    22  H   -0.099379   0.247522
    23  H    0.019823   0.111824
    24  H   -0.547951   0.726462
    25  H    0.122582  -0.008544
    26  H   -0.455834   0.623329
    27  H    0.106455   0.012877
    28  H   -0.004767   0.161627
    29  H   -0.351443   0.514403
    30  H    0.175286  -0.019254
    31  H    0.069311   0.053327
    32  H    0.084177   0.119075
    33  H   -0.309667   0.431763
    34  H   -0.313584   0.444034
    35  H   -0.315085   0.438938
 Sum of Mulliken charges =  -1.00000   1.00000

 Dipole moment (field-independent basis, Debye):
    X=              1.0327    Y=              3.4323    Z=              2.1747  Tot=              4.1924
 Quadrupole moment (field-independent basis, Debye-Ang):
   XX=           -173.4422   YY=           -130.6843   ZZ=           -119.1645
   XY=             -1.1789   XZ=              0.5879   YZ=             -2.7213

 Summary of Natural Population Analysis:

                                       Natural Population
                Natural  -----------------------------------------------
    Atom  No    Charge         Core      Valence    Rydberg      Total
 -----------------------------------------------------------------------
      C    1   -0.28550      0.99964     2.28075    0.00512     3.28550
      C    2   -0.00531      0.99957     1.99191    0.01382     3.00531
      C    3   -0.11271      0.99957     2.10200    0.01114     3.11271
      C    4   -0.19036      0.99960     2.18127    0.00949     3.19036
      C    5   -0.00092      0.99959     1.98789    0.01344     3.00092
      N    6   -0.28413      0.99970     2.77227    0.01216     3.78413
      C    7   -0.08331      0.99961     2.07156    0.01213     3.08331
      C    8   -0.19945      0.99963     2.19191    0.00792     3.19945
      C    9   -0.18959      0.99963     2.18123    0.00874     3.18959
      C   10   -0.19926      0.99961     2.19022    0.00944     3.19926
      C   11   -0.08140      0.99959     2.07035    0.01146     3.08140
      N   12   -0.33630      0.99974     2.82548    0.01108     3.83630
      C   13   -0.17779      0.99967     2.16961    0.00850     3.17779
      H   14    0.10005      0.00000     0.39904    0.00091     0.39995
      H   15    0.09797      0.00000     0.40102    0.00101     0.40203
      H   16    0.09986      0.00000     0.39879    0.00135     0.40014
      H   17    0.08105      0.00000     0.41661    0.00234     0.41895
      H   18    0.10028      0.00000     0.39759    0.00213     0.39972
      H   19    0.09849      0.00000     0.39996    0.00154     0.40151
      H   20    0.10137      0.00000     0.39757    0.00107     0.39863
      H   21    0.09333      0.00000     0.40540    0.00127     0.40667
      H   22    0.09152      0.00000     0.40724    0.00123     0.40848
      H   23    0.09601      0.00000     0.40296    0.00103     0.40399
      H   24    0.09996      0.00000     0.39855    0.00149     0.40004
      H   25    0.09362      0.00000     0.40499    0.00139     0.40638
      H   26    0.10024      0.00000     0.39839    0.00136     0.39976
      H   27    0.09144      0.00000     0.40703    0.00153     0.40856
      H   28    0.09455      0.00000     0.40357    0.00187     0.40545
      H   29    0.10164      0.00000     0.39696    0.00140     0.39836
      H   30    0.09102      0.00000     0.40747    0.00151     0.40898
      H   31    0.07889      0.00000     0.41912    0.00199     0.42111
      H   32    0.16993      0.00000     0.32647    0.00360     0.33007
      H   33    0.08058      0.00000     0.41750    0.00191     0.41942
      H   34    0.09420      0.00000     0.40473    0.00106     0.40580
      H   35    0.09002      0.00000     0.40864    0.00135     0.40998
 =======================================================================
   * Total *   -0.00000     12.99515    37.83604    0.16881    51.00000

 Normal termination of Gaussian 16 at Thu Dec 10 00:18:13 2020.
