 Gaussian 16, Revision A.03,

 -----------------------------------------------------------
 # opt freq B3LYP/6-31G(d) empiricaldispersion=gd3bj scf=xqc
 -----------------------------------------------------------

 -------------------------------
 CID_153654551_JID_8468_neutraal
 -------------------------------
 Symbolic Z-matrix:
 Charge =  0 Multiplicity = 1

 SCF Done:  E(RB3LYP) =  -783.291732779     A.U. after   15 cycles
 SCF Done:  E(RB3LYP) =  -783.298321046     A.U. after   12 cycles
 SCF Done:  E(RB3LYP) =  -783.299295564     A.U. after   11 cycles
 SCF Done:  E(RB3LYP) =  -783.299367490     A.U. after   11 cycles
 SCF Done:  E(RB3LYP) =  -783.299386918     A.U. after   11 cycles
 SCF Done:  E(RB3LYP) =  -783.299413420     A.U. after   10 cycles
 SCF Done:  E(RB3LYP) =  -783.299422451     A.U. after   10 cycles
 SCF Done:  E(RB3LYP) =  -783.299425549     A.U. after   10 cycles
 SCF Done:  E(RB3LYP) =  -783.299426893     A.U. after    9 cycles
 SCF Done:  E(RB3LYP) =  -783.299429536     A.U. after   10 cycles
 SCF Done:  E(RB3LYP) =  -783.299461108     A.U. after    8 cycles
 SCF Done:  E(RB3LYP) =  -783.299461195     A.U. after    8 cycles
 SCF Done:  E(RB3LYP) =  -783.299461276     A.U. after    9 cycles
 SCF Done:  E(RB3LYP) =  -783.299461330     A.U. after    8 cycles
 SCF Done:  E(RB3LYP) =  -783.299461363     A.U. after    7 cycles
 SCF Done:  E(RB3LYP) =  -783.299461367     A.U. after    6 cycles
 Optimization completed.
    -- Stationary point found.
 Normal termination of Gaussian 16 at Sun Dec 13 20:30:15 2020.

 --------------------------------------------------------------------
 #N Geom=AllCheck Guess=TCheck SCRF=Check GenChk RB3LYP/6-31G(d) Freq
 --------------------------------------------------------------------

 Structure from the checkpoint file:  "JID_8468.chk"
 -------------------------------
 CID_153654551_JID_8468_neutraal
 -------------------------------
 Charge =  0 Multiplicity = 1

 SCF Done:  E(RB3LYP) =  -783.299461367     A.U. after    1 cycles

  Exact polarizability: 260.268   1.545 150.384  -0.038  -1.233  99.851
 Approx polarizability: 330.268   5.096 270.941  -0.477  -1.250 147.359

                      1                      2                      3
                      A                      A                      A
 Frequencies --     12.4524                23.1639                41.0727
 Red. masses --      2.6420                 1.1876                 4.0884
 Frc consts  --      0.0002                 0.0004                 0.0041
 IR Inten    --      0.3096                 0.1389                 0.8581

                      4                      5                      6
                      A                      A                      A
 Frequencies --     80.1631                88.7666               143.9410
 Red. masses --      4.3715                 5.0263                 4.3533
 Frc consts  --      0.0166                 0.0233                 0.0531
 IR Inten    --      1.1867                 2.4715                 1.6773

                      7                      8                      9
                      A                      A                      A
 Frequencies --    151.3777               168.5452               231.9214
 Red. masses --      4.9622                 3.6193                 5.4732
 Frc consts  --      0.0670                 0.0606                 0.1734
 IR Inten    --      1.5329                 0.0501                 0.1113

                     10                     11                     12
                      A                      A                      A
 Frequencies --    274.3229               277.9270               284.1751
 Red. masses --      3.9172                 4.0268                 1.9452
 Frc consts  --      0.1737                 0.1833                 0.0926
 IR Inten    --      1.5557                 2.4966                 2.0637

                     13                     14                     15
                      A                      A                      A
 Frequencies --    304.8517               372.6606               393.1566
 Red. masses --      3.5369                 2.4706                 3.0125
 Frc consts  --      0.1937                 0.2022                 0.2744
 IR Inten    --      0.1551                 5.0201                 3.3705

                     16                     17                     18
                      A                      A                      A
 Frequencies --    404.8593               412.7550               428.5051
 Red. masses --      2.5530                 3.3671                 4.1894
 Frc consts  --      0.2466                 0.3380                 0.4532
 IR Inten    --      4.0590                 0.7426                 6.4907

                     19                     20                     21
                      A                      A                      A
 Frequencies --    470.4539               475.7263               524.6903
 Red. masses --      3.2190                 1.5385                 2.7017
 Frc consts  --      0.4198                 0.2051                 0.4382
 IR Inten    --      0.2638                96.0454                15.0188

                     22                     23                     24
                      A                      A                      A
 Frequencies --    541.7780               576.2570               612.8582
 Red. masses --      1.8119                 4.1166                 5.6906
 Frc consts  --      0.3134                 0.8054                 1.2593
 IR Inten    --     26.5818                30.6156                13.6015

                     25                     26                     27
                      A                      A                      A
 Frequencies --    657.7941               689.6990               698.2032
 Red. masses --      6.8262                 3.5793                 4.5355
 Frc consts  --      1.7403                 1.0032                 1.3027
 IR Inten    --      0.9758                15.4301                 3.3720

                     28                     29                     30
                      A                      A                      A
 Frequencies --    735.0988               739.3821               764.2450
 Red. masses --      3.8325                 4.1151                 5.6461
 Frc consts  --      1.2202                 1.3255                 1.9430
 IR Inten    --      2.8736                 2.3304                14.5664

                     31                     32                     33
                      A                      A                      A
 Frequencies --    808.7702               818.5633               831.5403
 Red. masses --      2.4813                 3.2597                 1.5639
 Frc consts  --      0.9563                 1.2869                 0.6371
 IR Inten    --     38.2495                22.8803                15.2918

                     34                     35                     36
                      A                      A                      A
 Frequencies --    837.5816               864.6088               891.6044
 Red. masses --      1.5003                 1.3353                 2.0539
 Frc consts  --      0.6201                 0.5881                 0.9620
 IR Inten    --      1.2233                 8.1427                12.2847

                     37                     38                     39
                      A                      A                      A
 Frequencies --    920.8827               937.7656               943.8542
 Red. masses --      4.0814                 2.2700                 1.3218
 Frc consts  --      2.0392                 1.1761                 0.6938
 IR Inten    --      2.3521                 0.2529                 0.0735

                     40                     41                     42
                      A                      A                      A
 Frequencies --    973.5339               996.1253              1008.2693
 Red. masses --      3.2393                 1.3128                 2.6489
 Frc consts  --      1.8088                 0.7675                 1.5866
 IR Inten    --      1.0089                 0.8159                 8.3876

                     43                     44                     45
                      A                      A                      A
 Frequencies --   1018.9168              1043.6073              1063.4723
 Red. masses --      1.4572                 2.8116                 1.5816
 Frc consts  --      0.8913                 1.8042                 1.0539
 IR Inten    --      1.2212                10.1355                 1.3745

                     46                     47                     48
                      A                      A                      A
 Frequencies --   1070.1927              1075.4892              1087.0640
 Red. masses --      1.6237                 1.5313                 2.3601
 Frc consts  --      1.0957                 1.0436                 1.6432
 IR Inten    --     10.0545                 6.2309                20.2072

                     49                     50                     51
                      A                      A                      A
 Frequencies --   1131.5782              1135.8530              1157.4473
 Red. masses --      3.5635                 3.3917                 1.3843
 Frc consts  --      2.6884                 2.5782                 1.0927
 IR Inten    --     94.6448                 3.4193                 9.9016

                     52                     53                     54
                      A                      A                      A
 Frequencies --   1170.1305              1180.6332              1216.3682
 Red. masses --      3.1328                 3.2417                 1.1238
 Frc consts  --      2.5273                 2.6623                 0.9796
 IR Inten    --     16.2367                 7.7238                 2.6418

                     55                     56                     57
                      A                      A                      A
 Frequencies --   1223.7229              1235.8908              1248.0503
 Red. masses --      1.1472                 2.9707                 3.0431
 Frc consts  --      1.0122                 2.6734                 2.7927
 IR Inten    --     30.5202                70.3937                 7.9139

                     58                     59                     60
                      A                      A                      A
 Frequencies --   1249.9668              1299.3490              1325.7994
 Red. masses --      1.3435                 2.4207                 1.3237
 Frc consts  --      1.2367                 2.4079                 1.3709
 IR Inten    --      0.4706                 2.7661                18.8613

                     61                     62                     63
                      A                      A                      A
 Frequencies --   1348.4543              1351.0617              1356.5783
 Red. masses --      1.6511                 1.6636                 1.3745
 Frc consts  --      1.7688                 1.7892                 1.4904
 IR Inten    --      6.6086                 4.9802                 0.0282

                     64                     65                     66
                      A                      A                      A
 Frequencies --   1362.0248              1375.6197              1390.1045
 Red. masses --      4.7413                 1.2674                 1.4340
 Frc consts  --      5.1823                 1.4131                 1.6327
 IR Inten    --      2.5209                33.3051                 6.1466

                     67                     68                     69
                      A                      A                      A
 Frequencies --   1436.7394              1442.7944              1453.4590
 Red. masses --      2.6287                 1.2462                 1.5061
 Frc consts  --      3.1970                 1.5284                 1.8746
 IR Inten    --     89.7334                 0.8434                16.3224

                     70                     71                     72
                      A                      A                      A
 Frequencies --   1471.5583              1497.3741              1504.0465
 Red. masses --      2.7179                 1.1927                 1.1637
 Frc consts  --      3.4677                 1.5756                 1.5511
 IR Inten    --    131.4911                 3.9596                 0.0493

                     73                     74                     75
                      A                      A                      A
 Frequencies --   1514.3464              1517.2222              1523.1010
 Red. masses --      1.0455                 1.0958                 1.1157
 Frc consts  --      1.4127                 1.4862                 1.5249
 IR Inten    --      6.0500                 6.7175                15.9653

                     76                     77                     78
                      A                      A                      A
 Frequencies --   1528.3065              1542.3897              1570.4545
 Red. masses --      1.1033                 1.1028                 2.6758
 Frc consts  --      1.5184                 1.5457                 3.8883
 IR Inten    --      0.0112                 9.5277                16.3433

                     79                     80                     81
                      A                      A                      A
 Frequencies --   1624.2795              1678.0533              1685.2637
 Red. masses --      5.7401                 5.8095                 9.6943
 Frc consts  --      8.9226                 9.6384                16.2219
 IR Inten    --     38.3742                17.8263               158.7256

                     82                     83                     84
                      A                      A                      A
 Frequencies --   1830.2414              2994.0714              2996.2162
 Red. masses --     10.7853                 1.0699                 1.0692
 Frc consts  --     21.2862                 5.6511                 5.6552
 IR Inten    --    358.5817                32.7396                47.6086

                     85                     86                     87
                      A                      A                      A
 Frequencies --   3046.4460              3060.6538              3062.1317
 Red. masses --      1.0378                 1.0619                 1.0642
 Frc consts  --      5.6746                 5.8609                 5.8790
 IR Inten    --     31.2872                13.9364                13.5648

                     88                     89                     90
                      A                      A                      A
 Frequencies --   3078.8264              3080.6428              3099.8059
 Red. masses --      1.0907                 1.0905                 1.1002
 Frc consts  --      6.0915                 6.0974                 6.2285
 IR Inten    --     80.7557                33.1426                17.1255

                     91                     92                     93
                      A                      A                      A
 Frequencies --   3110.1963              3112.8132              3130.4545
 Red. masses --      1.1050                 1.1041                 1.1014
 Frc consts  --      6.2977                 6.3030                 6.3590
 IR Inten    --      7.6109                34.0071                16.5144

                     94                     95                     96
                      A                      A                      A
 Frequencies --   3182.0819              3184.5689              3199.7421
 Red. masses --      1.0866                 1.0896                 1.0940
 Frc consts  --      6.4825                 6.5108                 6.5996
 IR Inten    --     18.8831                17.1961                21.7019

                     97                     98                     99
                      A                      A                      A
 Frequencies --   3229.5161              3497.3509              3652.1327
 Red. masses --      1.0925                 1.0745                 1.0790
 Frc consts  --      6.7136                 7.7432                 8.4791
 IR Inten    --      1.7054                 3.1416                31.9979

 - Thermochemistry -
 -------------------
 Temperature   298.150 Kelvin.  Pressure   1.00000 Atm.
 Atom     1 has atomic number  6 and mass  12.00000

 Molecular mass:   243.13716 amu.
 Principal axes and moments of inertia in atomic units:
                           1         2         3
     Eigenvalues --  1327.718719683.34738**********
           X            1.00000   0.00303   0.00021
           Y           -0.00303   0.99997  -0.00742
           Z           -0.00024   0.00742   0.99997
 This molecule is an asymmetric top.
 Rotational symmetry number  1.
 Warning -- assumption of classical behavior for rotation
           may cause significant error
 Rotational temperatures (Kelvin)      0.06524     0.00894     0.00841
 Rotational constants (GHZ):           1.35928     0.18638     0.17530
 Zero-point vibrational energy     777982.7 (Joules/Mol)
                                  185.94234 (Kcal/Mol)
 Warning -- explicit consideration of  24 degrees of freedom as
           vibrations may cause significant error
 Vibrational temperatures:     17.92    33.33    59.09   115.34   127.72
          (Kelvin)            207.10   217.80   242.50   333.68   394.69
                              399.87   408.86   438.61   536.18   565.66
                              582.50   593.86   616.52   676.88   684.46
                              754.91   779.50   829.11   881.77   946.42
                              992.32  1004.56  1057.64  1063.81  1099.58
                             1163.64  1177.73  1196.40  1205.09  1243.98
                             1282.82  1324.94  1349.24  1358.00  1400.70
                             1433.20  1450.67  1465.99  1501.52  1530.10
                             1539.77  1547.39  1564.04  1628.09  1634.24
                             1665.31  1683.56  1698.67  1750.08  1760.66
                             1778.17  1795.67  1798.42  1869.47  1907.53
                             1940.13  1943.88  1951.81  1959.65  1979.21
                             2000.05  2067.15  2075.86  2091.20  2117.24
                             2154.39  2163.99  2178.81  2182.94  2191.40
                             2198.89  2219.15  2259.53  2336.98  2414.34
                             2424.72  2633.31  4307.80  4310.89  4383.16
                             4403.60  4405.72  4429.74  4432.36  4459.93
                             4474.88  4478.64  4504.03  4578.31  4581.88
                             4603.72  4646.55  5031.91  5254.60

 Zero-point correction=                           0.296318 (Hartree/Particle)
 Thermal correction to Energy=                    0.312072
 Thermal correction to Enthalpy=                  0.313016
 Thermal correction to Gibbs Free Energy=         0.250749
 Sum of electronic and zero-point Energies=           -783.003143
 Sum of electronic and thermal Energies=              -782.987390
 Sum of electronic and thermal Enthalpies=            -782.986445
 Sum of electronic and thermal Free Energies=         -783.048713

                     E (Thermal)             CV                S
                      KCal/Mol        Cal/Mol-Kelvin    Cal/Mol-Kelvin
 Total                  195.828             61.420            131.052
 Electronic               0.000              0.000              0.000
 Translational            0.889              2.981             42.366
 Rotational               0.889              2.981             33.248
 Vibrational            194.051             55.458             55.438
 Vibration     1          0.593              1.987              7.575
 Vibration     2          0.593              1.985              6.343
 Vibration     3          0.594              1.981              5.207
 Vibration     4          0.600              1.963              3.887
 Vibration     5          0.602              1.957              3.687
 Vibration     6          0.616              1.909              2.751
 Vibration     7          0.619              1.901              2.655
 Vibration     8          0.625              1.881              2.452
 Vibration     9          0.653              1.792              1.864
 Vibration    10          0.677              1.721              1.569
 Vibration    11          0.679              1.714              1.546
 Vibration    12          0.683              1.703              1.508
 Vibration    13          0.696              1.665              1.390
 Vibration    14          0.744              1.528              1.069
 Vibration    15          0.760              1.485              0.988
 Vibration    16          0.770              1.460              0.945
 Vibration    17          0.777              1.443              0.917
 Vibration    18          0.790              1.408              0.864
 Vibration    19          0.827              1.316              0.736
 Vibration    20          0.832              1.304              0.722
 Vibration    21          0.880              1.195              0.599
 Vibration    22          0.897              1.158              0.561
 Vibration    23          0.933              1.083              0.492
 Vibration    24          0.972              1.005              0.428

 Optimization completed.
    -- Stationary point found.
 Normal termination of Gaussian 16 at Sun Dec 13 20:44:48 2020.

 ----------------------------------------------------------------------
 # B3LYP/6-311++G(d,p) empiricaldispersion=gd3bj scf=xqc pop=npa geom=c
 heck
 ----------------------------------------------------------------------

 ---------------------------------------
 CID_153654551_JID_8468_Energie_neutraal
 ---------------------------------------
 Structure from the checkpoint file:  "JID_8468.chk"
 Charge =  0 Multiplicity = 1

 SCF Done:  E(RB3LYP) =  -783.512477017     A.U. after   15 cycles
 Normal termination of Gaussian 16 at Sun Dec 13 20:51:09 2020.

 ----------------------------------------------------------------------
 # B3LYP/6-311++G(d,p) empiricaldispersion=gd3bj scf=xqc pop=npa geom=c
 heck
 ----------------------------------------------------------------------

 -------------------------------------
 CID_153654551_JID_8468_Energie_kation
 -------------------------------------
 Structure from the checkpoint file:  "JID_8468.chk"
 Charge =  1 Multiplicity = 2

 SCF Done:  E(UB3LYP) =  -783.222452426     A.U. after   27 cycles
 Normal termination of Gaussian 16 at Sun Dec 13 21:07:41 2020.
 Gaussian 16:  ES64L-G16RevA.03 25-Dec-2016

 ----------------------------------------------------------------------
 # B3LYP/6-311++G(d,p) empiricaldispersion=gd3bj scf=xqc pop=npa geom=c
 heck
 ----------------------------------------------------------------------

 ------------------------------------
 CID_153654551_JID_8468_Energie_anion
 ------------------------------------
 Structure from the checkpoint file:  "JID_8468.chk"
 Charge = -1 Multiplicity = 2

                         Standard orientation:
 ---------------------------------------------------------------------
 Center     Atomic      Atomic             Coordinates (Angstroms)
 Number     Number       Type             X           Y           Z
 ---------------------------------------------------------------------
      1          6           0        6.145677   -0.432841   -0.006243
      2          6           0        4.649506   -0.244822   -0.012127
      3          6           0        4.078201    1.029811   -0.061650
      4          6           0        2.694521    1.198976   -0.055826
      5          6           0        1.844652    0.088962   -0.000708
      6          6           0        2.411752   -1.194996    0.044884
      7          6           0        3.789487   -1.353917    0.039053
      8          6           0        0.380294    0.212134    0.005618
      9          7           0       -0.435682   -0.781604   -0.045367
     10          6           0       -1.802220   -0.243318   -0.013836
     11          6           0       -2.553876   -0.796806    1.217052
     12          6           0       -4.040988   -0.439530    1.187261
     13          7           0       -4.633332   -0.941279   -0.056389
     14          6           0       -4.039408   -0.295946   -1.231123
     15          6           0       -2.552895   -0.649447   -1.301760
     16          6           0       -1.629477    1.284419    0.075112
     17          8           0       -2.460864    2.171380    0.140307
     18          7           0       -0.254801    1.461691    0.068812
     19          1           0        6.669499    0.516144   -0.154307
     20          1           0        6.486861   -0.858548    0.945696
     21          1           0        6.462601   -1.121786   -0.797960
     22          1           0        4.722895    1.903472   -0.107713
     23          1           0        2.292483    2.206808   -0.107622
     24          1           0        1.746146   -2.050302    0.083547
     25          1           0        4.212728   -2.354822    0.075129
     26          1           0       -2.085437   -0.424120    2.135268
     27          1           0       -2.436336   -1.885307    1.198092
     28          1           0       -4.156098    0.650352    1.307329
     29          1           0       -4.543961   -0.925551    2.031144
     30          1           0       -5.634658   -0.759512   -0.046171
     31          1           0       -4.542240   -0.677421   -2.127183
     32          1           0       -4.153493    0.800742   -1.220935
     33          1           0       -2.082819   -0.173326   -2.169935
     34          1           0       -2.437231   -1.732928   -1.409322
     35          1           0        0.181333    2.367322    0.158851
 ---------------------------------------------------------------------

 SCF Done:  E(UB3LYP) =  -783.518519697     A.U. after   29 cycles

 The electronic state is 2-A.
 Alpha  occ. eigenvalues --  -18.97159 -14.21835 -14.19474 -14.12485 -10.14091
 Alpha  occ. eigenvalues --  -10.08159 -10.08140 -10.08101 -10.08032 -10.05135
 Alpha  occ. eigenvalues --  -10.04977 -10.04975 -10.03336 -10.03130 -10.03057
 Alpha  occ. eigenvalues --  -10.02789 -10.02502 -10.02293  -0.92317  -0.84771
 Alpha  occ. eigenvalues --   -0.80586  -0.73364  -0.71891  -0.66379  -0.64329
 Alpha  occ. eigenvalues --   -0.63829  -0.60580  -0.57715  -0.53453  -0.51355
 Alpha  occ. eigenvalues --   -0.49196  -0.47704  -0.46811  -0.43611  -0.42420
 Alpha  occ. eigenvalues --   -0.40406  -0.39140  -0.35241  -0.34916  -0.33579
 Alpha  occ. eigenvalues --   -0.32766  -0.32656  -0.32494  -0.30545  -0.30344
 Alpha  occ. eigenvalues --   -0.29789  -0.28315  -0.28102  -0.27269  -0.27010
 Alpha  occ. eigenvalues --   -0.26349  -0.24870  -0.24494  -0.23695  -0.22244
 Alpha  occ. eigenvalues --   -0.21479  -0.20543  -0.20038  -0.19974  -0.16263
 Alpha  occ. eigenvalues --   -0.12942  -0.12649  -0.12017  -0.10802  -0.09565
 Alpha  occ. eigenvalues --    0.04846
 Alpha virt. eigenvalues --    0.07292   0.07905   0.09153   0.09222   0.10079
 Alpha virt. eigenvalues --    0.10551   0.10909   0.10939   0.11906   0.11951
 Alpha virt. eigenvalues --    0.12475   0.12627   0.12677   0.13528   0.13577

  Beta  occ. eigenvalues --  -18.97057 -14.21894 -14.19475 -14.12070 -10.13985
  Beta  occ. eigenvalues --  -10.08154 -10.08134 -10.08067 -10.07877 -10.05168
  Beta  occ. eigenvalues --  -10.04918 -10.04916 -10.03410 -10.03128 -10.02965
  Beta  occ. eigenvalues --  -10.02382 -10.02330 -10.02149  -0.92123  -0.84487
  Beta  occ. eigenvalues --   -0.80574  -0.73034  -0.71511  -0.66033  -0.64276
  Beta  occ. eigenvalues --   -0.63455  -0.60324  -0.57435  -0.53291  -0.51262
  Beta  occ. eigenvalues --   -0.49100  -0.47355  -0.46483  -0.43279  -0.42389
  Beta  occ. eigenvalues --   -0.40369  -0.38981  -0.35097  -0.34811  -0.33514
  Beta  occ. eigenvalues --   -0.32490  -0.32344  -0.32290  -0.30430  -0.29941
  Beta  occ. eigenvalues --   -0.29673  -0.28249  -0.27991  -0.27062  -0.26782
  Beta  occ. eigenvalues --   -0.26276  -0.24789  -0.24021  -0.23004  -0.22073
  Beta  occ. eigenvalues --   -0.21072  -0.20363  -0.19851  -0.19454  -0.16030
  Beta  occ. eigenvalues --   -0.12579  -0.11880  -0.11210  -0.10504  -0.07697
  Beta virt. eigenvalues --    0.07233   0.07826   0.09090   0.09170   0.09981
  Beta virt. eigenvalues --    0.10114   0.10473   0.10848   0.11332   0.11871
  Beta virt. eigenvalues --    0.12234   0.12586   0.12656   0.12872   0.13504

 Mulliken charges and spin densities:
               1          2
     1  C   -0.590815  -0.042857
     2  C    0.550218   0.210892
     3  C   -0.991165  -0.030578
     4  C   -0.602582   0.160259
     5  C    0.862954  -0.000934
     6  C   -0.420927   0.210331
     7  C   -0.389162  -0.008824
     8  C   -0.167922   0.079556
     9  N    0.154107   0.243458
    10  C    0.218144   0.046400
    11  C   -0.141400  -0.022072
    12  C   -0.457882   0.006271
    13  N   -0.170702   0.000083
    14  C   -0.448901   0.010692
    15  C   -0.073751  -0.030527
    16  C   -0.216190   0.060058
    17  O   -0.376192   0.035841
    18  N   -0.164324  -0.030986
    19  H    0.119458   0.000593
    20  H    0.093778   0.046895
    21  H    0.104097   0.025606
    22  H    0.099680   0.002695
    23  H   -0.006728  -0.008962
    24  H    0.134890  -0.010019
    25  H    0.131038   0.002199
    26  H    0.149268   0.009287
    27  H    0.154033   0.005645
    28  H    0.157733   0.001699
    29  H    0.144096   0.004489
    30  H    0.227217  -0.000090
    31  H    0.147702   0.002690
    32  H    0.158096   0.000475
    33  H    0.146026   0.010049
    34  H    0.154665   0.008167
    35  H    0.311442   0.001521
 Sum of Mulliken charges =  -1.00000   1.00000

 Dipole moment (field-independent basis, Debye):
    X=             -3.0791    Y=              0.8473    Z=              0.0162  Tot=              3.1936
 Quadrupole moment (field-independent basis, Debye-Ang):
   XX=           -163.3733   YY=           -126.1806   ZZ=           -117.0311
   XY=              6.2547   XZ=             -0.0186   YZ=             -0.8152

 Summary of Natural Population Analysis:

                                       Natural Population
                Natural  -----------------------------------------------
    Atom  No    Charge         Core      Valence    Rydberg      Total
 -----------------------------------------------------------------------
      C    1   -0.30920      0.99969     2.29927    0.01023     3.30920
      C    2    0.12121      0.99952     1.87326    0.00600     2.87879
      C    3   -0.15427      0.99960     2.13677    0.01790     3.15427
      C    4   -0.06113      0.99955     2.05330    0.00829     3.06113
      C    5   -0.04674      0.99952     2.03039    0.01684     3.04674
      C    6   -0.01621      0.99956     2.01194    0.00471     3.01621
      C    7   -0.16223      0.99963     2.14136    0.02124     3.16223
      C    8    0.23504      0.99958     1.74490    0.02047     2.76496
      N    9   -0.20271      0.99969     2.68597    0.01704     3.70271
      C   10    0.05723      0.99954     1.92100    0.02223     2.94277
      C   11   -0.19751      0.99962     2.18095    0.01695     3.19751
      C   12   -0.09258      0.99962     2.08253    0.01042     3.09258
      N   13   -0.34441      0.99974     2.83215    0.01251     3.84441
      C   14   -0.10009      0.99964     2.08635    0.01410     3.10009
      C   15   -0.16991      0.99962     2.16089    0.00940     3.16991
      C   16    0.34617      0.99965     1.62571    0.02847     2.65383
      O   17   -0.32193      0.99987     3.31543    0.00663     4.32193
      N   18   -0.33123      0.99964     2.82065    0.01094     3.83123
      H   19    0.09379      0.00000     0.40511    0.00110     0.40621
      H   20    0.09914      0.00000     0.39966    0.00120     0.40086
      H   21    0.09805      0.00000     0.40076    0.00119     0.40195
      H   22    0.08768      0.00000     0.41053    0.00179     0.41232
      H   23    0.08337      0.00000     0.41519    0.00143     0.41663
      H   24    0.10544      0.00000     0.39313    0.00143     0.39456
      H   25    0.08839      0.00000     0.40975    0.00187     0.41161
      H   26    0.09963      0.00000     0.39900    0.00137     0.40037
      H   27    0.10243      0.00000     0.39579    0.00178     0.39757
      H   28    0.08854      0.00000     0.40985    0.00161     0.41146
      H   29    0.08684      0.00000     0.41175    0.00140     0.41316
      H   30    0.16713      0.00000     0.33027    0.00260     0.33287
      H   31    0.08586      0.00000     0.41185    0.00229     0.41414
      H   32    0.08763      0.00000     0.41017    0.00220     0.41237
      H   33    0.09665      0.00000     0.40124    0.00211     0.40335
      H   34    0.09963      0.00000     0.39836    0.00201     0.40037
      H   35    0.19807      0.00000     0.30014    0.00179     0.30193
 =======================================================================
   * Total *    0.01778     17.99327    46.70537    0.28358    64.98222

 Normal termination of Gaussian 16 at Sun Dec 13 21:25:17 2020.
