 Gaussian 16, Revision A.03,

 -----------------------------------------------------------
 # opt freq B3LYP/6-31G(d) empiricaldispersion=gd3bj scf=xqc
 -----------------------------------------------------------

 ------------------------------
 CID_20662035_JID_6641_neutraal
 ------------------------------
 Symbolic Z-matrix:
 Charge =  0 Multiplicity = 1

 SCF Done:  E(RB3LYP) =  -766.439351434     A.U. after   15 cycles
 SCF Done:  E(RB3LYP) =  -766.443562950     A.U. after   13 cycles
 SCF Done:  E(RB3LYP) =  -766.443621759     A.U. after   13 cycles
 SCF Done:  E(RB3LYP) =  -766.444853090     A.U. after   13 cycles
 SCF Done:  E(RB3LYP) =  -766.445125101     A.U. after   12 cycles
 SCF Done:  E(RB3LYP) =  -766.445920511     A.U. after   12 cycles
 SCF Done:  E(RB3LYP) =  -766.446052554     A.U. after   12 cycles
 SCF Done:  E(RB3LYP) =  -766.446184825     A.U. after   12 cycles
 SCF Done:  E(RB3LYP) =  -766.446397242     A.U. after   12 cycles
 SCF Done:  E(RB3LYP) =  -766.446590688     A.U. after   12 cycles
 SCF Done:  E(RB3LYP) =  -766.450683007     A.U. after   11 cycles
 SCF Done:  E(RB3LYP) =  -766.450684572     A.U. after   10 cycles
 SCF Done:  E(RB3LYP) =  -766.450684952     A.U. after    9 cycles
 SCF Done:  E(RB3LYP) =  -766.450685001     A.U. after    8 cycles
 SCF Done:  E(RB3LYP) =  -766.450684999     A.U. after    8 cycles
 Optimization completed.
    -- Stationary point found.
 Normal termination of Gaussian 16 at Fri Dec 11 00:50:05 2020.

 --------------------------------------------------------------------
 #N Geom=AllCheck Guess=TCheck SCRF=Check GenChk RB3LYP/6-31G(d) Freq
 --------------------------------------------------------------------

 Structure from the checkpoint file:  "JID_6641.chk"
 ------------------------------
 CID_20662035_JID_6641_neutraal
 ------------------------------
 Charge =  0 Multiplicity = 1

 SCF Done:  E(RB3LYP) =  -766.450684999     A.U. after    1 cycles

  Exact polarizability: 167.482   0.231 117.699   5.834  -4.920 116.877
 Approx polarizability: 215.508  -1.589 185.261  12.985 -15.714 176.461

                      1                      2                      3
                      A                      A                      A
 Frequencies --     13.9392                38.5157                49.0476
 Red. masses --      5.8985                 8.3975                 5.3943
 Frc consts  --      0.0007                 0.0073                 0.0076
 IR Inten    --      1.0856                 1.4676                 0.9912

                      4                      5                      6
                      A                      A                      A
 Frequencies --     56.5664                61.9770                79.4134
 Red. masses --      4.1668                 3.5574                 6.0055
 Frc consts  --      0.0079                 0.0081                 0.0223
 IR Inten    --      0.9621                 0.1897                 0.1618

                      7                      8                      9
                      A                      A                      A
 Frequencies --    100.6196               135.3651               152.2029
 Red. masses --      3.7559                 4.2165                 3.1568
 Frc consts  --      0.0224                 0.0455                 0.0431
 IR Inten    --      4.9644                 2.0027                 0.6289

                     10                     11                     12
                      A                      A                      A
 Frequencies --    170.0369               237.0111               259.5957
 Red. masses --      4.0807                 2.6869                 2.6111
 Frc consts  --      0.0695                 0.0889                 0.1037
 IR Inten    --      2.5246                 0.7899                 0.7119

                     13                     14                     15
                      A                      A                      A
 Frequencies --    271.1877               295.3466               313.3565
 Red. masses --      2.3678                 4.3635                 2.7211
 Frc consts  --      0.1026                 0.2243                 0.1574
 IR Inten    --      1.9131                 0.1193                 1.8819

                     16                     17                     18
                      A                      A                      A
 Frequencies --    342.8176               386.7331               402.4634
 Red. masses --      1.2767                 2.1576                 1.9298
 Frc consts  --      0.0884                 0.1901                 0.1842
 IR Inten    --      0.6861                 6.0400                 0.2855

                     19                     20                     21
                      A                      A                      A
 Frequencies --    440.9588               447.9070               454.6134
 Red. masses --      2.2897                 3.8105                 2.1271
 Frc consts  --      0.2623                 0.4504                 0.2590
 IR Inten    --     10.3758                 9.9488                37.4400

                     22                     23                     24
                      A                      A                      A
 Frequencies --    484.7273               502.8305               527.2818
 Red. masses --      1.3239                 2.1118                 2.3584
 Frc consts  --      0.1833                 0.3146                 0.3863
 IR Inten    --     22.4465                 7.8313                11.2831

                     25                     26                     27
                      A                      A                      A
 Frequencies --    542.2303               583.0255               634.9534
 Red. masses --      3.0814                 3.1885                 2.3862
 Frc consts  --      0.5338                 0.6386                 0.5668
 IR Inten    --     14.6497                12.8383               130.5572

                     28                     29                     30
                      A                      A                      A
 Frequencies --    639.4263               645.9168               672.2261
 Red. masses --      1.8299                 1.6019                 1.9169
 Frc consts  --      0.4408                 0.3938                 0.5104
 IR Inten    --    104.0522                71.1257                43.8830

                     31                     32                     33
                      A                      A                      A
 Frequencies --    703.2330               720.1166               734.2363
 Red. masses --      1.4794                 1.2207                 2.6100
 Frc consts  --      0.4310                 0.3730                 0.8290
 IR Inten    --     99.1494                15.8944                27.7292

                     34                     35                     36
                      A                      A                      A
 Frequencies --    738.2685               757.7465               768.0816
 Red. masses --      1.3353                 2.0945                 1.7532
 Frc consts  --      0.4288                 0.7086                 0.6094
 IR Inten    --     38.4233                34.0470                55.0483

                     37                     38                     39
                      A                      A                      A
 Frequencies --    803.9372               851.6068               858.8998
 Red. masses --      3.2022                 4.3245                 2.1333
 Frc consts  --      1.2194                 1.8478                 0.9272
 IR Inten    --      7.7581                 6.6850                 4.1625

                     40                     41                     42
                      A                      A                      A
 Frequencies --    875.9861               942.8192               964.2472
 Red. masses --      2.3946                 1.7980                 1.9014
 Frc consts  --      1.0826                 0.9417                 1.0416
 IR Inten    --      0.3987                 2.3417                 2.3669

                     43                     44                     45
                      A                      A                      A
 Frequencies --    993.6968              1000.9218              1024.5815
 Red. masses --      2.1292                 1.6073                 1.6354
 Frc consts  --      1.2387                 0.9487                 1.0115
 IR Inten    --     28.8103                 9.4292                 0.1532

                     46                     47                     48
                      A                      A                      A
 Frequencies --   1042.0168              1069.7514              1107.6294
 Red. masses --      1.7308                 1.8689                 1.7402
 Frc consts  --      1.1072                 1.2601                 1.2579
 IR Inten    --      0.5584                 2.4450                14.0492

                     49                     50                     51
                      A                      A                      A
 Frequencies --   1135.5113              1154.9593              1169.3181
 Red. masses --      2.4248                 2.4103                 1.8593
 Frc consts  --      1.8421                 1.8944                 1.4978
 IR Inten    --      1.0412                 7.9970                16.8493

                     52                     53                     54
                      A                      A                      A
 Frequencies --   1175.7678              1191.9048              1221.2458
 Red. masses --      1.6952                 2.3489                 1.1586
 Frc consts  --      1.3807                 1.9661                 1.0181
 IR Inten    --      6.3872               180.0246                 2.9242

                     55                     56                     57
                      A                      A                      A
 Frequencies --   1238.2841              1276.8717              1288.0874
 Red. masses --      1.3205                 1.2184                 1.3449
 Frc consts  --      1.1929                 1.1704                 1.3147
 IR Inten    --     10.7043                 8.4404                22.8912

                     58                     59                     60
                      A                      A                      A
 Frequencies --   1304.4364              1344.9841              1351.5249
 Red. masses --      1.3496                 1.6837                 1.1955
 Frc consts  --      1.3530                 1.7945                 1.2866
 IR Inten    --      1.2914               123.3224                 6.4828

                     61                     62                     63
                      A                      A                      A
 Frequencies --   1352.9014              1379.1745              1386.7460
 Red. masses --      1.5899                 1.4708                 1.3978
 Frc consts  --      1.7145                 1.6483                 1.5837
 IR Inten    --     20.1920                18.0599                15.7408

                     64                     65                     66
                      A                      A                      A
 Frequencies --   1391.3992              1410.2554              1416.3420
 Red. masses --      2.5560                 1.6459                 1.6162
 Frc consts  --      2.9155                 1.9286                 1.9102
 IR Inten    --     44.4952                39.9333                40.5373

                     67                     68                     69
                      A                      A                      A
 Frequencies --   1424.8138              1435.7625              1450.9318
 Red. masses --      1.4996                 1.6020                 1.2518
 Frc consts  --      1.7936                 1.9457                 1.5527
 IR Inten    --     12.5547                 3.2262                 6.2579

                     70                     71                     72
                      A                      A                      A
 Frequencies --   1471.9153              1494.9449              1502.0396
 Red. masses --      1.1762                 1.2073                 1.4015
 Frc consts  --      1.5013                 1.5897                 1.8629
 IR Inten    --      1.5487                 4.2567                58.3591

                     73                     74                     75
                      A                      A                      A
 Frequencies --   1513.7729              1520.8556              1527.6997
 Red. masses --      1.0722                 1.0797                 1.0916
 Frc consts  --      1.4476                 1.4714                 1.5010
 IR Inten    --      0.7315                 8.7767                12.0841

                     76                     77                     78
                      A                      A                      A
 Frequencies --   1539.0416              1543.7944              1555.0309
 Red. masses --      1.1085                 1.0566                 1.0496
 Frc consts  --      1.5471                 1.4836                 1.4954
 IR Inten    --     10.6689                 7.1602                 9.9503

                     79                     80                     81
                      A                      A                      A
 Frequencies --   1700.0512              1725.5526              1745.9223
 Red. masses --      1.2100                 4.3617                 5.5920
 Frc consts  --      2.0604                 7.6517                10.0430
 IR Inten    --     85.2407               152.5462               271.4002

                     82                     83                     84
                      A                      A                      A
 Frequencies --   1851.8947              3020.7527              3028.2351
 Red. masses --     10.2142                 1.0814                 1.0628
 Frc consts  --     20.6388                 5.8136                 5.7424
 IR Inten    --    258.1943                 9.3668                17.6542

                     85                     86                     87
                      A                      A                      A
 Frequencies --   3038.9421              3052.3745              3061.9219
 Red. masses --      1.0681                 1.0739                 1.0969
 Frc consts  --      5.8115                 5.8949                 6.0588
 IR Inten    --     37.1672                49.3598                31.6497

                     88                     89                     90
                      A                      A                      A
 Frequencies --   3067.1275              3070.4299              3091.1980
 Red. masses --      1.0394                 1.0719                 1.0952
 Frc consts  --      5.7607                 5.9541                 6.1661
 IR Inten    --     22.9800                32.8914                29.4248

                     91                     92                     93
                      A                      A                      A
 Frequencies --   3092.6578              3123.6340              3135.8927
 Red. masses --      1.0695                 1.1006                 1.0945
 Frc consts  --      6.0267                 6.3270                 6.3416
 IR Inten    --     11.3348                23.9637                15.5118

                     94                     95                     96
                      A                      A                      A
 Frequencies --   3149.4385              3158.5516              3159.9228
 Red. masses --      1.1012                 1.0945                 1.0885
 Frc consts  --      6.4355                 6.4336                 6.4035
 IR Inten    --     20.8789                 8.3339                11.6257

                     97                     98                     99
                      A                      A                      A
 Frequencies --   3165.0479              3247.1998              3527.5322
 Red. masses --      1.0604                 1.1146                 1.0487
 Frc consts  --      6.2584                 6.9246                 7.6888
 IR Inten    --      8.3815                18.2615               116.0399

                    100                    101                    102
                      A                      A                      A
 Frequencies --   3578.1038              3642.9673              3685.1659
 Red. masses --      1.0756                 1.0993                 1.0641
 Frc consts  --      8.1134                 8.5960                 8.5146
 IR Inten    --     24.7974                59.2139                65.5814

 - Thermochemistry -
 -------------------
 Temperature   298.150 Kelvin.  Pressure   1.00000 Atm.
 Atom     1 has atomic number  6 and mass  12.00000

 Molecular mass:   228.14739 amu.
 Principal axes and moments of inertia in atomic units:
                           1         2         3
     Eigenvalues --  1564.349766953.978237354.81417
           X            1.00000   0.00215   0.00044
           Y           -0.00216   0.99988   0.01514
           Z           -0.00041  -0.01514   0.99989
 This molecule is an asymmetric top.
 Rotational symmetry number  1.
 Warning -- assumption of classical behavior for rotation
           may cause significant error
 Rotational temperatures (Kelvin)      0.05537     0.01246     0.01178
 Rotational constants (GHZ):           1.15367     0.25953     0.24538
 Zero-point vibrational energy     826565.2 (Joules/Mol)
                                  197.55381 (Kcal/Mol)
 Warning -- explicit consideration of  26 degrees of freedom as
           vibrations may cause significant error
 Vibrational temperatures:     20.06    55.42    70.57    81.39    89.17
          (Kelvin)            114.26   144.77   194.76   218.99   244.65
                              341.01   373.50   390.18   424.94   450.85
                              493.24   556.42   579.06   634.44   644.44
                              654.09   697.41   723.46   758.64   780.15
                              838.84   913.56   919.99   929.33   967.18
                             1011.80  1036.09  1056.40  1062.20  1090.23
                             1105.10  1156.69  1225.27  1235.77  1260.35
                             1356.51  1387.34  1429.71  1440.10  1474.14
                             1499.23  1539.13  1593.63  1633.75  1661.73
                             1682.39  1691.67  1714.89  1757.10  1781.61
                             1837.13  1853.27  1876.79  1935.13  1944.54
                             1946.52  1984.32  1995.22  2001.91  2029.04
                             2037.80  2049.99  2065.74  2087.57  2117.76
                             2150.89  2161.10  2177.98  2188.17  2198.02
                             2214.34  2221.18  2237.34  2445.99  2482.69
                             2511.99  2664.46  4346.19  4356.95  4372.36
                             4391.69  4405.42  4412.91  4417.66  4447.54
                             4449.64  4494.21  4511.85  4531.34  4544.45
                             4546.42  4553.80  4672.00  5075.33  5148.09
                             5241.42  5302.13

 Zero-point correction=                           0.314822 (Hartree/Particle)
 Thermal correction to Energy=                    0.332381
 Thermal correction to Enthalpy=                  0.333326
 Thermal correction to Gibbs Free Energy=         0.267586
 Sum of electronic and zero-point Energies=           -766.135863
 Sum of electronic and thermal Energies=              -766.118304
 Sum of electronic and thermal Enthalpies=            -766.117359
 Sum of electronic and thermal Free Energies=         -766.183099

                     E (Thermal)             CV                S
                      KCal/Mol        Cal/Mol-Kelvin    Cal/Mol-Kelvin
 Total                  208.573             66.055            138.360
 Electronic               0.000              0.000              0.000
 Translational            0.889              2.981             42.177
 Rotational               0.889              2.981             32.748
 Vibrational            206.795             60.094             63.436
 Vibration     1          0.593              1.986              7.351
 Vibration     2          0.594              1.981              5.334
 Vibration     3          0.595              1.978              4.855
 Vibration     4          0.596              1.975              4.574
 Vibration     5          0.597              1.972              4.393
 Vibration     6          0.600              1.963              3.905
 Vibration     7          0.604              1.949              3.442
 Vibration     8          0.613              1.918              2.868
 Vibration     9          0.619              1.900              2.645
 Vibration    10          0.625              1.879              2.435
 Vibration    11          0.656              1.784              1.825
 Vibration    12          0.668              1.747              1.664
 Vibration    13          0.675              1.726              1.589
 Vibration    14          0.690              1.682              1.443
 Vibration    15          0.701              1.648              1.345
 Vibration    16          0.722              1.590              1.199
 Vibration    17          0.755              1.499              1.013
 Vibration    18          0.768              1.465              0.954
 Vibration    19          0.801              1.381              0.824
 Vibration    20          0.807              1.366              0.802
 Vibration    21          0.813              1.351              0.782
 Vibration    22          0.841              1.284              0.697
 Vibration    23          0.858              1.244              0.651
 Vibration    24          0.882              1.190              0.593
 Vibration    25          0.897              1.157              0.561
 Vibration    26          0.940              1.068              0.480

 Optimization completed.
    -- Stationary point found.
 Normal termination of Gaussian 16 at Fri Dec 11 01:03:13 2020.

 ----------------------------------------------------------------------
 # B3LYP/6-311++G(d,p) empiricaldispersion=gd3bj scf=xqc pop=npa geom=c
 heck
 ----------------------------------------------------------------------

 --------------------------------------
 CID_20662035_JID_6641_Energie_neutraal
 --------------------------------------
 Structure from the checkpoint file:  "JID_6641.chk"
 Charge =  0 Multiplicity = 1

 SCF Done:  E(RB3LYP) =  -766.692924540     A.U. after   15 cycles
 Normal termination of Gaussian 16 at Fri Dec 11 01:09:17 2020.

 ----------------------------------------------------------------------
 # B3LYP/6-311++G(d,p) empiricaldispersion=gd3bj scf=xqc pop=npa geom=c
 heck
 ----------------------------------------------------------------------

 ------------------------------------
 CID_20662035_JID_6641_Energie_kation
 ------------------------------------
 Structure from the checkpoint file:  "JID_6641.chk"
 Charge =  1 Multiplicity = 2

 SCF Done:  E(UB3LYP) =  -766.422744314     A.U. after   21 cycles
 Normal termination of Gaussian 16 at Fri Dec 11 01:20:46 2020.
 Gaussian 16:  ES64L-G16RevA.03 25-Dec-2016

 ----------------------------------------------------------------------
 # B3LYP/6-311++G(d,p) empiricaldispersion=gd3bj scf=xqc pop=npa geom=c
 heck
 ----------------------------------------------------------------------

 -----------------------------------
 CID_20662035_JID_6641_Energie_anion
 -----------------------------------
 Structure from the checkpoint file:  "JID_6641.chk"
 Charge = -1 Multiplicity = 2

                         Standard orientation:
 ---------------------------------------------------------------------
 Center     Atomic      Atomic             Coordinates (Angstroms)
 Number     Number       Type             X           Y           Z
 ---------------------------------------------------------------------
      1          6           0        1.300838   -1.896864   -0.323602
      2          6           0        0.590661   -0.674342   -0.924662
      3          6           0       -0.867967   -1.021347   -1.311334
      4          6           0       -1.719781   -1.717167   -0.236777
      5          6           0       -1.875038   -1.054471    1.142644
      6          6           0       -2.549331    0.340558    1.217022
      7          6           0       -3.614774    0.598197    0.168399
      8          6           0       -4.801269   -0.036328    0.173923
      9          7           0       -3.252199    1.570607   -0.760140
     10          6           0        0.609310    0.659850   -0.164602
     11          8           0       -0.158546    1.562365   -0.497165
     12          7           0        1.459248    0.910320    0.890667
     13          6           0        2.710087    0.275954    1.247760
     14          6           0        3.792784    0.239379    0.173471
     15          8           0        4.787297   -0.443556    0.255513
     16          8           0        3.528612    1.055772   -0.869430
     17          1           0        0.979098   -2.099770    0.702317
     18          1           0        2.390175   -1.820724   -0.339278
     19          1           0        1.041916   -2.777471   -0.920866
     20          1           0        1.105736   -0.419351   -1.862620
     21          1           0       -1.361191   -0.111445   -1.652809
     22          1           0       -0.820161   -1.694494   -2.177086
     23          1           0       -2.722118   -1.853072   -0.657636
     24          1           0       -1.322112   -2.726628   -0.067226
     25          1           0       -2.464981   -1.753871    1.748141
     26          1           0       -0.898739   -0.982855    1.641902
     27          1           0       -2.996568    0.442829    2.212131
     28          1           0       -1.793025    1.123718    1.138219
     29          1           0       -5.552747    0.137056   -0.591842
     30          1           0       -5.054024   -0.726354    0.971142
     31          1           0       -2.254914    1.699360   -0.897566
     32          1           0       -3.790109    1.592212   -1.617168
     33          1           0        1.371756    1.882064    1.165621
     34          1           0        3.129128    0.830751    2.093794
     35          1           0        2.572772   -0.746975    1.599085
     36          1           0        4.278745    0.961375   -1.486743
 ---------------------------------------------------------------------

 SCF Done:  E(UB3LYP) =  -766.688332606     A.U. after   33 cycles
 SCF Done:  E(UB3LYP) =  -766.688332606     a.u. after    1 cycles

 The electronic state is 2-A.
 Alpha  occ. eigenvalues --  -19.07579 -19.02200 -18.99899 -14.24610 -14.21889
 Alpha  occ. eigenvalues --  -10.21376 -10.18544 -10.12974 -10.11662 -10.09521
 Alpha  occ. eigenvalues --  -10.07664 -10.07429 -10.07333 -10.07273 -10.07144
 Alpha  occ. eigenvalues --  -10.04683  -1.01757  -0.95201  -0.92944  -0.83260
 Alpha  occ. eigenvalues --   -0.81891  -0.72520  -0.69040  -0.65362  -0.64537
 Alpha  occ. eigenvalues --   -0.61191  -0.57690  -0.55067  -0.52911  -0.49799
 Alpha  occ. eigenvalues --   -0.46682  -0.44685  -0.43265  -0.41754  -0.40563
 Alpha  occ. eigenvalues --   -0.39508  -0.39144  -0.37951  -0.37073  -0.36580
 Alpha  occ. eigenvalues --   -0.35927  -0.33915  -0.32785  -0.31611  -0.31338
 Alpha  occ. eigenvalues --   -0.31084  -0.30548  -0.30347  -0.29686  -0.28371
 Alpha  occ. eigenvalues --   -0.27874  -0.25535  -0.24998  -0.24797  -0.23323
 Alpha  occ. eigenvalues --   -0.22708  -0.22201  -0.21803  -0.20543  -0.17253
 Alpha  occ. eigenvalues --   -0.16285  -0.11458   0.03906
 Alpha virt. eigenvalues --    0.06132   0.06482   0.07159   0.07692   0.08448
 Alpha virt. eigenvalues --    0.08707   0.09301   0.09677   0.09760   0.10259
 Alpha virt. eigenvalues --    0.11004   0.11217   0.11551   0.12171   0.12857

  Beta  occ. eigenvalues --  -19.07507 -19.02173 -18.99893 -14.24583 -14.21887
  Beta  occ. eigenvalues --  -10.21360 -10.18540 -10.12919 -10.11663 -10.09508
  Beta  occ. eigenvalues --  -10.07651 -10.07425 -10.07300 -10.07265 -10.07139
  Beta  occ. eigenvalues --  -10.04678  -1.01652  -0.95186  -0.92860  -0.83215
  Beta  occ. eigenvalues --   -0.81887  -0.72496  -0.69020  -0.65253  -0.64512
  Beta  occ. eigenvalues --   -0.61169  -0.57645  -0.55009  -0.52796  -0.49755
  Beta  occ. eigenvalues --   -0.46644  -0.44654  -0.43180  -0.41741  -0.40517
  Beta  occ. eigenvalues --   -0.39456  -0.39117  -0.37914  -0.37023  -0.36507
  Beta  occ. eigenvalues --   -0.35893  -0.33886  -0.32761  -0.31551  -0.31321
  Beta  occ. eigenvalues --   -0.31035  -0.30507  -0.30298  -0.29663  -0.28344
  Beta  occ. eigenvalues --   -0.27856  -0.25509  -0.24985  -0.24774  -0.23250
  Beta  occ. eigenvalues --   -0.22687  -0.22176  -0.21790  -0.20485  -0.17218
  Beta  occ. eigenvalues --   -0.16242  -0.11448
  Beta virt. eigenvalues --    0.06081   0.07059   0.07141   0.07516   0.08307
  Beta virt. eigenvalues --    0.08796   0.08969   0.09518   0.09759   0.09911
  Beta virt. eigenvalues --    0.10626   0.11137   0.11493   0.11683   0.12267

 Mulliken charges and spin densities:
               1          2
     1  C    0.485405  -1.282242
     2  C   -0.159267   0.666817
     3  C   -0.116104  -0.338987
     4  C   -0.318365   0.069759
     5  C   -0.175512  -0.211424
     6  C   -0.244625  -0.168293
     7  C    0.087032   0.221425
     8  C   -0.383997  -0.229490
     9  N   -0.340340  -0.010875
    10  C    0.703652  -1.058775
    11  O   -0.326082   0.030314
    12  N   -0.280576   0.169954
    13  C    0.616602  -0.925444
    14  C    0.183867  -0.292274
    15  O   -0.254564   0.035538
    16  O   -0.058992  -0.032057
    17  H   -0.184716   0.349586
    18  H   -0.125518   0.305222
    19  H    0.099386   0.057405
    20  H   -0.080977   0.342184
    21  H    0.210080  -0.074784
    22  H   -0.133729   0.313184
    23  H    0.162802   0.012579
    24  H    0.049275   0.094003
    25  H    0.021532   0.160524
    26  H    0.055820   0.084496
    27  H    0.059371   0.135772
    28  H    0.125689   0.042707
    29  H    0.047729   0.023216
    30  H    0.096325   0.014437
    31  H    0.297944   0.012802
    32  H    0.201902   0.026410
    33  H    0.011989   0.318721
    34  H   -1.073872   1.300190
    35  H    0.177951   0.084069
    36  H   -0.437119   0.753333
 Sum of Mulliken charges =  -1.00000   1.00000

 Dipole moment (field-independent basis, Debye):
    X=             -7.3760    Y=             -2.7017    Z=             -1.1924  Tot=              7.9452
 Quadrupole moment (field-independent basis, Debye-Ang):
   XX=           -188.3776   YY=           -135.8895   ZZ=           -134.6078
   XY=             -4.8003   XZ=              3.9255   YZ=             -3.8730

 Summary of Natural Population Analysis:

                                       Natural Population
                Natural  -----------------------------------------------
    Atom  No    Charge         Core      Valence    Rydberg      Total
 -----------------------------------------------------------------------
      C    1   -0.29223      0.99965     2.28626    0.00633     3.29223
      C    2   -0.15497      0.99955     2.14422    0.01120     3.15497
      C    3   -0.18769      0.99961     2.17717    0.01091     3.18769
      C    4   -0.19770      0.99962     2.18945    0.00864     3.19770
      C    5   -0.18879      0.99962     2.18092    0.00824     3.18879
      C    6   -0.21325      0.99957     2.20459    0.00908     3.21325
      C    7    0.10305      0.99953     1.88593    0.01149     2.89695
      C    8   -0.27519      0.99952     2.26855    0.00712     3.27519
      N    9   -0.40626      0.99970     2.89770    0.00886     3.90626
      C   10    0.36323      0.99963     1.61400    0.02314     2.63677
      O   11   -0.34154      0.99987     3.33562    0.00606     4.34154
      N   12   -0.31696      0.99967     2.80474    0.01255     3.81696
      C   13   -0.13996      0.99956     2.12763    0.01278     3.13996
      C   14    0.40099      0.99973     1.57402    0.02526     2.59901
      O   15   -0.30421      0.99987     3.29787    0.00646     4.30421
      O   16   -0.34057      0.99987     3.33336    0.00734     4.34057
      H   17    0.09956      0.00000     0.39932    0.00112     0.40044
      H   18    0.10531      0.00000     0.39355    0.00113     0.39469
      H   19    0.10356      0.00000     0.39550    0.00095     0.39644
      H   20    0.11820      0.00000     0.38012    0.00167     0.38180
      H   21    0.10615      0.00000     0.39205    0.00180     0.39385
      H   22    0.09718      0.00000     0.40190    0.00092     0.40282
      H   23    0.10397      0.00000     0.39475    0.00128     0.39603
      H   24    0.09619      0.00000     0.40280    0.00101     0.40381
      H   25    0.09559      0.00000     0.40344    0.00097     0.40441
      H   26    0.09906      0.00000     0.39961    0.00133     0.40094
      H   27    0.10425      0.00000     0.39484    0.00091     0.39575
      H   28    0.11074      0.00000     0.38751    0.00176     0.38926
      H   29    0.08857      0.00000     0.41017    0.00125     0.41143
      H   30    0.09515      0.00000     0.40400    0.00085     0.40485
      H   31    0.20462      0.00000     0.29316    0.00223     0.29538
      H   32    0.17937      0.00000     0.31897    0.00167     0.32063
      H   33    0.19841      0.00000     0.29810    0.00349     0.30159
      H   34    0.12453      0.00000     0.36951    0.00596     0.37547
      H   35    0.11309      0.00000     0.38544    0.00147     0.38691
      H   36    0.24856      0.00000     0.23088    0.02056     0.25144
 =======================================================================
   * Total *   -0.00000     15.99456    45.77765    0.22779    62.00000

 Normal termination of Gaussian 16 at Fri Dec 11 01:38:10 2020.
