 Gaussian 16, Revision A.03,

 -----------------------------------------------------------
 # opt freq B3LYP/6-31G(d) empiricaldispersion=gd3bj scf=xqc
 -----------------------------------------------------------

 ------------------------------
 CID_90708251_JID_1753_neutraal
 ------------------------------
 Symbolic Z-matrix:
 Charge =  0 Multiplicity = 1

 SCF Done:  E(RB3LYP) =  -465.737546121     A.U. after   12 cycles
 SCF Done:  E(RB3LYP) =  -465.740088090     A.U. after   11 cycles
 SCF Done:  E(RB3LYP) =  -465.740391316     A.U. after   10 cycles
 SCF Done:  E(RB3LYP) =  -465.740523406     A.U. after   10 cycles
 SCF Done:  E(RB3LYP) =  -465.740613479     A.U. after    9 cycles
 SCF Done:  E(RB3LYP) =  -465.740710910     A.U. after   10 cycles
 SCF Done:  E(RB3LYP) =  -465.740726826     A.U. after    9 cycles
 SCF Done:  E(RB3LYP) =  -465.740776248     A.U. after    9 cycles
 SCF Done:  E(RB3LYP) =  -465.740904330     A.U. after   10 cycles
 SCF Done:  E(RB3LYP) =  -465.740918742     A.U. after    8 cycles
 SCF Done:  E(RB3LYP) =  -465.741123097     A.U. after    6 cycles
 SCF Done:  E(RB3LYP) =  -465.741122669     A.U. after    9 cycles
 SCF Done:  E(RB3LYP) =  -465.741123531     A.U. after    9 cycles
 SCF Done:  E(RB3LYP) =  -465.741123528     A.U. after    6 cycles
 SCF Done:  E(RB3LYP) =  -465.741123572     A.U. after    7 cycles
 SCF Done:  E(RB3LYP) =  -465.741123574     A.U. after    7 cycles
 Optimization completed on the basis of negligible forces.
    -- Stationary point found.

 1\1\GINC-NODE109\FOpt\RB3LYP\6-31G(d)\C9H22N2\VSC10255\08-Dec-2020\0\\
 # opt freq B3LYP/6-31G(d) empiricaldispersion=gd3bj scf=xqc\\CID_90708
 251_JID_1753_neutraal\\0,1\C,1.2528332742,0.1182043405,0.3875476974\C,
 1.2715145544,-0.8927645703,1.5354669901\C,-2.446550444,1.9986312299,0.
 8958232853\C,-2.0328812583,1.1942317027,2.1285455375\C,-0.9108371405,1
 .8666886609,2.929153139\N,-1.2864450549,3.197433623,3.4129066098\C,-2.
 174041081,3.1824758325,4.5817029887\C,-1.4367109625,2.8749606847,5.896
 4521815\N,-0.2826481494,3.7536974387,6.131784922\C,0.6011772958,3.7827

 Normal termination of Gaussian 16 at Tue Dec  8 21:52:36 2020.

 --------------------------------------------------------------------
 #N Geom=AllCheck Guess=TCheck SCRF=Check GenChk RB3LYP/6-31G(d) Freq
 --------------------------------------------------------------------

 Structure from the checkpoint file:  "JID_1753.chk"
 ------------------------------
 CID_90708251_JID_1753_neutraal
 ------------------------------
 Charge =  0 Multiplicity = 1

 SCF Done:  E(RB3LYP) =  -465.741123574     A.U. after    1 cycles

  Exact polarizability: 122.538   0.973 105.698  -0.585  -4.354 101.022
 Approx polarizability: 154.102  -3.507 142.731  -2.722  -5.602 145.024

                      1                      2                      3
                      A                      A                      A
 Frequencies --     17.0667                24.4098                30.6467
 Red. masses --      2.6275                 2.3538                 2.9652
 Frc consts  --      0.0005                 0.0008                 0.0016
 IR Inten    --      0.0376                 0.0282                 0.0240

                      4                      5                      6
                      A                      A                      A
 Frequencies --     41.7818                55.1811                73.2534
 Red. masses --      1.7704                 1.7301                 3.7916
 Frc consts  --      0.0018                 0.0031                 0.0120
 IR Inten    --      0.0305                 0.0352                 0.0023

                      7                      8                      9
                      A                      A                      A
 Frequencies --     95.8433               103.0925               155.3778
 Red. masses --      1.9248                 2.4913                 1.9358
 Frc consts  --      0.0104                 0.0156                 0.0275
 IR Inten    --      0.1974                 0.5545                 1.2252

                     10                     11                     12
                      A                      A                      A
 Frequencies --    198.6461               220.6545               291.9117
 Red. masses --      1.8795                 1.5079                 2.0324
 Frc consts  --      0.0437                 0.0433                 0.1020
 IR Inten    --      1.6302                 0.1680                 3.6964

                     13                     14                     15
                      A                      A                      A
 Frequencies --    318.5122               321.6979               401.0649
 Red. masses --      1.0097                 1.8383                 1.8272
 Frc consts  --      0.0604                 0.1121                 0.1732
 IR Inten    --      0.1367                 4.3827                 0.0362

                     16                     17                     18
                      A                      A                      A
 Frequencies --    432.6535               447.0088               483.5926
 Red. masses --      2.5800                 2.0081                 2.6965
 Frc consts  --      0.2845                 0.2364                 0.3715
 IR Inten    --      0.8486                 5.5785                 2.1896

                     19                     20                     21
                      A                      A                      A
 Frequencies --    530.0844               614.4683               735.6246
 Red. masses --      2.6754                 1.5376                 1.8568
 Frc consts  --      0.4429                 0.3421                 0.5920
 IR Inten    --      1.4909                 3.7426                16.0860

                     22                     23                     24
                      A                      A                      A
 Frequencies --    814.9713               826.7434               833.4899
 Red. masses --      2.5298                 1.6164                 1.0579
 Frc consts  --      0.9900                 0.6510                 0.4330
 IR Inten    --    109.8050                29.5669                 3.9049

                     25                     26                     27
                      A                      A                      A
 Frequencies --    835.3426               837.7857               873.9145
 Red. masses --      1.0632                 1.6323                 2.0788
 Frc consts  --      0.4371                 0.6750                 0.9354
 IR Inten    --     10.0124                 2.4944                13.9787

                     28                     29                     30
                      A                      A                      A
 Frequencies --    884.2368               902.2556               932.4880
 Red. masses --      2.3015                 1.8312                 1.3770
 Frc consts  --      1.0602                 0.8783                 0.7054
 IR Inten    --      6.6567                21.4456                 1.4460

                     31                     32                     33
                      A                      A                      A
 Frequencies --    993.7584              1011.8860              1034.2607
 Red. masses --      2.1028                 3.2537                 2.0385
 Frc consts  --      1.2235                 1.9629                 1.2848
 IR Inten    --      7.5803                 0.1955                 6.0052

                     34                     35                     36
                      A                      A                      A
 Frequencies --   1036.6668              1052.1927              1097.8440
 Red. masses --      1.5790                 2.3638                 2.3628
 Frc consts  --      0.9998                 1.5419                 1.6778
 IR Inten    --     11.5259                 8.6556                17.2900

                     37                     38                     39
                      A                      A                      A
 Frequencies --   1113.0467              1123.5822              1143.3315
 Red. masses --      2.1247                 1.9921                 3.5861
 Frc consts  --      1.5509                 1.4817                 2.7620
 IR Inten    --     16.9570                15.3686                15.7276

                     40                     41                     42
                      A                      A                      A
 Frequencies --   1196.6394              1209.6240              1235.3704
 Red. masses --      1.4276                 2.0821                 1.5389
 Frc consts  --      1.2045                 1.7950                 1.3837
 IR Inten    --      1.3944                28.9531                 0.1517

                     43                     44                     45
                      A                      A                      A
 Frequencies --   1235.9192              1236.7891              1280.6632
 Red. masses --      1.4635                 1.5148                 1.2050
 Frc consts  --      1.3172                 1.3652                 1.1644
 IR Inten    --      0.1181                 0.1311                 4.6425

                     46                     47                     48
                      A                      A                      A
 Frequencies --   1315.7055              1336.4643              1350.6436
 Red. masses --      1.1864                 1.3619                 1.2996
 Frc consts  --      1.2101                 1.4332                 1.3968
 IR Inten    --      1.6693                12.0584                 4.7686

                     49                     50                     51
                      A                      A                      A
 Frequencies --   1366.9497              1378.0764              1391.5987
 Red. masses --      1.2797                 1.4696                 1.2844
 Frc consts  --      1.4088                 1.6444                 1.4655
 IR Inten    --      0.2494                 4.8434                10.0817

                     52                     53                     54
                      A                      A                      A
 Frequencies --   1398.8697              1411.5975              1418.3510
 Red. masses --      1.3836                 1.3378                 1.3303
 Frc consts  --      1.5952                 1.5706                 1.5768
 IR Inten    --     16.8743                18.7317                 7.7769

                     55                     56                     57
                      A                      A                      A
 Frequencies --   1425.7498              1432.5152              1443.7095
 Red. masses --      1.3255                 1.1982                 1.2936
 Frc consts  --      1.5875                 1.4487                 1.5886
 IR Inten    --      6.7885                 0.7102                 7.3642

                     58                     59                     60
                      A                      A                      A
 Frequencies --   1454.7522              1493.4981              1505.3388
 Red. masses --      1.2558                 1.0983                 1.0960
 Frc consts  --      1.5658                 1.4434                 1.4633
 IR Inten    --      1.4067                 6.4056                 5.0536

                     61                     62                     63
                      A                      A                      A
 Frequencies --   1507.3263              1510.3905              1515.9201
 Red. masses --      1.0895                 1.1383                 1.1068
 Frc consts  --      1.4585                 1.5299                 1.4985
 IR Inten    --      3.8304                 5.5469                 5.0201

                     64                     65                     66
                      A                      A                      A
 Frequencies --   1520.7795              1521.3089              1531.1051
 Red. masses --      1.0504                 1.0746                 1.0280
 Frc consts  --      1.4313                 1.4653                 1.4199
 IR Inten    --      3.1323                 0.4955                 1.9894

                     67                     68                     69
                      A                      A                      A
 Frequencies --   1532.8747              1534.7880              1537.3171
 Red. masses --      1.0512                 1.0425                 1.0628
 Frc consts  --      1.4554                 1.4468                 1.4799
 IR Inten    --      5.8869                 1.6159                10.4063

                     70                     71                     72
                      A                      A                      A
 Frequencies --   1540.5295              1542.1459              2953.2882
 Red. masses --      1.0703                 1.0641                 1.0721
 Frc consts  --      1.4965                 1.4911                 5.5093
 IR Inten    --      6.7401                 4.0078                60.8563

                     73                     74                     75
                      A                      A                      A
 Frequencies --   3006.2446              3017.3868              3037.6590
 Red. masses --      1.0675                 1.0697                 1.0604
 Frc consts  --      5.6844                 5.7384                 5.7650
 IR Inten    --     33.7842                56.4768                31.3609

                     76                     77                     78
                      A                      A                      A
 Frequencies --   3041.5908              3043.6815              3046.4061
 Red. masses --      1.0621                 1.0611                 1.0403
 Frc consts  --      5.7890                 5.7916                 5.6884
 IR Inten    --     28.9077                28.4795                18.8656

                     79                     80                     81
                      A                      A                      A
 Frequencies --   3049.4044              3050.9894              3065.8270
 Red. masses --      1.0367                 1.0350                 1.0942
 Frc consts  --      5.6799                 5.6762                 6.0593
 IR Inten    --      7.5444                46.8952                21.5442

                     82                     83                     84
                      A                      A                      A
 Frequencies --   3074.3004              3082.7963              3085.2405
 Red. masses --      1.0960                 1.0924                 1.1032
 Frc consts  --      6.1029                 6.1165                 6.1868
 IR Inten    --     12.1266                75.3572                31.7629

                     85                     86                     87
                      A                      A                      A
 Frequencies --   3085.9973              3093.6554              3099.8491
 Red. masses --      1.1028                 1.0975                 1.1015
 Frc consts  --      6.1879                 6.1885                 6.2364
 IR Inten    --     97.8517                41.1679                 1.5725

                     88                     89                     90
                      A                      A                      A
 Frequencies --   3104.0583              3108.7712              3124.3662
 Red. masses --      1.1015                 1.1003                 1.1027
 Frc consts  --      6.2532                 6.2654                 6.3418
 IR Inten    --      1.6749                76.7872                60.9871

                     91                     92                     93
                      A                      A                      A
 Frequencies --   3127.9558              3137.9519              3447.2721
 Red. masses --      1.1026                 1.1007                 1.0733
 Frc consts  --      6.3560                 6.3859                 7.5152
 IR Inten    --     77.6818                28.1548                 5.4540

 - Thermochemistry -
 -------------------
 Temperature   298.150 Kelvin.  Pressure   1.00000 Atm.
 Atom     1 has atomic number  6 and mass  12.00000

 Molecular mass:   158.17830 amu.
 Principal axes and moments of inertia in atomic units:
                           1         2         3
     Eigenvalues --  1362.545843507.427964106.56842
           X            0.99991  -0.01363  -0.00134
           Y            0.01363   0.99990  -0.00344
           Z            0.00139   0.00343   0.99999
 This molecule is an asymmetric top.
 Rotational symmetry number  1.
 Warning -- assumption of classical behavior for rotation
           may cause significant error
 Rotational temperatures (Kelvin)      0.06357     0.02469     0.02109
 Rotational constants (GHZ):           1.32454     0.51455     0.43948
 Zero-point vibrational energy     814288.3 (Joules/Mol)
                                  194.61957 (Kcal/Mol)
 Warning -- explicit consideration of  20 degrees of freedom as
           vibrations may cause significant error
 Vibrational temperatures:     24.56    35.12    44.09    60.11    79.39
          (Kelvin)            105.40   137.90   148.33   223.55   285.81
                              317.47   420.00   458.27   462.85   577.04
                              622.49   643.15   695.78   762.67   884.08
                             1058.40  1172.56  1189.50  1199.21  1201.87
                             1205.39  1257.37  1272.22  1298.14  1341.64
                             1429.80  1455.88  1488.07  1491.53  1513.87
                             1579.55  1601.43  1616.58  1645.00  1721.70
                             1740.38  1777.42  1778.21  1779.46  1842.59
                             1893.01  1922.87  1943.27  1966.74  1982.74
                             2002.20  2012.66  2030.97  2040.69  2051.34
                             2061.07  2077.18  2093.06  2148.81  2165.85
                             2168.71  2173.12  2181.07  2188.06  2188.82
                             2202.92  2205.46  2208.22  2211.86  2216.48
                             2218.80  4249.12  4325.32  4341.35  4370.51
                             4376.17  4379.18  4383.10  4387.41  4389.69
                             4411.04  4423.23  4435.46  4438.97  4440.06
                             4451.08  4459.99  4466.05  4472.83  4495.27
                             4500.43  4514.81  4959.86

 Zero-point correction=                           0.310146 (Hartree/Particle)
 Thermal correction to Energy=                    0.325153
 Thermal correction to Enthalpy=                  0.326098
 Thermal correction to Gibbs Free Energy=         0.264177
 Sum of electronic and zero-point Energies=           -465.430978
 Sum of electronic and thermal Energies=              -465.415970
 Sum of electronic and thermal Enthalpies=            -465.415026
 Sum of electronic and thermal Free Energies=         -465.476947

                     E (Thermal)             CV                S
                      KCal/Mol        Cal/Mol-Kelvin    Cal/Mol-Kelvin
 Total                  204.037             51.980            130.324
 Electronic               0.000              0.000              0.000
 Translational            0.889              2.981             41.085
 Rotational               0.889              2.981             31.351
 Vibrational            202.259             46.019             57.888
 Vibration     1          0.593              1.986              6.949
 Vibration     2          0.593              1.985              6.239
 Vibration     3          0.594              1.984              5.787
 Vibration     4          0.594              1.980              5.173
 Vibration     5          0.596              1.976              4.622
 Vibration     6          0.599              1.967              4.064
 Vibration     7          0.603              1.952              3.537
 Vibration     8          0.605              1.947              3.395
 Vibration     9          0.620              1.897              2.605
 Vibration    10          0.637              1.842              2.146
 Vibration    11          0.647              1.810              1.954
 Vibration    12          0.687              1.689              1.463
 Vibration    13          0.705              1.638              1.318
 Vibration    14          0.707              1.632              1.301
 Vibration    15          0.767              1.468              0.959
 Vibration    16          0.794              1.399              0.850
 Vibration    17          0.806              1.367              0.805
 Vibration    18          0.840              1.286              0.700
 Vibration    19          0.885              1.183              0.587
 Vibration    20          0.974              1.001              0.425

 Optimization completed on the basis of negligible forces.
    -- Stationary point found.

 1\1\GINC-NODE109\Freq\RB3LYP\6-31G(d)\C9H22N2\VSC10255\08-Dec-2020\0\\
 #N Geom=AllCheck Guess=TCheck SCRF=Check GenChk RB3LYP/6-31G(d) Freq\\
 CID_90708251_JID_1753_neutraal\\0,1\C,1.2528332742,0.1182043405,0.3875
 476974\C,1.2715145544,-0.8927645703,1.5354669901\C,-2.446550444,1.9986
 312299,0.8958232853\C,-2.0328812583,1.1942317027,2.1285455375\C,-0.910
 8371405,1.8666886609,2.929153139\N,-1.2864450549,3.197433623,3.4129066
 098\C,-2.174041081,3.1824758325,4.5817029887\C,-1.4367109625,2.8749606
 847,5.8964521815\N,-0.2826481494,3.7536974387,6.131784922\C,0.60117729

 Normal termination of Gaussian 16 at Tue Dec  8 22:00:19 2020.

 ----------------------------------------------------------------------
 # B3LYP/6-311++G(d,p) empiricaldispersion=gd3bj scf=xqc pop=npa geom=c
 heck
 ----------------------------------------------------------------------

 --------------------------------------
 CID_90708251_JID_1753_Energie_neutraal
 --------------------------------------
 Structure from the checkpoint file:  "JID_1753.chk"
 Charge =  0 Multiplicity = 1

 SCF Done:  E(RB3LYP) =  -465.876920253     A.U. after   13 cycles
 Normal termination of Gaussian 16 at Tue Dec  8 22:03:51 2020.

 ----------------------------------------------------------------------
 # B3LYP/6-311++G(d,p) empiricaldispersion=gd3bj scf=xqc pop=npa geom=c
 heck
 ----------------------------------------------------------------------

 ------------------------------------
 CID_90708251_JID_1753_Energie_kation
 ------------------------------------
 Structure from the checkpoint file:  "JID_1753.chk"
 Charge =  1 Multiplicity = 2

 SCF Done:  E(UB3LYP) =  -465.611106771     A.U. after   16 cycles
 Normal termination of Gaussian 16 at Tue Dec  8 22:09:55 2020.
 Gaussian 16:  ES64L-G16RevA.03 25-Dec-2016

 -----------------------------------
 CID_90708251_JID_1753_Energie_anion
 -----------------------------------
 Structure from the checkpoint file:  "JID_1753.chk"
 Charge = -1 Multiplicity = 2

                         Standard orientation:
 ---------------------------------------------------------------------
 Center     Atomic      Atomic             Coordinates (Angstroms)
 Number     Number       Type             X           Y           Z
 ---------------------------------------------------------------------
      1          6           0        3.842265   -1.062594    0.525486
      2          6           0        3.596634   -1.599384   -0.885772
      3          6           0        1.559854    2.439994    0.573089
      4          6           0        1.200522    1.531948   -0.603396
      5          6           0        0.398653    0.295753   -0.177975
      6          7           0       -0.865871    0.644224    0.474350
      7          6           0       -1.922366    1.067415   -0.452398
      8          6           0       -2.586728   -0.108560   -1.188940
      9          7           0       -3.079410   -1.154919   -0.282398
     10          6           0       -2.028722   -1.571191    0.656830
     11          6           0       -1.377010   -0.384379    1.384427
     12          1           0        3.197570   -1.560269    1.259273
     13          1           0        3.640702    0.012688    0.583738
     14          1           0        4.880733   -1.221653    0.837439
     15          1           0        3.810665   -2.672493   -0.946540
     16          1           0        2.555274   -1.452376   -1.192817
     17          1           0        4.232999   -1.092924   -1.620433
     18          1           0        0.654250    2.761273    1.095328
     19          1           0        2.108100    3.328345    0.240499
     20          1           0        2.189119    1.908900    1.298497
     21          1           0        0.638044    2.102372   -1.354131
     22          1           0        2.110624    1.185044   -1.109984
     23          1           0        0.268927   -0.369815   -1.050468
     24          1           0        0.993226   -0.267510    0.550685
     25          1           0       -2.687581    1.598225    0.133743
     26          1           0       -1.508956    1.790382   -1.164153
     27          1           0       -1.866772   -0.577575   -1.872484
     28          1           0       -3.422877    0.246849   -1.803161
     29          1           0       -3.856489   -0.770924    0.257986
     30          1           0       -1.268834   -2.119833    0.084052
     31          1           0       -2.460778   -2.277390    1.376343
     32          1           0       -0.558099   -0.719056    2.032690
     33          1           0       -2.131488    0.088590    2.032127
 ---------------------------------------------------------------------

 SCF Done:  E(UB3LYP) =  -465.861447879     A.U. after   27 cycles

 The electronic state is 2-A.
 Alpha  occ. eigenvalues --  -14.19924 -14.19633 -10.08909 -10.08871 -10.08831
 Alpha  occ. eigenvalues --  -10.08766 -10.08729 -10.06521 -10.06095 -10.06042
 Alpha  occ. eigenvalues --  -10.05545  -0.83773  -0.78661  -0.67788  -0.65797
 Alpha  occ. eigenvalues --   -0.65599  -0.59572  -0.54763  -0.53870  -0.51971
 Alpha  occ. eigenvalues --   -0.49982  -0.45480  -0.40184  -0.37424  -0.36117
 Alpha  occ. eigenvalues --   -0.35545  -0.34496  -0.33920  -0.33717  -0.33343
 Alpha  occ. eigenvalues --   -0.32553  -0.29769  -0.28808  -0.28124  -0.27341
 Alpha  occ. eigenvalues --   -0.25643  -0.25088  -0.24905  -0.24761  -0.24590
 Alpha  occ. eigenvalues --   -0.24050  -0.23224  -0.22567  -0.15464  -0.09354
 Alpha  occ. eigenvalues --    0.04443
 Alpha virt. eigenvalues --    0.06198   0.07036   0.07470   0.08238   0.08580
 Alpha virt. eigenvalues --    0.09298   0.09776   0.10126   0.10752   0.11067
 Alpha virt. eigenvalues --    0.11370   0.12287   0.13136   0.13442   0.13718

  Beta  occ. eigenvalues --  -14.19927 -14.19614 -10.08895 -10.08853 -10.08810
  Beta  occ. eigenvalues --  -10.08747 -10.08712 -10.06506 -10.06065 -10.06010
  Beta  occ. eigenvalues --  -10.05529  -0.83753  -0.78629  -0.67761  -0.65760
  Beta  occ. eigenvalues --   -0.65554  -0.59535  -0.54722  -0.53816  -0.51867
  Beta  occ. eigenvalues --   -0.49923  -0.45423  -0.40143  -0.37394  -0.36070
  Beta  occ. eigenvalues --   -0.35512  -0.34466  -0.33886  -0.33692  -0.33301
  Beta  occ. eigenvalues --   -0.32533  -0.29742  -0.28770  -0.28090  -0.27260
  Beta  occ. eigenvalues --   -0.25604  -0.25057  -0.24869  -0.24723  -0.24555
  Beta  occ. eigenvalues --   -0.24020  -0.23200  -0.22533  -0.15439  -0.09331
  Beta virt. eigenvalues --    0.06509   0.07210   0.07687   0.07766   0.08832
  Beta virt. eigenvalues --    0.09090   0.09670   0.10050   0.10396   0.11267
  Beta virt. eigenvalues --    0.11494   0.11630   0.12541   0.13382   0.13637

 Mulliken charges and spin densities:
               1          2
     1  C   -0.070104  -0.306674
     2  C    0.484872  -0.921355
     3  C   -0.380492  -0.168237
     4  C    0.293236  -0.445233
     5  C   -1.146546   0.423772
     6  N    0.269338   0.010858
     7  C    0.144352  -0.274358
     8  C    0.506272  -0.960893
     9  N   -0.305682   0.199663
    10  C    0.827047  -1.251192
    11  C   -0.452684   0.311065
    12  H   -0.253309   0.382975
    13  H    0.308805  -0.180053
    14  H   -0.535912   0.682508
    15  H   -0.077464   0.195203
    16  H   -0.352098   0.525686
    17  H   -0.163399   0.289121
    18  H    0.074191   0.078421
    19  H   -0.112241   0.250242
    20  H   -0.191056   0.300180
    21  H   -0.073228   0.195546
    22  H   -0.010702   0.156427
    23  H    0.127842  -0.077914
    24  H    1.371255  -1.201815
    25  H   -0.293207   0.476494
    26  H    0.115784  -0.010599
    27  H    0.000251   0.170295
    28  H   -0.288194   0.465716
    29  H    0.001697   0.222760
    30  H   -0.058146   0.223586
    31  H   -0.201217   0.381622
    32  H   -0.280068   0.420232
    33  H   -0.279196   0.435952
 Sum of Mulliken charges =  -1.00000   1.00000

 Dipole moment (field-independent basis, Debye):
    X=             -0.8671    Y=              1.7813    Z=             -0.6774  Tot=              2.0937
 Quadrupole moment (field-independent basis, Debye-Ang):
   XX=           -159.5475   YY=           -118.1170   ZZ=           -108.2852
   XY=              4.4598   XZ=             -0.1947   YZ=              1.3428

 Summary of Natural Population Analysis:

                                       Natural Population
                Natural  -----------------------------------------------
    Atom  No    Charge         Core      Valence    Rydberg      Total
 -----------------------------------------------------------------------
      C    1   -0.28603      0.99968     2.28219    0.00416     3.28603
      C    2   -0.28537      0.99968     2.28159    0.00410     3.28537
      C    3   -0.28674      0.99966     2.28230    0.00478     3.28674
      C    4   -0.19577      0.99964     2.18757    0.00856     3.19577
      C    5   -0.08588      0.99959     2.07572    0.01056     3.08588
      N    6   -0.28666      0.99973     2.77265    0.01428     3.78666
      C    7   -0.09455      0.99960     2.08286    0.01208     3.09455
      C    8   -0.09953      0.99962     2.08873    0.01118     3.09953
      N    9   -0.33764      0.99977     2.82411    0.01376     3.83764
      C   10   -0.09944      0.99962     2.08876    0.01106     3.09944
      C   11   -0.09104      0.99961     2.07905    0.01237     3.09104
      H   12    0.09598      0.00000     0.40249    0.00153     0.40402
      H   13    0.09628      0.00000     0.40238    0.00134     0.40372
      H   14    0.09505      0.00000     0.40347    0.00148     0.40495
      H   15    0.09464      0.00000     0.40401    0.00136     0.40536
      H   16    0.09667      0.00000     0.40196    0.00136     0.40333
      H   17    0.09412      0.00000     0.40446    0.00142     0.40588
      H   18    0.10329      0.00000     0.39516    0.00155     0.39671
      H   19    0.09501      0.00000     0.40400    0.00098     0.40499
      H   20    0.09423      0.00000     0.40439    0.00137     0.40577
      H   21    0.09227      0.00000     0.40645    0.00129     0.40773
      H   22    0.09758      0.00000     0.40124    0.00119     0.40242
      H   23    0.08247      0.00000     0.41553    0.00200     0.41753
      H   24    0.09629      0.00000     0.40169    0.00202     0.40371
      H   25    0.09250      0.00000     0.40588    0.00162     0.40750
      H   26    0.09658      0.00000     0.40215    0.00127     0.40342
      H   27    0.08896      0.00000     0.40963    0.00141     0.41104
      H   28    0.09567      0.00000     0.40315    0.00118     0.40433
      H   29    0.16818      0.00000     0.32895    0.00287     0.33182
      H   30    0.08978      0.00000     0.40887    0.00135     0.41022
      H   31    0.09534      0.00000     0.40344    0.00122     0.40466
      H   32    0.09702      0.00000     0.40171    0.00127     0.40298
      H   33    0.09072      0.00000     0.40770    0.00158     0.40928
 =======================================================================
   * Total *   -0.00000     10.99622    33.86424    0.13954    45.00000

 Normal termination of Gaussian 16 at Tue Dec  8 22:20:08 2020.
