 Gaussian 16, Revision A.03,

 -----------------------------------------------------------
 # opt freq B3LYP/6-31G(d) empiricaldispersion=gd3bj scf=xqc
 -----------------------------------------------------------

 ------------------------------
 CID_84320724_JID_8736_neutraal
 ------------------------------
 Symbolic Z-matrix:
 Charge =  0 Multiplicity = 1

 SCF Done:  E(RB3LYP) =  -1185.45970764     A.U. after   14 cycles
 SCF Done:  E(RB3LYP) =  -1185.46542201     A.U. after   14 cycles
 SCF Done:  E(RB3LYP) =  -1185.46762386     A.U. after   14 cycles
 SCF Done:  E(RB3LYP) =  -1185.46701670     A.U. after   15 cycles
 SCF Done:  E(RB3LYP) =  -1185.46822998     A.U. after   12 cycles
 SCF Done:  E(RB3LYP) =  -1185.46875000     A.U. after   12 cycles
 SCF Done:  E(RB3LYP) =  -1185.46777778     A.U. after   15 cycles
 SCF Done:  E(RB3LYP) =  -1185.46924409     A.U. after   13 cycles
 SCF Done:  E(RB3LYP) =  -1185.47090762     A.U. after   15 cycles
 SCF Done:  E(RB3LYP) =  -1185.47220094     A.U. after   14 cycles
 SCF Done:  E(RB3LYP) =  -1185.47751381     A.U. after    8 cycles
 SCF Done:  E(RB3LYP) =  -1185.47751445     A.U. after    8 cycles
 SCF Done:  E(RB3LYP) =  -1185.47751449     A.U. after    7 cycles
 SCF Done:  E(RB3LYP) =  -1185.47751451     A.U. after    7 cycles
 Optimization completed.
    -- Stationary point found.
 Normal termination of Gaussian 16 at Fri Dec 11 21:37:37 2020.

 --------------------------------------------------------------------
 #N Geom=AllCheck Guess=TCheck SCRF=Check GenChk RB3LYP/6-31G(d) Freq
 --------------------------------------------------------------------

 Structure from the checkpoint file:  "JID_8736.chk"
 ------------------------------
 CID_84320724_JID_8736_neutraal
 ------------------------------
 Charge =  0 Multiplicity = 1

 SCF Done:  E(RB3LYP) =  -1185.47751451     A.U. after    1 cycles

  Exact polarizability: 206.751  -4.005 141.239   2.154  24.991 135.893
 Approx polarizability: 278.685   7.938 214.148   7.774  55.789 238.880

                      1                      2                      3
                      A                      A                      A
 Frequencies --     17.9143                27.6123                31.5429
 Red. masses --      4.1814                 6.3843                 4.4510
 Frc consts  --      0.0008                 0.0029                 0.0026
 IR Inten    --      0.1921                 1.1952                 2.8145

                      4                      5                      6
                      A                      A                      A
 Frequencies --     36.3836                43.6966                66.2134
 Red. masses --      4.8647                 4.8944                 5.4392
 Frc consts  --      0.0038                 0.0055                 0.0141
 IR Inten    --      0.5775                 2.8589                 3.2098

                      7                      8                      9
                      A                      A                      A
 Frequencies --     92.1753               112.2635               168.0570
 Red. masses --      4.0209                 4.8444                 3.5079
 Frc consts  --      0.0201                 0.0360                 0.0584
 IR Inten    --      0.2978                 0.8939                 4.3858

                     10                     11                     12
                      A                      A                      A
 Frequencies --    180.1947               195.1063               217.7164
 Red. masses --      1.6923                 1.9955                 3.4899
 Frc consts  --      0.0324                 0.0448                 0.0975
 IR Inten    --      0.4025                 2.9854                 3.5143

                     13                     14                     15
                      A                      A                      A
 Frequencies --    247.2237               268.6443               291.6171
 Red. masses --      2.4159                 3.9067                 2.7106
 Frc consts  --      0.0870                 0.1661                 0.1358
 IR Inten    --      0.8536                 3.3560                 3.1572

                     16                     17                     18
                      A                      A                      A
 Frequencies --    318.3920               340.4836               365.4484
 Red. masses --      3.1471                 3.2152                 2.5610
 Frc consts  --      0.1880                 0.2196                 0.2015
 IR Inten    --      5.6539                 1.5965                 2.4966

                     19                     20                     21
                      A                      A                      A
 Frequencies --    407.4548               416.8239               437.0118
 Red. masses --      3.4732                 2.9759                 2.6995
 Frc consts  --      0.3397                 0.3046                 0.3038
 IR Inten    --     16.1634                 0.1104                 0.9289

                     22                     23                     24
                      A                      A                      A
 Frequencies --    456.6412               494.4486               506.8460
 Red. masses --      6.0130                 3.5446                 4.1331
 Frc consts  --      0.7387                 0.5106                 0.6256
 IR Inten    --     19.0713                 3.8522                 8.5705

                     25                     26                     27
                      A                      A                      A
 Frequencies --    516.8950               554.6837               588.4055
 Red. masses --      1.9831                 2.7951                 3.1285
 Frc consts  --      0.3122                 0.5067                 0.6382
 IR Inten    --     34.4194                18.9099                 9.2592

                     28                     29                     30
                      A                      A                      A
 Frequencies --    599.4075               638.3569               654.9676
 Red. masses --      3.5745                 6.1600                 2.7304
 Frc consts  --      0.7567                 1.4790                 0.6901
 IR Inten    --      3.8224                 0.8212                14.2923

                     31                     32                     33
                      A                      A                      A
 Frequencies --    668.5745               711.2885               717.1020
 Red. masses --      1.5557                 2.6979                 1.7802
 Frc consts  --      0.4097                 0.8042                 0.5394
 IR Inten    --     97.3014                59.7222                 9.9664

                     34                     35                     36
                      A                      A                      A
 Frequencies --    766.6553               775.5066               784.0084
 Red. masses --      2.1947                 2.5333                 3.4049
 Frc consts  --      0.7600                 0.8976                 1.2331
 IR Inten    --     17.4492                18.7010                 5.7235

                     37                     38                     39
                      A                      A                      A
 Frequencies --    835.8363               859.5151               885.2164
 Red. masses --      2.1996                 1.2532                 2.1523
 Frc consts  --      0.9054                 0.5455                 0.9937
 IR Inten    --     38.1219                 0.6083                13.5168

                     40                     41                     42
                      A                      A                      A
 Frequencies --    912.8293               929.8114               964.4311
 Red. masses --      1.9694                 1.6223                 2.4160
 Frc consts  --      0.9668                 0.8263                 1.3240
 IR Inten    --      5.7744                 1.8511                 7.0598

                     43                     44                     45
                      A                      A                      A
 Frequencies --    966.1396               984.0615               985.3674
 Red. masses --      1.3522                 1.5077                 1.4038
 Frc consts  --      0.7437                 0.8602                 0.8031
 IR Inten    --      0.3204                27.5555                 8.6216

                     46                     47                     48
                      A                      A                      A
 Frequencies --    997.6710              1017.2241              1022.0276
 Red. masses --      1.2532                 1.8249                 2.2469
 Frc consts  --      0.7349                 1.1126                 1.3828
 IR Inten    --      0.0270                 4.4868                 8.9016

                     49                     50                     51
                      A                      A                      A
 Frequencies --   1022.7455              1034.2343              1061.6126
 Red. masses --      4.2005                 1.8883                 2.1991
 Frc consts  --      2.5887                 1.1901                 1.4602
 IR Inten    --      0.6217                11.8078                 1.2510

                     52                     53                     54
                      A                      A                      A
 Frequencies --   1109.6928              1117.6734              1125.0531
 Red. masses --      4.2366                 1.7515                 2.2699
 Frc consts  --      3.0738                 1.2891                 1.6928
 IR Inten    --    146.2200                 3.3305                 8.6465

                     55                     56                     57
                      A                      A                      A
 Frequencies --   1141.3004              1194.4145              1194.9973
 Red. masses --      2.9627                 1.2486                 1.1086
 Frc consts  --      2.2737                 1.0495                 0.9328
 IR Inten    --      3.2272                21.8825                 2.5747

                     58                     59                     60
                      A                      A                      A
 Frequencies --   1205.3452              1210.7130              1216.5915
 Red. masses --      1.2474                 1.2348                 1.1466
 Frc consts  --      1.0678                 1.0665                 0.9999
 IR Inten    --      8.8637                 9.5201                 0.6540

                     61                     62                     63
                      A                      A                      A
 Frequencies --   1235.0831              1280.7806              1302.1513
 Red. masses --      2.5050                 1.4659                 3.4497
 Frc consts  --      2.2514                 1.4168                 3.4463
 IR Inten    --      1.8315                55.5499               105.1775

                     64                     65                     66
                      A                      A                      A
 Frequencies --   1311.1917              1324.1396              1355.7502
 Red. masses --      1.4837                 1.6340                 1.4237
 Frc consts  --      1.5029                 1.6880                 1.5418
 IR Inten    --     80.2831                36.6492                71.2521

                     67                     68                     69
                      A                      A                      A
 Frequencies --   1363.1222              1370.2534              1377.1470
 Red. masses --      3.7661                 1.3477                 1.2643
 Frc consts  --      4.1229                 1.4908                 1.4127
 IR Inten    --      8.2791                 0.1600                38.8792

                     70                     71                     72
                      A                      A                      A
 Frequencies --   1379.4470              1404.1561              1416.0134
 Red. masses --      1.3567                 1.3702                 1.3673
 Frc consts  --      1.5210                 1.5917                 1.6153
 IR Inten    --     11.5305                16.5209                 6.6160

                     73                     74                     75
                      A                      A                      A
 Frequencies --   1444.7866              1476.0180              1481.2766
 Red. masses --      1.7662                 1.0619                 1.0610
 Frc consts  --      2.1721                 1.3630                 1.3717
 IR Inten    --     46.1148                 4.7758                 3.0641

                     76                     77                     78
                      A                      A                      A
 Frequencies --   1485.8968              1500.9237              1503.6781
 Red. masses --      1.0640                 1.2095                 1.9701
 Frc consts  --      1.3842                 1.6054                 2.6246
 IR Inten    --     15.1342                15.0813                 1.6235

                     79                     80                     81
                      A                      A                      A
 Frequencies --   1506.3651              1509.7977              1515.9413
 Red. masses --      1.1102                 1.4730                 1.2259
 Frc consts  --      1.4842                 1.9783                 1.6599
 IR Inten    --     13.4568                61.6627                41.4045

                     82                     83                     84
                      A                      A                      A
 Frequencies --   1527.9934              1549.2677              1646.3091
 Red. masses --      1.1189                 2.2249                 5.4850
 Frc consts  --      1.5391                 3.1464                 8.7588
 IR Inten    --      6.0255                 8.4413                 0.6650

                     85                     86                     87
                      A                      A                      A
 Frequencies --   1668.2394              1769.2493              3053.7389
 Red. masses --      5.6118                 7.4559                 1.0600
 Frc consts  --      9.2018                13.7508                 5.8242
 IR Inten    --      3.1292               302.8088                22.6161

                     88                     89                     90
                      A                      A                      A
 Frequencies --   3054.5932              3069.7176              3071.3758
 Red. masses --      1.0631                 1.0702                 1.0648
 Frc consts  --      5.8443                 5.9419                 5.9180
 IR Inten    --     17.2178                15.3731                16.2964

                     91                     92                     93
                      A                      A                      A
 Frequencies --   3093.4590              3094.2818              3098.3458
 Red. masses --      1.0466                 1.0786                 1.1005
 Frc consts  --      5.9008                 6.0846                 6.2242
 IR Inten    --      4.5890                13.4680                38.6545

                     94                     95                     96
                      A                      A                      A
 Frequencies --   3100.2525              3119.3278              3140.1001
 Red. masses --      1.0620                 1.1033                 1.0980
 Frc consts  --      6.0143                 6.3251                 6.3790
 IR Inten    --      4.8255                 8.6635                24.0383

                     97                     98                     99
                      A                      A                      A
 Frequencies --   3172.7008              3175.1676              3186.2108
 Red. masses --      1.1028                 1.0874                 1.0859
 Frc consts  --      6.5402                 6.4589                 6.4952
 IR Inten    --      1.1162                 8.8949                 3.1042

                    100                    101                    102
                      A                      A                      A
 Frequencies --   3190.2883              3195.0424              3203.0082
 Red. masses --      1.1064                 1.0901                 1.0943
 Frc consts  --      6.6345                 6.5567                 6.6143
 IR Inten    --      0.4875                10.4756                41.4845

                    103                    104                    105
                      A                      A                      A
 Frequencies --   3209.4520              3213.9483              3583.4554
 Red. masses --      1.1044                 1.0980                 1.0754
 Frc consts  --      6.7027                 6.6825                 8.1366
 IR Inten    --      1.2952                15.2408                21.6129

 - Thermochemistry -
 -------------------
 Temperature   298.150 Kelvin.  Pressure   1.00000 Atm.
 Atom     1 has atomic number  6 and mass  12.00000

 Molecular mass:   269.10857 amu.
 Principal axes and moments of inertia in atomic units:
                           1         2         3
     Eigenvalues --  2621.726479622.61125**********
           X            0.99993  -0.01042   0.00507
           Y            0.01009   0.99805   0.06155
           Z           -0.00570  -0.06149   0.99809
 This molecule is an asymmetric top.
 Rotational symmetry number  1.
 Warning -- assumption of classical behavior for rotation
           may cause significant error
 Rotational temperatures (Kelvin)      0.03304     0.00900     0.00823
 Rotational constants (GHZ):           0.68838     0.18755     0.17150
 Zero-point vibrational energy     816090.7 (Joules/Mol)
                                  195.05036 (Kcal/Mol)
 Warning -- explicit consideration of  28 degrees of freedom as
           vibrations may cause significant error
 Vibrational temperatures:     25.77    39.73    45.38    52.35    62.87
          (Kelvin)             95.27   132.62   161.52   241.80   259.26
                              280.71   313.25   355.70   386.52   419.57
                              458.10   489.88   525.80   586.24   599.72
                              628.76   657.00   711.40   729.24   743.70
                              798.07   846.58   862.41   918.45   942.35
                              961.93  1023.39  1031.75  1103.05  1115.78
                             1128.01  1202.58  1236.65  1273.63  1313.36
                             1337.79  1387.60  1390.06  1415.84  1417.72
                             1435.43  1463.56  1470.47  1471.50  1488.03
                             1527.42  1596.60  1608.08  1618.70  1642.08
                             1718.50  1719.33  1734.22  1741.95  1750.40
                             1777.01  1842.76  1873.51  1886.51  1905.14
                             1950.62  1961.23  1971.49  1981.41  1984.72
                             2020.27  2037.33  2078.73  2123.66  2131.23
                             2137.87  2159.49  2163.46  2167.32  2172.26
                             2181.10  2198.44  2229.05  2368.67  2400.22
                             2545.56  4393.65  4394.88  4416.64  4419.02
                             4450.80  4451.98  4457.83  4460.57  4488.02
                             4517.90  4564.81  4568.36  4584.25  4590.11
                             4596.95  4608.41  4617.69  4624.15  5155.79

 Zero-point correction=                           0.310833 (Hartree/Particle)
 Thermal correction to Energy=                    0.329275
 Thermal correction to Enthalpy=                  0.330219
 Thermal correction to Gibbs Free Energy=         0.260882
 Sum of electronic and zero-point Energies=          -1185.166682
 Sum of electronic and thermal Energies=             -1185.148239
 Sum of electronic and thermal Enthalpies=           -1185.147295
 Sum of electronic and thermal Free Energies=        -1185.216633

                     E (Thermal)             CV                S
                      KCal/Mol        Cal/Mol-Kelvin    Cal/Mol-Kelvin
 Total                  206.623             69.002            145.933
 Electronic               0.000              0.000              0.000
 Translational            0.889              2.981             42.669
 Rotational               0.889              2.981             33.939
 Vibrational            204.846             63.040             69.325
 Vibration     1          0.593              1.986              6.853
 Vibration     2          0.593              1.984              5.994
 Vibration     3          0.594              1.983              5.730
 Vibration     4          0.594              1.982              5.447
 Vibration     5          0.595              1.980              5.084
 Vibration     6          0.598              1.970              4.263
 Vibration     7          0.602              1.955              3.613
 Vibration     8          0.607              1.939              3.229
 Vibration     9          0.625              1.882              2.457
 Vibration    10          0.629              1.867              2.326
 Vibration    11          0.636              1.847              2.179
 Vibration    12          0.646              1.814              1.978
 Vibration    13          0.661              1.767              1.750
 Vibration    14          0.673              1.731              1.605
 Vibration    15          0.687              1.689              1.465
 Vibration    16          0.705              1.638              1.318
 Vibration    17          0.720              1.595              1.210
 Vibration    18          0.739              1.543              1.099
 Vibration    19          0.772              1.454              0.936
 Vibration    20          0.780              1.434              0.903
 Vibration    21          0.797              1.390              0.836
 Vibration    22          0.815              1.346              0.776
 Vibration    23          0.850              1.262              0.672
 Vibration    24          0.862              1.235              0.641
 Vibration    25          0.872              1.213              0.617
 Vibration    26          0.910              1.129              0.535
 Vibration    27          0.946              1.057              0.470
 Vibration    28          0.957              1.033              0.451

                           ! Non-Optimized Parameters !
 Normal termination of Gaussian 16 at Fri Dec 11 21:54:12 2020.

 ----------------------------------------------------------------------
 # B3LYP/6-311++G(d,p) empiricaldispersion=gd3bj scf=xqc pop=npa geom=c
 heck
 ----------------------------------------------------------------------

 --------------------------------------
 CID_84320724_JID_8736_Energie_neutraal
 --------------------------------------
 Structure from the checkpoint file:  "JID_8736.chk"
 Charge =  0 Multiplicity = 1

 SCF Done:  E(RB3LYP) =  -1185.73094140     A.U. after   15 cycles
 Normal termination of Gaussian 16 at Fri Dec 11 22:01:07 2020.

 ----------------------------------------------------------------------
 # B3LYP/6-311++G(d,p) empiricaldispersion=gd3bj scf=xqc pop=npa geom=c
 heck
 ----------------------------------------------------------------------

 ------------------------------------
 CID_84320724_JID_8736_Energie_kation
 ------------------------------------
 Structure from the checkpoint file:  "JID_8736.chk"
 Charge =  1 Multiplicity = 2

 SCF Done:  E(UB3LYP) =  -1185.40794400     A.U. after   33 cycles
 SCF Done:  E(UB3LYP) =  -1185.40794400     a.u. after    2 cycles
 Normal termination of Gaussian 16 at Fri Dec 11 22:49:45 2020.
 Gaussian 16:  ES64L-G16RevA.03 25-Dec-2016

 ----------------------------------------------------------------------
 # B3LYP/6-311++G(d,p) empiricaldispersion=gd3bj scf=xqc pop=npa geom=c
 heck
 ----------------------------------------------------------------------

 -----------------------------------
 CID_84320724_JID_8736_Energie_anion
 -----------------------------------
 Structure from the checkpoint file:  "JID_8736.chk"
 Charge = -1 Multiplicity = 2

                         Standard orientation:
 ---------------------------------------------------------------------
 Center     Atomic      Atomic             Coordinates (Angstroms)
 Number     Number       Type             X           Y           Z
 ---------------------------------------------------------------------
      1          6           0       -1.488733   -1.707587   -0.063722
      2         16           0       -3.131283   -1.071785    0.347980
      3          8           0       -4.096715   -2.128845    0.006523
      4          8           0       -3.066135   -0.534329    1.721047
      5          6           0       -3.393801    0.302663   -0.818654
      6          6           0       -2.977033    1.681186   -0.302173
      7          6           0       -1.526422    1.839468    0.164046
      8          6           0       -0.491299    1.523540   -0.909597
      9          8           0       -0.801430    1.121575   -2.029524
     10          7           0        0.820870    1.720239   -0.576878
     11          6           0        1.378588    1.951781    0.746324
     12          6           0        1.803073    0.652449    1.465312
     13          6           0        2.878784   -0.086248    0.705043
     14          6           0        2.551446   -1.015138   -0.291369
     15          6           0        3.548100   -1.642574   -1.039706
     16          6           0        4.891176   -1.350267   -0.801103
     17          6           0        5.230466   -0.427968    0.190198
     18          6           0        4.231083    0.198288    0.933951
     19          1           0       -1.329055   -2.567908    0.589959
     20          1           0       -0.736452   -0.942942    0.124847
     21          1           0       -1.471948   -2.013330   -1.110915
     22          1           0       -2.866783    0.044811   -1.738377
     23          1           0       -4.471829    0.266564   -1.001482
     24          1           0       -3.173224    2.387860   -1.116081
     25          1           0       -3.626567    1.954639    0.534513
     26          1           0       -1.380057    2.873732    0.500012
     27          1           0       -1.354967    1.214524    1.048228
     28          1           0        1.464085    1.410246   -1.296676
     29          1           0        2.250098    2.606907    0.637912
     30          1           0        0.646268    2.490681    1.350737
     31          1           0        2.161243    0.917538    2.467351
     32          1           0        0.919154    0.017426    1.599007
     33          1           0        1.508311   -1.252252   -0.481232
     34          1           0        3.274061   -2.361851   -1.806305
     35          1           0        5.668275   -1.840392   -1.380378
     36          1           0        6.273998   -0.198567    0.386931
     37          1           0        4.501499    0.914431    1.706751
 ---------------------------------------------------------------------

 SCF Done:  E(UB3LYP) =  -1185.72520917     A.U. after   33 cycles
 SCF Done:  E(UB3LYP) =  -1185.72520917     a.u. after    1 cycles

 The electronic state is 2-A.
 Alpha  occ. eigenvalues --  -88.96320 -19.03100 -19.03077 -19.00787 -14.25141
 Alpha  occ. eigenvalues --  -10.19316 -10.12759 -10.12721 -10.12283 -10.10620
 Alpha  occ. eigenvalues --  -10.09956 -10.09048 -10.08837 -10.08735 -10.08486
 Alpha  occ. eigenvalues --  -10.08423 -10.08239 -10.08205  -8.02812  -5.99069
 Alpha  occ. eigenvalues --   -5.98973  -5.98912  -1.02296  -0.95842  -0.91981
 Alpha  occ. eigenvalues --   -0.84171  -0.77040  -0.74112  -0.69999  -0.69454
 Alpha  occ. eigenvalues --   -0.65819  -0.65769  -0.63796  -0.57603  -0.55968
 Alpha  occ. eigenvalues --   -0.51941  -0.51422  -0.49622  -0.47570  -0.43541
 Alpha  occ. eigenvalues --   -0.42577  -0.41652  -0.41216  -0.40832  -0.39693
 Alpha  occ. eigenvalues --   -0.37823  -0.37703  -0.37252  -0.36440  -0.35872
 Alpha  occ. eigenvalues --   -0.34799  -0.34285  -0.33984  -0.33340  -0.32731
 Alpha  occ. eigenvalues --   -0.31043  -0.30386  -0.28864  -0.28585  -0.28438
 Alpha  occ. eigenvalues --   -0.27714  -0.26986  -0.25341  -0.24995  -0.24729
 Alpha  occ. eigenvalues --   -0.23684  -0.22201  -0.20890  -0.18111  -0.17552
 Alpha  occ. eigenvalues --   -0.16796  -0.15900   0.03728
 Alpha virt. eigenvalues --    0.05717   0.06196   0.06665   0.07098   0.07224
 Alpha virt. eigenvalues --    0.07509   0.08342   0.08746   0.09096   0.09508
 Alpha virt. eigenvalues --    0.09710   0.09900   0.10489   0.11029   0.11739

  Beta  occ. eigenvalues --  -88.96319 -19.03097 -19.03071 -19.00783 -14.25139
  Beta  occ. eigenvalues --  -10.19315 -10.12738 -10.12717 -10.12240 -10.10609
  Beta  occ. eigenvalues --  -10.09925 -10.08987 -10.08822 -10.08737 -10.08467
  Beta  occ. eigenvalues --  -10.08395 -10.08183 -10.08171  -8.02811  -5.99068
  Beta  occ. eigenvalues --   -5.98973  -5.98909  -1.02287  -0.95835  -0.91971
  Beta  occ. eigenvalues --   -0.84158  -0.76952  -0.74091  -0.69919  -0.69411
  Beta  occ. eigenvalues --   -0.65748  -0.65730  -0.63703  -0.57569  -0.55890
  Beta  occ. eigenvalues --   -0.51892  -0.51395  -0.49528  -0.47532  -0.43518
  Beta  occ. eigenvalues --   -0.42515  -0.41611  -0.41169  -0.40804  -0.39672
  Beta  occ. eigenvalues --   -0.37791  -0.37651  -0.37215  -0.36386  -0.35838
  Beta  occ. eigenvalues --   -0.34759  -0.34235  -0.33947  -0.33301  -0.32708
  Beta  occ. eigenvalues --   -0.30998  -0.30337  -0.28829  -0.28539  -0.28407
  Beta  occ. eigenvalues --   -0.27619  -0.26887  -0.25295  -0.24942  -0.24707
  Beta  occ. eigenvalues --   -0.23675  -0.22192  -0.20877  -0.18075  -0.17506
  Beta  occ. eigenvalues --   -0.16639  -0.15644
  Beta virt. eigenvalues --    0.05815   0.06335   0.06898   0.07060   0.07183
  Beta virt. eigenvalues --    0.07709   0.08038   0.08643   0.08997   0.09390
  Beta virt. eigenvalues --    0.09727   0.09803   0.10109   0.10754   0.11362

 Mulliken charges and spin densities:
               1          2
     1  C   -0.836590   0.135450
     2  S    0.365630  -0.004346
     3  O   -0.170196  -0.001039
     4  O   -0.215065   0.006114
     5  C   -0.440570  -0.058913
     6  C    0.160923  -0.849073
     7  C    0.052642   0.124146
     8  C   -0.466549  -0.019514
     9  O   -0.254064  -0.003944
    10  N   -0.129631   0.068480
    11  C    1.249380  -1.674880
    12  C    0.089948  -0.474587
    13  C    0.407071   0.689645
    14  C   -0.953287   0.608050
    15  C   -0.667499   0.322773
    16  C    0.551231  -0.790548
    17  C    0.583237  -0.940535
    18  C    0.277947  -0.484187
    19  H    0.085801   0.162761
    20  H    0.919920  -0.786022
    21  H    0.091557   0.165953
    22  H    0.224986   0.027976
    23  H    0.201222   0.041138
    24  H    0.036340   0.141621
    25  H    0.048788   0.155246
    26  H   -0.608807   0.832764
    27  H    0.383186  -0.113900
    28  H    0.267317   0.012726
    29  H   -0.346766   0.556683
    30  H   -0.299477   0.475872
    31  H   -0.401985   0.611226
    32  H   -0.301183   0.457688
    33  H    0.084329  -0.036547
    34  H   -0.145648   0.323321
    35  H   -0.074455   0.213455
    36  H   -0.271969   0.441684
    37  H   -0.497712   0.663265
 Sum of Mulliken charges =  -1.00000   1.00000

 Dipole moment (field-independent basis, Debye):
    X=             -3.4599    Y=             -2.7104    Z=             -3.9884  Tot=              5.9351
 Quadrupole moment (field-independent basis, Debye-Ang):
   XX=           -210.2623   YY=           -168.4221   ZZ=           -161.1013
   XY=             -9.6681   XZ=             -1.4586   YZ=             -7.2262

 Summary of Natural Population Analysis:

                                       Natural Population
                Natural  -----------------------------------------------
    Atom  No    Charge         Core      Valence    Rydberg      Total
 -----------------------------------------------------------------------
      C    1   -0.38998      0.99960     2.38347    0.00691     3.38998
      S    2    1.01424      4.99932     1.89199    0.09446     6.98576
      O    3   -0.47183      0.99991     3.46636    0.00555     4.47183
      O    4   -0.47003      0.99991     3.46441    0.00571     4.47003
      C    5   -0.29048      0.99957     2.28127    0.00965     3.29048
      C    6   -0.19811      0.99962     2.18690    0.01159     3.19811
      C    7   -0.24657      0.99957     2.23814    0.00886     3.24657
      C    8    0.34167      0.99966     1.63506    0.02361     2.65833
      O    9   -0.33584      0.99988     3.33050    0.00547     4.33584
      N   10   -0.31553      0.99967     2.80611    0.00975     3.81553
      C   11   -0.08477      0.99960     2.07371    0.01146     3.08477
      C   12   -0.20200      0.99959     2.19262    0.00980     3.20200
      C   13   -0.01188      0.99950     2.00135    0.01102     3.01188
      C   14   -0.10475      0.99951     2.09539    0.00985     3.10475
      C   15   -0.10141      0.99956     2.09234    0.00951     3.10141
      C   16   -0.09608      0.99956     2.08698    0.00954     3.09608
      C   17   -0.09774      0.99956     2.08781    0.01037     3.09774
      C   18   -0.09809      0.99951     2.08840    0.01018     3.09809
      H   19    0.11887      0.00000     0.37973    0.00139     0.38113
      H   20    0.11308      0.00000     0.38527    0.00165     0.38692
      H   21    0.11611      0.00000     0.38284    0.00105     0.38389
      H   22    0.12729      0.00000     0.37150    0.00121     0.37271
      H   23    0.11693      0.00000     0.38190    0.00117     0.38307
      H   24    0.10846      0.00000     0.39050    0.00104     0.39154
      H   25    0.10822      0.00000     0.39059    0.00118     0.39178
      H   26    0.12031      0.00000     0.37770    0.00199     0.37969
      H   27    0.11715      0.00000     0.38096    0.00189     0.38285
      H   28    0.19731      0.00000     0.30036    0.00233     0.30269
      H   29    0.10043      0.00000     0.39803    0.00153     0.39957
      H   30    0.10616      0.00000     0.39064    0.00320     0.39384
      H   31    0.11008      0.00000     0.38795    0.00196     0.38992
      H   32    0.09858      0.00000     0.39961    0.00181     0.40142
      H   33    0.09772      0.00000     0.40038    0.00190     0.40228
      H   34    0.09968      0.00000     0.39943    0.00088     0.40032
      H   35    0.09894      0.00000     0.40019    0.00087     0.40106
      H   36    0.10069      0.00000     0.39829    0.00102     0.39931
      H   37    0.10316      0.00000     0.39516    0.00168     0.39684
 =======================================================================
   * Total *   -0.00000     21.99310    49.71383    0.29307    72.00000

 Normal termination of Gaussian 16 at Fri Dec 11 23:10:13 2020.
