 Gaussian 16, Revision A.03,

 -----------------------------------------------------------
 # opt freq B3LYP/6-31G(d) empiricaldispersion=gd3bj scf=xqc
 -----------------------------------------------------------

 -----------------------------
 CID_17971312_JID_195_neutraal
 -----------------------------
 Symbolic Z-matrix:
 Charge =  0 Multiplicity = 1

 SCF Done:  E(RB3LYP) =  -495.954178200     A.U. after   21 cycles
 SCF Done:  E(RB3LYP) =  -495.982694968     A.U. after   15 cycles
 SCF Done:  E(RB3LYP) =  -495.988459651     A.U. after   15 cycles
 SCF Done:  E(RB3LYP) =  -495.988987198     A.U. after   13 cycles
 SCF Done:  E(RB3LYP) =  -495.989185621     A.U. after   13 cycles
 SCF Done:  E(RB3LYP) =  -495.989328125     A.U. after   13 cycles
 SCF Done:  E(RB3LYP) =  -495.989433002     A.U. after   13 cycles
 SCF Done:  E(RB3LYP) =  -495.989486191     A.U. after   13 cycles
 SCF Done:  E(RB3LYP) =  -495.989511761     A.U. after   13 cycles
 SCF Done:  E(RB3LYP) =  -495.989519143     A.U. after   11 cycles
 SCF Done:  E(RB3LYP) =  -495.989521035     A.U. after    9 cycles
 SCF Done:  E(RB3LYP) =  -495.989522839     A.U. after   10 cycles
 SCF Done:  E(RB3LYP) =  -495.989524211     A.U. after   10 cycles
 SCF Done:  E(RB3LYP) =  -495.989524995     A.U. after   10 cycles
 SCF Done:  E(RB3LYP) =  -495.989525197     A.U. after    9 cycles
 Optimization completed.
    -- Stationary point found.
 Normal termination of Gaussian 16 at Tue Dec  8 10:19:39 2020.

 --------------------------------------------------------------------
 #N Geom=AllCheck Guess=TCheck SCRF=Check GenChk RB3LYP/6-31G(d) Freq
 --------------------------------------------------------------------

 Structure from the checkpoint file:  "JID_195.chk"
 -----------------------------
 CID_17971312_JID_195_neutraal
 -----------------------------
 Charge =  0 Multiplicity = 1

 SCF Done:  E(RB3LYP) =  -495.989525197     A.U. after    1 cycles

  Exact polarizability: 116.437   5.027  94.133   1.181   0.121  36.116
 Approx polarizability: 189.466   4.299 176.068   5.529   0.632  54.967

                      1                      2                      3
                      A                      A                      A
 Frequencies --     37.4418                71.4866               170.2788
 Red. masses --      4.4410                 5.2715                 3.3648
 Frc consts  --      0.0037                 0.0159                 0.0575
 IR Inten    --      4.6768                 4.5336                 0.8377

                      4                      5                      6
                      A                      A                      A
 Frequencies --    215.4707               246.4296               302.0762
 Red. masses --      1.3131                 3.0783                 5.7292
 Frc consts  --      0.0359                 0.1101                 0.3080
 IR Inten    --      0.2916                 3.6118                 3.9488

                      7                      8                      9
                      A                      A                      A
 Frequencies --    365.8555               390.8911               427.1184
 Red. masses --      9.7343                 5.5204                 3.1960
 Frc consts  --      0.7677                 0.4970                 0.3435
 IR Inten    --      3.0789                 4.4334                 1.8633

                     10                     11                     12
                      A                      A                      A
 Frequencies --    443.9306               477.4298               572.9099
 Red. masses --      7.1863                 7.0119                 6.3802
 Frc consts  --      0.8344                 0.9417                 1.2338
 IR Inten    --      2.9737                15.4458                 4.1530

                     13                     14                     15
                      A                      A                      A
 Frequencies --    594.5274               663.2656               756.9041
 Red. masses --      4.7033                 7.8996                 1.5369
 Frc consts  --      0.9795                 2.0475                 0.5188
 IR Inten    --     15.9526                 2.2726                34.7696

                     16                     17                     18
                      A                      A                      A
 Frequencies --    831.9138               850.4567               902.5862
 Red. masses --      5.8880                 4.2502                 1.4096
 Frc consts  --      2.4009                 1.8112                 0.6766
 IR Inten    --     26.1252                22.2581                 7.0288

                     19                     20                     21
                      A                      A                      A
 Frequencies --    964.8476              1008.2690              1026.2607
 Red. masses --      8.0688                 1.3069                 3.1578
 Frc consts  --      4.4257                 0.7828                 1.9595
 IR Inten    --     22.7022                 0.3016                57.9266

                     22                     23                     24
                      A                      A                      A
 Frequencies --   1095.2529              1166.3831              1175.7904
 Red. masses --      3.2095                 1.3703                 1.2504
 Frc consts  --      2.2684                 1.0984                 1.0185
 IR Inten    --     34.6846                28.4007                 0.8615

                     25                     26                     27
                      A                      A                      A
 Frequencies --   1208.3100              1236.5131              1337.5220
 Red. masses --      1.5749                 2.0520                 2.1896
 Frc consts  --      1.3547                 1.8485                 2.3079
 IR Inten    --      5.6801                99.0013               105.5909

                     28                     29                     30
                      A                      A                      A
 Frequencies --   1378.0532              1442.4429              1505.3780
 Red. masses --      2.9158                 1.9260                 1.2255
 Frc consts  --      3.2624                 2.3611                 1.6363
 IR Inten    --    212.7823                20.5557                11.6926

                     31                     32                     33
                      A                      A                      A
 Frequencies --   1518.4614              1520.6034              1618.0672
 Red. masses --      1.0565                 1.0514                 7.0825
 Frc consts  --      1.4353                 1.4323                10.9252
 IR Inten    --     10.4126                19.7639               212.2357

                     34                     35                     36
                      A                      A                      A
 Frequencies --   1688.2647              1757.9238              1782.1137
 Red. masses --      5.5558                12.4735                12.4802
 Frc consts  --      9.3300                22.7112                23.3530
 IR Inten    --     59.7806               216.6190                72.7144

                     37                     38                     39
                      A                      A                      A
 Frequencies --   3077.1603              3159.4924              3176.1139
 Red. masses --      1.0297                 1.1064                 1.1085
 Frc consts  --      5.7444                 6.5072                 6.5884
 IR Inten    --     48.0121                27.0972                17.6262

                     40                     41                     42
                      A                      A                      A
 Frequencies --   3192.3670              3216.6307              3228.9725
 Red. masses --      1.0882                 1.0909                 1.0956
 Frc consts  --      6.5339                 6.6504                 6.7304
 IR Inten    --     13.4868                 7.3129                 3.1782

 - Thermochemistry -
 -------------------
 Temperature   298.150 Kelvin.  Pressure   1.00000 Atm.
 Atom     1 has atomic number  6 and mass  12.00000

 Molecular mass:   138.03169 amu.
 Principal axes and moments of inertia in atomic units:
                           1         2         3
     Eigenvalues --   795.278591498.760202271.43257
           X            0.99837   0.05686  -0.00501
           Y           -0.05687   0.99838  -0.00131
           Z            0.00492   0.00159   0.99999
 This molecule is an asymmetric top.
 Rotational symmetry number  1.
 Warning -- assumption of classical behavior for rotation
           may cause significant error
 Rotational temperatures (Kelvin)      0.10891     0.05779     0.03813
 Rotational constants (GHZ):           2.26932     1.20416     0.79454
 Zero-point vibrational energy     309845.8 (Joules/Mol)
                                   74.05491 (Kcal/Mol)
 Warning -- explicit consideration of  13 degrees of freedom as
           vibrations may cause significant error
 Vibrational temperatures:     53.87   102.85   244.99   310.01   354.56
          (Kelvin)            434.62   526.38   562.41   614.53   638.72
                              686.91   824.29   855.39   954.29  1089.02
                             1196.94  1223.62  1298.62  1388.20  1450.67
                             1476.56  1575.82  1678.17  1691.70  1738.49
                             1779.07  1924.40  1982.71  2075.35  2165.90
                             2184.73  2187.81  2328.04  2429.04  2529.26
                             2564.06  4427.35  4545.80  4569.72  4593.10
                             4628.01  4645.77

 Zero-point correction=                           0.118014 (Hartree/Particle)
 Thermal correction to Energy=                    0.127008
 Thermal correction to Enthalpy=                  0.127952
 Thermal correction to Gibbs Free Energy=         0.083137
 Sum of electronic and zero-point Energies=           -495.871511
 Sum of electronic and thermal Energies=              -495.862517
 Sum of electronic and thermal Enthalpies=            -495.861573
 Sum of electronic and thermal Free Energies=         -495.906388

                     E (Thermal)             CV                S
                      KCal/Mol        Cal/Mol-Kelvin    Cal/Mol-Kelvin
 Total                   79.699             32.534             94.321
 Electronic               0.000              0.000              0.000
 Translational            0.889              2.981             40.679
 Rotational               0.889              2.981             29.383
 Vibrational             77.921             26.572             24.259
 Vibration     1          0.594              1.982              5.390
 Vibration     2          0.598              1.968              4.112
 Vibration     3          0.625              1.879              2.432
 Vibration     4          0.645              1.817              1.997
 Vibration     5          0.661              1.769              1.756
 Vibration     6          0.694              1.670              1.405
 Vibration     7          0.739              1.543              1.097
 Vibration     8          0.759              1.490              0.997
 Vibration     9          0.789              1.411              0.868
 Vibration    10          0.803              1.374              0.814
 Vibration    11          0.834              1.300              0.717
 Vibration    12          0.929              1.090              0.499
 Vibration    13          0.952              1.043              0.459

                           ! Non-Optimized Parameters !
 Normal termination of Gaussian 16 at Tue Dec  8 10:22:01 2020.

 ----------------------------------------------------------------------
 # B3LYP/6-311++G(d,p) empiricaldispersion=gd3bj scf=xqc pop=npa geom=c
 heck
 ----------------------------------------------------------------------

 -------------------------------------
 CID_17971312_JID_195_Energie_neutraal
 -------------------------------------
 Structure from the checkpoint file:  "JID_195.chk"
 Charge =  0 Multiplicity = 1

 SCF Done:  E(RB3LYP) =  -496.131681179     A.U. after   17 cycles
 Normal termination of Gaussian 16 at Tue Dec  8 10:22:54 2020.

 ----------------------------------------------------------------------
 # B3LYP/6-311++G(d,p) empiricaldispersion=gd3bj scf=xqc pop=npa geom=c
 heck
 ----------------------------------------------------------------------

 -----------------------------------
 CID_17971312_JID_195_Energie_kation
 -----------------------------------
 Structure from the checkpoint file:  "JID_195.chk"
 Charge =  1 Multiplicity = 2

 SCF Done:  E(UB3LYP) =  -495.813103910     A.U. after   25 cycles
 Normal termination of Gaussian 16 at Tue Dec  8 10:24:53 2020.
 Gaussian 16:  ES64L-G16RevA.03 25-Dec-2016

 ----------------------------------------------------------------------
 # B3LYP/6-311++G(d,p) empiricaldispersion=gd3bj scf=xqc pop=npa geom=c
 heck
 ----------------------------------------------------------------------

 ----------------------------------
 CID_17971312_JID_195_Energie_anion
 ----------------------------------
 Structure from the checkpoint file:  "JID_195.chk"
 Charge = -1 Multiplicity = 2

                         Standard orientation:
 ---------------------------------------------------------------------
 Center     Atomic      Atomic             Coordinates (Angstroms)
 Number     Number       Type             X           Y           Z
 ---------------------------------------------------------------------
      1          6           0       -2.942063   -0.392712    0.190889
      2          8           0       -2.076897    0.710870   -0.120018
      3          6           0       -0.735856    0.612575   -0.042322
      4          6           0       -0.004564    1.759672   -0.021471
      5          6           0        1.442941    1.763277    0.011565
      6          6           0        2.200460    0.640901    0.038385
      7          6           0        1.550547   -0.663498    0.027772
      8          6           0       -0.015693   -0.695320   -0.069142
      9          8           0       -0.577193   -1.768952   -0.180524
     10          8           0        2.138252   -1.730163    0.089019
     11          1           0       -3.934635    0.053789    0.273039
     12          1           0       -2.665130   -0.860832    1.139092
     13          1           0       -2.926005   -1.143955   -0.599460
     14          1           0       -0.533257    2.707320   -0.035695
     15          1           0        1.927030    2.736394    0.025933
     16          1           0        3.284061    0.663874    0.075227
 ---------------------------------------------------------------------

 SCF Done:  E(UB3LYP) =  -496.202824347     A.U. after   21 cycles

 The electronic state is 2-A.
 Alpha  occ. eigenvalues --  -19.01294 -18.92646 -18.91751 -10.09382 -10.07384
 Alpha  occ. eigenvalues --  -10.06862 -10.06186 -10.02688 -10.01532 -10.00388
 Alpha  occ. eigenvalues --   -0.92941  -0.87359  -0.84610  -0.67601  -0.61203
 Alpha  occ. eigenvalues --   -0.54830  -0.52416  -0.43364  -0.42762  -0.36463
 Alpha  occ. eigenvalues --   -0.34529  -0.33592  -0.32772  -0.29318  -0.27670
 Alpha  occ. eigenvalues --   -0.26134  -0.25073  -0.23374  -0.22673  -0.22149
 Alpha  occ. eigenvalues --   -0.20319  -0.19641  -0.15821  -0.10635  -0.06700
 Alpha  occ. eigenvalues --   -0.05965   0.00075
 Alpha virt. eigenvalues --    0.09061   0.10014   0.11649   0.12810   0.13287
 Alpha virt. eigenvalues --    0.13728   0.15658   0.16172   0.16376   0.18281
 Alpha virt. eigenvalues --    0.18568   0.19620   0.20052   0.20816   0.21428

  Beta  occ. eigenvalues --  -19.01223 -18.91991 -18.91173 -10.09384 -10.07217
  Beta  occ. eigenvalues --  -10.06725 -10.06109 -10.02505 -10.01481 -10.00331
  Beta  occ. eigenvalues --   -0.92754  -0.86320  -0.83521  -0.67159  -0.60993
  Beta  occ. eigenvalues --   -0.54639  -0.51447  -0.43022  -0.42305  -0.36180
  Beta  occ. eigenvalues --   -0.34362  -0.33332  -0.32505  -0.29177  -0.27155
  Beta  occ. eigenvalues --   -0.24503  -0.24403  -0.23096  -0.22456  -0.21351
  Beta  occ. eigenvalues --   -0.19559  -0.17198  -0.14240  -0.10021  -0.05536
  Beta  occ. eigenvalues --   -0.05249
  Beta virt. eigenvalues --    0.07016   0.09061   0.10000   0.11636   0.12810
  Beta virt. eigenvalues --    0.13285   0.13742   0.15733   0.17518   0.18009
  Beta virt. eigenvalues --    0.18337   0.18778   0.19940   0.20148   0.20826

 Mulliken charges and spin densities:
               1          2
     1  C   -0.270548   0.001485
     2  O   -0.228741   0.015844
     3  C   -0.002571   0.224837
     4  C   -0.136982  -0.023272
     5  C   -0.211813   0.164203
     6  C    0.227635   0.025876
     7  C   -0.498966   0.137833
     8  C    0.091072   0.028491
     9  O   -0.367111   0.242288
    10  O   -0.373964   0.206315
    11  H    0.106278  -0.001425
    12  H    0.146487   0.000101
    13  H    0.171366   0.000594
    14  H    0.130291  -0.006679
    15  H    0.104879  -0.011736
    16  H    0.112688  -0.004755
 Sum of Mulliken charges =  -1.00000   1.00000

 Dipole moment (field-independent basis, Debye):
    X=             -3.8764    Y=              4.0288    Z=              0.4446  Tot=              5.6085
 Quadrupole moment (field-independent basis, Debye-Ang):
   XX=            -74.3318   YY=            -79.7489   ZZ=            -63.0385
   XY=              8.6234   XZ=             -1.5548   YZ=             -0.2132

 Summary of Natural Population Analysis:

                                       Natural Population
                Natural  -----------------------------------------------
    Atom  No    Charge         Core      Valence    Rydberg      Total
 -----------------------------------------------------------------------
      C    1   -0.09493      0.99960     2.08709    0.00824     3.09493
      O    2   -0.27504      0.99985     3.26394    0.01126     4.27504
      C    3    0.17157      0.99935     1.81548    0.01360     2.82843
      C    4   -0.13979      0.99953     2.13027    0.00999     3.13979
      C    5   -0.05057      0.99958     2.04224    0.00875     3.05057
      C    6   -0.14616      0.99952     2.13612    0.01052     3.14616
      C    7    0.22121      0.99962     1.75711    0.02206     2.77879
      C    8    0.21837      0.99962     1.75954    0.02247     2.78163
      O    9   -0.20462      0.99988     3.19775    0.00699     4.20462
      O   10   -0.21834      0.99988     3.21023    0.00823     4.21834
      H   11    0.07480      0.00000     0.42414    0.00105     0.42520
      H   12    0.08636      0.00000     0.41245    0.00119     0.41364
      H   13    0.09242      0.00000     0.40633    0.00126     0.40758
      H   14    0.09075      0.00000     0.40719    0.00206     0.40925
      H   15    0.08383      0.00000     0.41441    0.00176     0.41617
      H   16    0.09014      0.00000     0.40695    0.00290     0.40986
 =======================================================================
   * Total *   -0.00000      9.99642    25.87125    0.13233    36.00000

 Normal termination of Gaussian 16 at Tue Dec  8 10:26:35 2020.
