 Gaussian 16, Revision A.03,

 -----------------------------------------------------------
 # opt freq B3LYP/6-31G(d) empiricaldispersion=gd3bj scf=xqc
 -----------------------------------------------------------

 ------------------------------
 CID_11977344_JID_1218_neutraal
 ------------------------------
 Symbolic Z-matrix:
 Charge =  0 Multiplicity = 1

 SCF Done:  E(RB3LYP) =  -549.942774233     A.U. after   16 cycles
 SCF Done:  E(RB3LYP) =  -549.945357245     A.U. after   15 cycles
 SCF Done:  E(RB3LYP) =  -549.947019227     A.U. after   15 cycles
 SCF Done:  E(RB3LYP) =  -549.947222366     A.U. after   13 cycles
 SCF Done:  E(RB3LYP) =  -549.947085741     A.U. after   13 cycles
 SCF Done:  E(RB3LYP) =  -549.947294621     A.U. after   12 cycles
 SCF Done:  E(RB3LYP) =  -549.947366251     A.U. after   12 cycles
 SCF Done:  E(RB3LYP) =  -549.947397945     A.U. after   12 cycles
 SCF Done:  E(RB3LYP) =  -549.947403446     A.U. after   12 cycles
 SCF Done:  E(RB3LYP) =  -549.947404668     A.U. after    9 cycles
 SCF Done:  E(RB3LYP) =  -549.947404859     A.U. after    8 cycles
 Optimization completed.
    -- Stationary point found.
 Normal termination of Gaussian 16 at Tue Dec  8 19:27:19 2020.

 --------------------------------------------------------------------
 #N Geom=AllCheck Guess=TCheck SCRF=Check GenChk RB3LYP/6-31G(d) Freq
 --------------------------------------------------------------------

 Structure from the checkpoint file:  "JID_1218.chk"
 ------------------------------
 CID_11977344_JID_1218_neutraal
 ------------------------------
 Charge =  0 Multiplicity = 1

 SCF Done:  E(RB3LYP) =  -549.947404859     A.U. after    1 cycles

  Exact polarizability: 123.655   1.117  73.121  -3.453   1.071  67.653
 Approx polarizability: 191.618  -7.030 118.684 -13.909   7.485  94.367

                      1                      2                      3
                      A                      A                      A
 Frequencies --     30.4966                48.0248                78.4268
 Red. masses --      3.9361                 6.0239                 4.4821
 Frc consts  --      0.0022                 0.0082                 0.0162
 IR Inten    --      0.0484                 0.2600                 0.7935

                      4                      5                      6
                      A                      A                      A
 Frequencies --     96.5317               125.3037               203.6467
 Red. masses --      4.2263                 3.9927                 1.9801
 Frc consts  --      0.0232                 0.0369                 0.0484
 IR Inten    --      0.1120                 0.7501                 3.7773

                      7                      8                      9
                      A                      A                      A
 Frequencies --    224.0668               248.6018               264.5568
 Red. masses --      1.5072                 1.4918                 1.5783
 Frc consts  --      0.0446                 0.0543                 0.0651
 IR Inten    --      0.7836                 0.1290                 0.4374

                     10                     11                     12
                      A                      A                      A
 Frequencies --    277.3569               311.8342               327.7270
 Red. masses --      1.1230                 4.9625                 2.4016
 Frc consts  --      0.0509                 0.2843                 0.1520
 IR Inten    --      0.1916                 0.9133                 3.1728

                     13                     14                     15
                      A                      A                      A
 Frequencies --    355.4513               405.9206               435.3442
 Red. masses --      3.3976                 3.7228                 3.9155
 Frc consts  --      0.2529                 0.3614                 0.4372
 IR Inten    --     11.7504                 4.1778                 4.9622

                     16                     17                     18
                      A                      A                      A
 Frequencies --    479.8659               574.5720               578.6553
 Red. masses --      3.9617                 5.2158                13.4850
 Frc consts  --      0.5375                 1.0145                 2.6604
 IR Inten    --      6.2338                 1.9300                12.5862

                     19                     20                     21
                      A                      A                      A
 Frequencies --    719.1950               768.4123               782.9264
 Red. masses --      3.8506                 6.5468                 2.2731
 Frc consts  --      1.1735                 2.2776                 0.8209
 IR Inten    --     18.0804                 4.8242                 0.8897

                     22                     23                     24
                      A                      A                      A
 Frequencies --    821.8753               872.6003               913.3546
 Red. masses --      1.8204                 2.9160                 2.3117
 Frc consts  --      0.7245                 1.3082                 1.1362
 IR Inten    --      7.6118                15.1481                 3.6810

                     25                     26                     27
                      A                      A                      A
 Frequencies --    954.5629               973.0831              1046.6233
 Red. masses --      1.5313                 2.4872                 1.7215
 Frc consts  --      0.8221                 1.3876                 1.1111
 IR Inten    --      0.3900                 2.3538                 5.7269

                     28                     29                     30
                      A                      A                      A
 Frequencies --   1047.8756              1131.7880              1173.6694
 Red. masses --      2.0907                 1.9467                 3.1820
 Frc consts  --      1.3526                 1.4692                 2.5825
 IR Inten    --     10.7303                14.8050               479.0537

                     31                     32                     33
                      A                      A                      A
 Frequencies --   1188.7743              1206.2989              1221.0068
 Red. masses --      3.5685                 1.8912                 2.2796
 Frc consts  --      2.9712                 1.6214                 2.0024
 IR Inten    --      7.3507                27.3757                38.4977

                     34                     35                     36
                      A                      A                      A
 Frequencies --   1312.7257              1342.9860              1344.5399
 Red. masses --      3.4707                 1.3026                 5.0805
 Frc consts  --      3.5238                 1.3842                 5.4113
 IR Inten    --     64.1878                 4.7814               156.5368

                     37                     38                     39
                      A                      A                      A
 Frequencies --   1417.9609              1422.5185              1442.0014
 Red. masses --      1.2614                 1.2137                 1.2607
 Frc consts  --      1.4943                 1.4470                 1.5445
 IR Inten    --      0.2366                 6.1286                22.3846

                     40                     41                     42
                      A                      A                      A
 Frequencies --   1449.0064              1513.7931              1515.7819
 Red. masses --      1.2828                 1.0465                 1.0493
 Frc consts  --      1.5869                 1.4129                 1.4205
 IR Inten    --      7.5201                 1.1200                 5.4578

                     43                     44                     45
                      A                      A                      A
 Frequencies --   1517.5831              1519.7624              1529.7716
 Red. masses --      1.0482                 1.0770                 1.0514
 Frc consts  --      1.4223                 1.4655                 1.4497
 IR Inten    --      2.4485                 3.3810                11.5911

                     46                     47                     48
                      A                      A                      A
 Frequencies --   1537.8405              1540.4601              1842.9779
 Red. masses --      1.0575                 1.0659                11.9958
 Frc consts  --      1.4736                 1.4902                24.0061
 IR Inten    --      7.9796                16.2466               196.4265

                     49                     50                     51
                      A                      A                      A
 Frequencies --   2257.8322              3062.6433              3062.8847
 Red. masses --     13.8978                 1.0358                 1.0360
 Frc consts  --     41.7426                 5.7245                 5.7265
 IR Inten    --    500.0645                 5.2027                23.0266

                     52                     53                     54
                      A                      A                      A
 Frequencies --   3065.8063              3097.5030              3129.2468
 Red. masses --      1.0365                 1.0591                 1.1017
 Frc consts  --      5.7397                 5.9868                 6.3562
 IR Inten    --      8.9788                25.1373                25.2527

                     55                     56                     57
                      A                      A                      A
 Frequencies --   3133.3322              3135.3807              3142.1157
 Red. masses --      1.1024                 1.1024                 1.1041
 Frc consts  --      6.3770                 6.3849                 6.4224
 IR Inten    --      9.1520                21.9577                 6.6436

                     58                     59                     60
                      A                      A                      A
 Frequencies --   3157.8315              3161.6839              3162.2551
 Red. masses --      1.1030                 1.1081                 1.1022
 Frc consts  --      6.4806                 6.5264                 6.4937
 IR Inten    --      3.2404                21.8035                24.1953

 - Thermochemistry -
 -------------------
 Temperature   298.150 Kelvin.  Pressure   1.00000 Atm.
 Atom     1 has atomic number  6 and mass  12.00000

 Molecular mass:   157.08513 amu.
 Principal axes and moments of inertia in atomic units:
                           1         2         3
     Eigenvalues --   674.329443102.352673219.06203
           X            0.99986  -0.01438   0.00891
           Y            0.01500   0.99707  -0.07505
           Z           -0.00781   0.07517   0.99714
 This molecule is an asymmetric top.
 Rotational symmetry number  1.
 Warning -- assumption of classical behavior for rotation
           may cause significant error
 Rotational temperatures (Kelvin)      0.12844     0.02792     0.02691
 Rotational constants (GHZ):           2.67635     0.58173     0.56064
 Zero-point vibrational energy     470770.3 (Joules/Mol)
                                  112.51681 (Kcal/Mol)
 Warning -- explicit consideration of  18 degrees of freedom as
           vibrations may cause significant error
 Vibrational temperatures:     43.88    69.10   112.84   138.89   180.28
          (Kelvin)            293.00   322.38   357.68   380.64   399.05
                              448.66   471.53   511.42   584.03   626.36
                              690.42   826.68   832.56  1034.76  1105.57
                             1126.46  1182.50  1255.48  1314.11  1373.40
                             1400.05  1505.86  1507.66  1628.39  1688.65
                             1710.38  1735.60  1756.76  1888.72  1932.26
                             1934.49  2040.13  2046.69  2074.72  2084.80
                             2178.01  2180.87  2183.46  2186.60  2201.00
                             2212.61  2216.38  2651.63  3248.52  4406.46
                             4406.81  4411.01  4456.62  4502.29  4508.17
                             4511.11  4520.80  4543.42  4548.96  4549.78

 Zero-point correction=                           0.179307 (Hartree/Particle)
 Thermal correction to Energy=                    0.191641
 Thermal correction to Enthalpy=                  0.192585
 Thermal correction to Gibbs Free Energy=         0.139974
 Sum of electronic and zero-point Energies=           -549.768098
 Sum of electronic and thermal Energies=              -549.755764
 Sum of electronic and thermal Enthalpies=            -549.754820
 Sum of electronic and thermal Free Energies=         -549.807431

                     E (Thermal)             CV                S
                      KCal/Mol        Cal/Mol-Kelvin    Cal/Mol-Kelvin
 Total                  120.256             43.440            110.730
 Electronic               0.000              0.000              0.000
 Translational            0.889              2.981             41.064
 Rotational               0.889              2.981             30.289
 Vibrational            118.479             37.479             39.377
 Vibration     1          0.594              1.984              5.797
 Vibration     2          0.595              1.978              4.897
 Vibration     3          0.600              1.964              3.930
 Vibration     4          0.603              1.952              3.523
 Vibration     5          0.610              1.928              3.017
 Vibration     6          0.639              1.835              2.100
 Vibration     7          0.649              1.804              1.926
 Vibration     8          0.662              1.765              1.740
 Vibration     9          0.671              1.738              1.632
 Vibration    10          0.678              1.715              1.550
 Vibration    11          0.700              1.651              1.353
 Vibration    12          0.711              1.620              1.271
 Vibration    13          0.731              1.564              1.142
 Vibration    14          0.771              1.457              0.941
 Vibration    15          0.796              1.393              0.841
 Vibration    16          0.836              1.295              0.710
 Vibration    17          0.931              1.086              0.496
 Vibration    18          0.935              1.077              0.488

 Optimization completed.
    -- Stationary point found.
 Normal termination of Gaussian 16 at Tue Dec  8 19:31:13 2020.

 ----------------------------------------------------------------------
 # B3LYP/6-311++G(d,p) empiricaldispersion=gd3bj scf=xqc pop=npa geom=c
 heck
 ----------------------------------------------------------------------

 --------------------------------------
 CID_11977344_JID_1218_Energie_neutraal
 --------------------------------------
 Structure from the checkpoint file:  "JID_1218.chk"
 Charge =  0 Multiplicity = 1

 SCF Done:  E(RB3LYP) =  -550.106568081     A.U. after   15 cycles
 Normal termination of Gaussian 16 at Tue Dec  8 19:32:38 2020.

 ----------------------------------------------------------------------
 # B3LYP/6-311++G(d,p) empiricaldispersion=gd3bj scf=xqc pop=npa geom=c
 heck
 ----------------------------------------------------------------------

 ------------------------------------
 CID_11977344_JID_1218_Energie_kation
 ------------------------------------
 Structure from the checkpoint file:  "JID_1218.chk"
 Charge =  1 Multiplicity = 2

 SCF Done:  E(UB3LYP) =  -549.759406345     A.U. after   25 cycles
 Normal termination of Gaussian 16 at Tue Dec  8 19:35:38 2020.
 Gaussian 16:  ES64L-G16RevA.03 25-Dec-2016

 ----------------------------------------------------------------------
 # B3LYP/6-311++G(d,p) empiricaldispersion=gd3bj scf=xqc pop=npa geom=c
 heck
 ----------------------------------------------------------------------

 -----------------------------------
 CID_11977344_JID_1218_Energie_anion
 -----------------------------------
 Structure from the checkpoint file:  "JID_1218.chk"
 Charge = -1 Multiplicity = 2

                         Standard orientation:
 ---------------------------------------------------------------------
 Center     Atomic      Atomic             Coordinates (Angstroms)
 Number     Number       Type             X           Y           Z
 ---------------------------------------------------------------------
      1          6           0        3.565424   -0.385431    0.796112
      2          6           0        2.960944    0.221555   -0.458924
      3          8           0        1.594995    0.645036   -0.226391
      4          6           0        0.649520   -0.316799   -0.316585
      5          8           0        0.870993   -1.469445   -0.596837
      6          6           0       -0.726150    0.289488   -0.004566
      7          6           0       -0.736912    0.813144    1.442381
      8          6           0       -1.045305    1.409525   -1.009390
      9          7           0       -1.685874   -0.838283   -0.158083
     10          7           0       -2.863370   -0.546641    0.061316
     11          7           0       -3.983857   -0.402095    0.237715
     12          1           0        3.509149    0.318229    1.632921
     13          1           0        4.619024   -0.629911    0.620991
     14          1           0        3.039789   -1.304737    1.067446
     15          1           0        3.477749    1.136620   -0.756152
     16          1           0        2.969507   -0.488953   -1.288654
     17          1           0        0.006695    1.603697    1.564831
     18          1           0       -1.724441    1.220601    1.684502
     19          1           0       -0.514029    0.003679    2.143947
     20          1           0       -1.037788    1.020403   -2.031871
     21          1           0       -2.038130    1.823819   -0.802895
     22          1           0       -0.308858    2.212077   -0.930052
 ---------------------------------------------------------------------

 SCF Done:  E(UB3LYP) =  -550.094768382     A.U. after   33 cycles
 SCF Done:  E(UB3LYP) =  -550.094768382     a.u. after    1 cycles

 The electronic state is 2-A.
 Alpha  occ. eigenvalues --  -19.06482 -19.01171 -14.34769 -14.25150 -14.23721
 Alpha  occ. eigenvalues --  -10.19924 -10.13666 -10.12275 -10.07148 -10.07117
 Alpha  occ. eigenvalues --  -10.06064  -1.01775  -1.00622  -0.92183  -0.86262
 Alpha  occ. eigenvalues --   -0.71945  -0.66359  -0.60343  -0.57038  -0.54610
 Alpha  occ. eigenvalues --   -0.46757  -0.43204  -0.39847  -0.39237  -0.37973
 Alpha  occ. eigenvalues --   -0.37588  -0.36347  -0.34641  -0.32959  -0.32688
 Alpha  occ. eigenvalues --   -0.31183  -0.30257  -0.29772  -0.29034  -0.28072
 Alpha  occ. eigenvalues --   -0.26900  -0.25954  -0.24097  -0.20556  -0.18753
 Alpha  occ. eigenvalues --   -0.17690  -0.14035   0.04802
 Alpha virt. eigenvalues --    0.06406   0.07679   0.08325   0.09133   0.09776
 Alpha virt. eigenvalues --    0.10589   0.10819   0.11879   0.12009   0.12624
 Alpha virt. eigenvalues --    0.12890   0.13641   0.14535   0.14829   0.16174

  Beta  occ. eigenvalues --  -19.06480 -19.01159 -14.34499 -14.24907 -14.23730
  Beta  occ. eigenvalues --  -10.19916 -10.13589 -10.12244 -10.07138 -10.07100
  Beta  occ. eigenvalues --  -10.06023  -1.01351  -1.00579  -0.92163  -0.86077
  Beta  occ. eigenvalues --   -0.71833  -0.66298  -0.60310  -0.56972  -0.54448
  Beta  occ. eigenvalues --   -0.46600  -0.42996  -0.39543  -0.39062  -0.37893
  Beta  occ. eigenvalues --   -0.37134  -0.36236  -0.34340  -0.32636  -0.32402
  Beta  occ. eigenvalues --   -0.31088  -0.30169  -0.29729  -0.28994  -0.28021
  Beta  occ. eigenvalues --   -0.26837  -0.25903  -0.24052  -0.20528  -0.18221
  Beta  occ. eigenvalues --   -0.17606  -0.13958
  Beta virt. eigenvalues --    0.07444   0.08322   0.08685   0.08848   0.09704
  Beta virt. eigenvalues --    0.10494   0.10978   0.11064   0.12354   0.12614
  Beta virt. eigenvalues --    0.12914   0.13299   0.13815   0.14733   0.15169

 Mulliken charges and spin densities:
               1          2
     1  C    0.641329  -1.024124
     2  C    0.487417  -0.616779
     3  O   -0.052069   0.059905
     4  C    0.195413  -0.227776
     5  O   -0.173752   0.002725
     6  C   -1.011480   0.778016
     7  C    0.497209  -1.045828
     8  C    0.133319  -0.572049
     9  N   -0.320045   0.022395
    10  N    0.559371   0.060038
    11  N   -0.332931   0.139325
    12  H   -0.072385   0.221659
    13  H   -0.617078   0.768119
    14  H   -0.066235   0.230300
    15  H   -0.961429   1.148714
    16  H    0.216592  -0.058460
    17  H   -0.082075   0.251058
    18  H   -0.001236   0.158943
    19  H    0.086272   0.081303
    20  H    0.071550   0.093107
    21  H   -0.020713   0.176828
    22  H   -0.177047   0.352579
 Sum of Mulliken charges =  -1.00000   1.00000

 Dipole moment (field-independent basis, Debye):
    X=             -4.1820    Y=             -1.9235    Z=             -0.3049  Tot=              4.6133
 Quadrupole moment (field-independent basis, Debye-Ang):
   XX=           -150.3537   YY=           -101.3713   ZZ=            -86.3618
   XY=             -8.1822   XZ=              0.3106   YZ=             -1.5631

 Summary of Natural Population Analysis:

                                       Natural Population
                Natural  -----------------------------------------------
    Atom  No    Charge         Core      Valence    Rydberg      Total
 -----------------------------------------------------------------------
      C    1   -0.29868      0.99966     2.29364    0.00539     3.29868
      C    2   -0.01492      0.99957     2.00305    0.01229     3.01492
      O    3   -0.28635      0.99986     3.27569    0.01080     4.28635
      C    4    0.41345      0.99961     1.55896    0.02797     2.58655
      O    5   -0.29467      0.99987     3.28984    0.00496     4.29467
      C    6    0.01699      0.99953     1.97030    0.01319     2.98301
      C    7   -0.29069      0.99962     2.28422    0.00685     3.29069
      C    8   -0.29082      0.99962     2.28429    0.00691     3.29082
      N    9   -0.18931      0.99967     2.67588    0.01376     3.68931
      N   10    0.13659      0.99970     2.34774    0.01597     3.36341
      N   11   -0.03732      0.99982     2.52454    0.01296     3.53732
      H   12    0.10236      0.00000     0.39604    0.00159     0.39764
      H   13    0.10484      0.00000     0.39325    0.00191     0.39516
      H   14    0.10262      0.00000     0.39630    0.00108     0.39738
      H   15    0.09563      0.00000     0.40021    0.00416     0.40437
      H   16    0.09214      0.00000     0.40658    0.00128     0.40786
      H   17    0.11285      0.00000     0.38566    0.00149     0.38715
      H   18    0.10220      0.00000     0.39687    0.00093     0.39780
      H   19    0.10408      0.00000     0.39498    0.00095     0.39592
      H   20    0.10357      0.00000     0.39550    0.00094     0.39643
      H   21    0.10243      0.00000     0.39659    0.00098     0.39757
      H   22    0.11301      0.00000     0.38552    0.00147     0.38699
 =======================================================================
   * Total *   -0.00000     10.99653    30.85565    0.14782    42.00000

 Normal termination of Gaussian 16 at Tue Dec  8 19:39:48 2020.
