 Gaussian 16, Revision A.03,

 -----------------------------------------------------------
 # opt freq B3LYP/6-31G(d) empiricaldispersion=gd3bj scf=xqc
 -----------------------------------------------------------

 -------------------------------
 CID_153913397_JID_5180_neutraal
 -------------------------------
 Symbolic Z-matrix:
 Charge =  0 Multiplicity = 1

 SCF Done:  E(RB3LYP) =  -708.682301147     A.U. after   15 cycles
 SCF Done:  E(RB3LYP) =  -708.686960779     A.U. after   12 cycles
 SCF Done:  E(RB3LYP) =  -708.686341249     A.U. after   13 cycles
 SCF Done:  E(RB3LYP) =  -708.687731898     A.U. after   12 cycles
 SCF Done:  E(RB3LYP) =  -708.687869507     A.U. after   11 cycles
 SCF Done:  E(RB3LYP) =  -708.687990582     A.U. after   12 cycles
 SCF Done:  E(RB3LYP) =  -708.688095843     A.U. after   12 cycles
 SCF Done:  E(RB3LYP) =  -708.688177869     A.U. after   13 cycles
 SCF Done:  E(RB3LYP) =  -708.688253255     A.U. after   11 cycles
 SCF Done:  E(RB3LYP) =  -708.688359307     A.U. after   11 cycles
 SCF Done:  E(RB3LYP) =  -708.688418542     A.U. after   11 cycles
 SCF Done:  E(RB3LYP) =  -708.688424827     A.U. after   10 cycles
 SCF Done:  E(RB3LYP) =  -708.688429185     A.U. after   10 cycles
 SCF Done:  E(RB3LYP) =  -708.688429779     A.U. after    9 cycles
 SCF Done:  E(RB3LYP) =  -708.688429781     A.U. after    7 cycles
 Optimization completed.
    -- Stationary point found.
 Normal termination of Gaussian 16 at Thu Dec 10 14:52:45 2020.

 --------------------------------------------------------------------
 #N Geom=AllCheck Guess=TCheck SCRF=Check GenChk RB3LYP/6-31G(d) Freq
 --------------------------------------------------------------------

 Structure from the checkpoint file:  "JID_5180.chk"
 -------------------------------
 CID_153913397_JID_5180_neutraal
 -------------------------------
 Charge =  0 Multiplicity = 1

 SCF Done:  E(RB3LYP) =  -708.688429781     A.U. after    1 cycles

  Exact polarizability: 162.368   0.050 106.379   4.603  -0.458  98.751
 Approx polarizability: 208.713  -0.367 172.905   9.966  -7.280 149.840

                      1                      2                      3
                      A                      A                      A
 Frequencies --     14.9196                58.7539                73.4718
 Red. masses --      5.7247                 5.5637                 3.8279
 Frc consts  --      0.0008                 0.0113                 0.0122
 IR Inten    --      0.0659                 0.5509                 0.6794

                      4                      5                      6
                      A                      A                      A
 Frequencies --     98.1204               133.8057               164.0443
 Red. masses --      6.9872                 4.0390                 3.5890
 Frc consts  --      0.0396                 0.0426                 0.0569
 IR Inten    --      0.2747                 1.0273                 1.9371

                      7                      8                      9
                      A                      A                      A
 Frequencies --    218.0426               258.4659               280.2733
 Red. masses --      2.9482                 3.8071                 2.5454
 Frc consts  --      0.0826                 0.1498                 0.1178
 IR Inten    --      3.8996                 4.6832                 0.6581

                     10                     11                     12
                      A                      A                      A
 Frequencies --    304.0414               327.0683               384.5450
 Red. masses --      2.9564                 2.4387                 1.9649
 Frc consts  --      0.1610                 0.1537                 0.1712
 IR Inten    --      1.2228                 3.4850                 4.4027

                     13                     14                     15
                      A                      A                      A
 Frequencies --    409.2439               422.4738               464.5942
 Red. masses --      4.3939                 2.9000                 4.2654
 Frc consts  --      0.4336                 0.3050                 0.5424
 IR Inten    --      2.8613                 1.8949                13.0055

                     16                     17                     18
                      A                      A                      A
 Frequencies --    480.9711               515.2797               540.8933
 Red. masses --      2.8003                 3.8364                 1.1270
 Frc consts  --      0.3817                 0.6001                 0.1943
 IR Inten    --      4.0359                 6.4032                96.5019

                     19                     20                     21
                      A                      A                      A
 Frequencies --    548.5749               580.2856               604.1465
 Red. masses --      3.3383                 3.4567                 3.9235
 Frc consts  --      0.5919                 0.6858                 0.8437
 IR Inten    --      3.9736                33.3056                 6.3481

                     22                     23                     24
                      A                      A                      A
 Frequencies --    646.6048               676.6158               710.2684
 Red. masses --      4.0605                 2.8954                 1.9557
 Frc consts  --      1.0002                 0.7810                 0.5813
 IR Inten    --     15.0592                 1.6079                16.9211

                     25                     26                     27
                      A                      A                      A
 Frequencies --    742.4637               754.1316               785.3629
 Red. masses --      1.6554                10.4336                 2.5456
 Frc consts  --      0.5377                 3.4961                 0.9251
 IR Inten    --      8.2679                37.5623                 3.6126

                     28                     29                     30
                      A                      A                      A
 Frequencies --    835.7654               881.9573               899.9604
 Red. masses --      2.3841                 2.4933                 1.7972
 Frc consts  --      0.9812                 1.1427                 0.8576
 IR Inten    --      1.5456                 6.5264                 4.3000

                     31                     32                     33
                      A                      A                      A
 Frequencies --    932.6454               966.4901               977.2587
 Red. masses --      2.2759                 2.2406                 2.3642
 Frc consts  --      1.1664                 1.2332                 1.3303
 IR Inten    --      6.3047                 5.0436                 2.5247

                     34                     35                     36
                      A                      A                      A
 Frequencies --    998.5123               999.8647              1014.2238
 Red. masses --      2.3234                 1.2356                 2.3713
 Frc consts  --      1.3649                 0.7278                 1.4371
 IR Inten    --      0.7838                 1.8600                41.4451

                     37                     38                     39
                      A                      A                      A
 Frequencies --   1045.2808              1075.8410              1086.8399
 Red. masses --      1.9993                 2.7712                 2.0141
 Frc consts  --      1.2870                 1.8898                 1.4017
 IR Inten    --      5.3498                32.4249                 4.4482

                     40                     41                     42
                      A                      A                      A
 Frequencies --   1102.3250              1141.1726              1152.3161
 Red. masses --      2.7439                 2.4894                 1.8137
 Frc consts  --      1.9644                 1.9101                 1.4189
 IR Inten    --     24.5588                 2.4833                82.0985

                     43                     44                     45
                      A                      A                      A
 Frequencies --   1163.7262              1201.9121              1216.7144
 Red. masses --      2.1894                 1.3352                 1.5761
 Frc consts  --      1.7469                 1.1364                 1.3747
 IR Inten    --    191.4892               117.3588                60.5190

                     46                     47                     48
                      A                      A                      A
 Frequencies --   1226.2472              1271.2356              1275.1445
 Red. masses --      1.3149                 1.7044                 1.4957
 Frc consts  --      1.1650                 1.6228                 1.4329
 IR Inten    --      1.4080                32.3724                 1.3737

                     49                     50                     51
                      A                      A                      A
 Frequencies --   1280.2883              1301.6285              1323.5875
 Red. masses --      1.4887                 1.8258                 1.4184
 Frc consts  --      1.4377                 1.8225                 1.4640
 IR Inten    --     17.0269                26.7173                 4.6366

                     52                     53                     54
                      A                      A                      A
 Frequencies --   1346.2880              1364.2013              1371.4398
 Red. masses --      1.4034                 1.4231                 1.3629
 Frc consts  --      1.4986                 1.5604                 1.5103
 IR Inten    --     17.8537                 7.3451                 5.9798

                     55                     56                     57
                      A                      A                      A
 Frequencies --   1395.2111              1403.2038              1405.7846
 Red. masses --      1.5811                 1.4878                 1.3982
 Frc consts  --      1.8133                 1.7260                 1.6280
 IR Inten    --      0.9617                 0.6745                 1.0301

                     58                     59                     60
                      A                      A                      A
 Frequencies --   1421.5283              1440.2579              1494.9123
 Red. masses --      1.4356                 1.5080                 1.1163
 Frc consts  --      1.7092                 1.8430                 1.4698
 IR Inten    --      8.8112                 2.9394                25.1406

                     61                     62                     63
                      A                      A                      A
 Frequencies --   1504.4535              1505.5172              1510.6258
 Red. masses --      1.3339                 1.7503                 1.0952
 Frc consts  --      1.7788                 2.3374                 1.4725
 IR Inten    --     59.2727               155.4553                 6.6657

                     64                     65                     66
                      A                      A                      A
 Frequencies --   1521.1302              1527.4380              1536.6724
 Red. masses --      1.0879                 1.0973                 1.2577
 Frc consts  --      1.4832                 1.5084                 1.7498
 IR Inten    --      5.4063                 6.8577                32.3569

                     67                     68                     69
                      A                      A                      A
 Frequencies --   1742.5081              1811.0690              1825.5935
 Red. masses --      6.8618                12.3539                 8.6591
 Frc consts  --     12.2755                23.8740                17.0031
 IR Inten    --      3.4842               142.5935               504.1476

                     70                     71                     72
                      A                      A                      A
 Frequencies --   2995.6387              3007.6433              3030.2389
 Red. masses --      1.0728                 1.0706                 1.0707
 Frc consts  --      5.6723                 5.7059                 5.7927
 IR Inten    --     31.5988                36.9840                12.4741

                     73                     74                     75
                      A                      A                      A
 Frequencies --   3036.9807              3046.8610              3055.3414
 Red. masses --      1.0681                 1.0603                 1.0751
 Frc consts  --      5.8044                 5.7996                 5.9134
 IR Inten    --     38.6791                28.4608                 8.2778

                     76                     77                     78
                      A                      A                      A
 Frequencies --   3064.7638              3084.4013              3090.0757
 Red. masses --      1.0781                 1.0958                 1.1041
 Frc consts  --      5.9663                 6.1425                 6.2113
 IR Inten    --     44.4559                45.0340                32.9900

                     79                     80                     81
                      A                      A                      A
 Frequencies --   3104.0337              3152.6965              3175.5054
 Red. masses --      1.1041                 1.0842                 1.0964
 Frc consts  --      6.2680                 6.3491                 6.5139
 IR Inten    --     31.4203                 7.6190                38.4063

                     82                     83                     84
                      A                      A                      A
 Frequencies --   3179.4419              3183.0094              3740.1251
 Red. masses --      1.0892                 1.0909                 1.0647
 Frc consts  --      6.4872                 6.5121                 8.7747
 IR Inten    --      4.6702                 2.6718                99.1069

 - Thermochemistry -
 -------------------
 Temperature   298.150 Kelvin.  Pressure   1.00000 Atm.
 Atom     1 has atomic number  6 and mass  12.00000

 Molecular mass:   209.10519 amu.
 Principal axes and moments of inertia in atomic units:
                           1         2         3
     Eigenvalues --  1219.268615133.555845488.30314
           X            0.99999   0.00139   0.00386
           Y           -0.00152   0.99941   0.03445
           Z           -0.00381  -0.03445   0.99940
 This molecule is an asymmetric top.
 Rotational symmetry number  1.
 Warning -- assumption of classical behavior for rotation
           may cause significant error
 Rotational temperatures (Kelvin)      0.07104     0.01687     0.01578
 Rotational constants (GHZ):           1.48018     0.35156     0.32883
 Zero-point vibrational energy     667773.4 (Joules/Mol)
                                  159.60167 (Kcal/Mol)
 Warning -- explicit consideration of  21 degrees of freedom as
           vibrations may cause significant error
 Vibrational temperatures:     21.47    84.53   105.71   141.17   192.52
          (Kelvin)            236.02   313.71   371.87   403.25   437.45
                              470.58   553.27   588.81   607.85   668.45
                              692.01   741.37   778.22   789.28   834.90
                              869.23   930.32   973.50  1021.92  1068.24
                             1085.03  1129.96  1202.48  1268.94  1294.84
                             1341.87  1390.56  1406.06  1436.64  1438.58
                             1459.24  1503.93  1547.90  1563.72  1586.00
                             1641.89  1657.93  1674.34  1729.28  1750.58
                             1764.30  1829.02  1834.65  1842.05  1872.75
                             1904.35  1937.01  1962.78  1973.20  2007.40
                             2018.90  2022.61  2045.26  2072.21  2150.85
                             2164.57  2166.10  2173.45  2188.57  2197.64
                             2210.93  2507.08  2605.72  2626.62  4310.06
                             4327.33  4359.84  4369.54  4383.75  4395.95
                             4409.51  4437.77  4445.93  4466.01  4536.03
                             4568.84  4574.51  4579.64  5381.21

 Zero-point correction=                           0.254341 (Hartree/Particle)
 Thermal correction to Energy=                    0.267737
 Thermal correction to Enthalpy=                  0.268681
 Thermal correction to Gibbs Free Energy=         0.213083
 Sum of electronic and zero-point Energies=           -708.434088
 Sum of electronic and thermal Energies=              -708.420693
 Sum of electronic and thermal Enthalpies=            -708.419749
 Sum of electronic and thermal Free Energies=         -708.475346

                     E (Thermal)             CV                S
                      KCal/Mol        Cal/Mol-Kelvin    Cal/Mol-Kelvin
 Total                  168.008             52.318            117.015
 Electronic               0.000              0.000              0.000
 Translational            0.889              2.981             41.917
 Rotational               0.889              2.981             31.908
 Vibrational            166.230             46.356             43.191
 Vibration     1          0.593              1.986              7.216
 Vibration     2          0.596              1.974              4.499
 Vibration     3          0.599              1.967              4.058
 Vibration     4          0.604              1.950              3.491
 Vibration     5          0.613              1.920              2.891
 Vibration     6          0.623              1.887              2.503
 Vibration     7          0.646              1.814              1.975
 Vibration     8          0.667              1.748              1.672
 Vibration     9          0.680              1.710              1.532
 Vibration    10          0.695              1.666              1.395
 Vibration    11          0.711              1.621              1.275
 Vibration    12          0.753              1.503              1.021
 Vibration    13          0.774              1.450              0.929
 Vibration    14          0.785              1.421              0.884
 Vibration    15          0.822              1.329              0.753
 Vibration    16          0.837              1.292              0.707
 Vibration    17          0.870              1.216              0.621
 Vibration    18          0.896              1.160              0.563
 Vibration    19          0.904              1.143              0.547
 Vibration    20          0.937              1.074              0.485
 Vibration    21          0.963              1.023              0.443

 Optimization completed.
    -- Stationary point found.
 Normal termination of Gaussian 16 at Thu Dec 10 15:02:08 2020.

 ----------------------------------------------------------------------
 # B3LYP/6-311++G(d,p) empiricaldispersion=gd3bj scf=xqc pop=npa geom=c
 heck
 ----------------------------------------------------------------------

 ---------------------------------------
 CID_153913397_JID_5180_Energie_neutraal
 ---------------------------------------
 Structure from the checkpoint file:  "JID_5180.chk"
 Charge =  0 Multiplicity = 1

 SCF Done:  E(RB3LYP) =  -708.897619158     A.U. after   15 cycles
 Normal termination of Gaussian 16 at Thu Dec 10 15:06:28 2020.

 ----------------------------------------------------------------------
 # B3LYP/6-311++G(d,p) empiricaldispersion=gd3bj scf=xqc pop=npa geom=c
 heck
 ----------------------------------------------------------------------

 -------------------------------------
 CID_153913397_JID_5180_Energie_kation
 -------------------------------------
 Structure from the checkpoint file:  "JID_5180.chk"
 Charge =  1 Multiplicity = 2

 SCF Done:  E(UB3LYP) =  -708.587431539     A.U. after   26 cycles
 Normal termination of Gaussian 16 at Thu Dec 10 15:17:06 2020.
 Gaussian 16:  ES64L-G16RevA.03 25-Dec-2016

 ----------------------------------------------------------------------
 # B3LYP/6-311++G(d,p) empiricaldispersion=gd3bj scf=xqc pop=npa geom=c
 heck
 ----------------------------------------------------------------------

 ------------------------------------
 CID_153913397_JID_5180_Energie_anion
 ------------------------------------
 Structure from the checkpoint file:  "JID_5180.chk"
 Charge = -1 Multiplicity = 2

                         Standard orientation:
 ---------------------------------------------------------------------
 Center     Atomic      Atomic             Coordinates (Angstroms)
 Number     Number       Type             X           Y           Z
 ---------------------------------------------------------------------
      1          6           0        2.963405    0.333218    1.215188
      2          6           0        3.948433   -0.119526    0.131982
      3          6           0        3.261032   -0.319109   -1.192285
      4          6           0        1.936952   -0.384988   -1.340167
      5          6           0        0.941987   -0.333227   -0.203657
      6          6           0        1.679316   -0.498035    1.158688
      7          6           0       -0.104864   -1.459498   -0.388768
      8          6           0       -1.299208   -1.338651    0.557208
      9          7           0       -1.944409   -0.044453    0.366402
     10          6           0       -1.108887    1.131608    0.557628
     11          6           0        0.243332    1.040165   -0.157860
     12          8           0        0.769166    2.053273   -0.571588
     13          6           0       -3.228684    0.131071   -0.052585
     14          8           0       -3.769355    1.206836   -0.249656
     15          8           0       -3.880423   -1.055945   -0.235937
     16          1           0        2.717597    1.389486    1.058048
     17          1           0        3.420112    0.249367    2.207928
     18          1           0        4.754332    0.617394    0.020480
     19          1           0        4.442689   -1.056571    0.433912
     20          1           0        3.896027   -0.402615   -2.072815
     21          1           0        1.509765   -0.496463   -2.335528
     22          1           0        1.017361   -0.235797    1.991972
     23          1           0        1.923010   -1.562815    1.276577
     24          1           0        0.390621   -2.427742   -0.247943
     25          1           0       -0.483236   -1.436820   -1.418677
     26          1           0       -0.980747   -1.429286    1.605191
     27          1           0       -2.026791   -2.124265    0.364225
     28          1           0       -1.641997    2.007548    0.191402
     29          1           0       -0.908385    1.284154    1.631099
     30          1           0       -4.771485   -0.795889   -0.525462
 ---------------------------------------------------------------------

 SCF Done:  E(UB3LYP) =  -708.890411616     A.U. after   33 cycles
 SCF Done:  E(UB3LYP) =  -708.890411616     a.u. after    1 cycles

 The electronic state is 2-A.
 Alpha  occ. eigenvalues --  -19.06305 -18.99130 -18.99049 -14.24398 -10.21656
 Alpha  occ. eigenvalues --  -10.13252 -10.10574 -10.09924 -10.08886 -10.07514
 Alpha  occ. eigenvalues --  -10.07473 -10.07157 -10.07091 -10.06795 -10.06562
 Alpha  occ. eigenvalues --   -1.00727  -0.92816  -0.90994  -0.84799  -0.74811
 Alpha  occ. eigenvalues --   -0.69022  -0.65019  -0.64586  -0.61950  -0.55676
 Alpha  occ. eigenvalues --   -0.51812  -0.50956  -0.49960  -0.44647  -0.42952
 Alpha  occ. eigenvalues --   -0.40852  -0.39692  -0.38390  -0.36519  -0.36015
 Alpha  occ. eigenvalues --   -0.35450  -0.34498  -0.33610  -0.32950  -0.31477
 Alpha  occ. eigenvalues --   -0.30968  -0.30547  -0.29996  -0.29782  -0.27134
 Alpha  occ. eigenvalues --   -0.26476  -0.25937  -0.24785  -0.23909  -0.22200
 Alpha  occ. eigenvalues --   -0.21938  -0.20925  -0.18065  -0.16559  -0.15043
 Alpha  occ. eigenvalues --   -0.12227   0.04292
 Alpha virt. eigenvalues --    0.06336   0.06743   0.07473   0.07948   0.08970
 Alpha virt. eigenvalues --    0.09360   0.09830   0.10583   0.11232   0.11371
 Alpha virt. eigenvalues --    0.11696   0.12571   0.13196   0.13418   0.14344

  Beta  occ. eigenvalues --  -19.06270 -18.99113 -18.98849 -14.24386 -10.21648
  Beta  occ. eigenvalues --  -10.13037 -10.10545 -10.09929 -10.08899 -10.07494
  Beta  occ. eigenvalues --  -10.07462 -10.07132 -10.07089 -10.06785 -10.06552
  Beta  occ. eigenvalues --   -1.00675  -0.92431  -0.90945  -0.84760  -0.74761
  Beta  occ. eigenvalues --   -0.68977  -0.64915  -0.64519  -0.61888  -0.55611
  Beta  occ. eigenvalues --   -0.51642  -0.50904  -0.49833  -0.44529  -0.42864
  Beta  occ. eigenvalues --   -0.40732  -0.39636  -0.38321  -0.36398  -0.35943
  Beta  occ. eigenvalues --   -0.35352  -0.34411  -0.33442  -0.32797  -0.31435
  Beta  occ. eigenvalues --   -0.30915  -0.30443  -0.29950  -0.29648  -0.27063
  Beta  occ. eigenvalues --   -0.26322  -0.25887  -0.24153  -0.23750  -0.22130
  Beta  occ. eigenvalues --   -0.21883  -0.20805  -0.18011  -0.16479  -0.15009
  Beta  occ. eigenvalues --   -0.12097
  Beta virt. eigenvalues --    0.06486   0.07215   0.07967   0.08335   0.08594
  Beta virt. eigenvalues --    0.09597   0.09836   0.10100   0.10790   0.11494
  Beta virt. eigenvalues --    0.11686   0.11942   0.12871   0.13311   0.13576

 Mulliken charges and spin densities:
               1          2
     1  C    0.006024  -0.346252
     2  C    0.201154  -1.004552
     3  C    0.174414  -0.296009
     4  C   -1.164270   1.084086
     5  C    0.999841   0.404045
     6  C   -0.514341   0.089709
     7  C    0.134660  -0.463599
     8  C    0.439448  -1.171679
     9  N   -0.165788   0.170678
    10  C    0.715803  -1.194748
    11  C   -0.200807  -0.204275
    12  O   -0.269224   0.089849
    13  C    0.242550   0.028501
    14  O   -0.369981  -0.002840
    15  O   -0.272107   0.044984
    16  H    0.239786  -0.055473
    17  H   -0.406563   0.576558
    18  H    0.002085   0.144199
    19  H    0.040454   0.099491
    20  H   -0.041867   0.194492
    21  H    0.019880   0.160841
    22  H   -0.102305   0.255890
    23  H    0.025193   0.145125
    24  H   -0.012603   0.179686
    25  H   -0.072406   0.225127
    26  H   -0.487696   0.655145
    27  H   -0.041695   0.297699
    28  H    0.328528  -0.095422
    29  H   -0.274335   0.504927
    30  H   -0.173832   0.483821
 Sum of Mulliken charges =  -1.00000   1.00000

 Dipole moment (field-independent basis, Debye):
    X=              2.5187    Y=             -1.3905    Z=             -1.7074  Tot=              3.3455
 Quadrupole moment (field-independent basis, Debye-Ang):
   XX=           -155.7517   YY=           -125.2714   ZZ=           -122.2688
   XY=             -1.1300   XZ=             -3.2283   YZ=              3.1464

 Summary of Natural Population Analysis:

                                       Natural Population
                Natural  -----------------------------------------------
    Atom  No    Charge         Core      Valence    Rydberg      Total
 -----------------------------------------------------------------------
      C    1   -0.19319      0.99963     2.18441    0.00915     3.19319
      C    2   -0.20540      0.99962     2.19754    0.00825     3.20540
      C    3   -0.08767      0.99952     2.07847    0.00968     3.08767
      C    4   -0.08154      0.99951     2.07049    0.01154     3.08154
      C    5   -0.09418      0.99950     2.08153    0.01316     3.09418
      C    6   -0.18234      0.99960     2.17245    0.01029     3.18234
      C    7   -0.18565      0.99960     2.17581    0.01025     3.18565
      C    8   -0.08394      0.99960     2.07392    0.01042     3.08394
      N    9   -0.26005      0.99964     2.74838    0.01204     3.76005
      C   10   -0.13144      0.99956     2.11984    0.01204     3.13144
      C   11    0.32460      0.99961     1.65366    0.02213     2.67540
      O   12   -0.26936      0.99987     3.26331    0.00618     4.26936
      C   13    0.46271      0.99967     1.51278    0.02484     2.53729
      O   14   -0.34152      0.99987     3.33611    0.00554     4.34152
      O   15   -0.35535      0.99988     3.34955    0.00592     4.35535
      H   16    0.10512      0.00000     0.39353    0.00135     0.39488
      H   17    0.09901      0.00000     0.39984    0.00115     0.40099
      H   18    0.10108      0.00000     0.39791    0.00101     0.39892
      H   19    0.09802      0.00000     0.40086    0.00112     0.40198
      H   20    0.09364      0.00000     0.40543    0.00093     0.40636
      H   21    0.09788      0.00000     0.40074    0.00138     0.40212
      H   22    0.10436      0.00000     0.39352    0.00212     0.39564
      H   23    0.09624      0.00000     0.40242    0.00134     0.40376
      H   24    0.10237      0.00000     0.39641    0.00122     0.39763
      H   25    0.10075      0.00000     0.39788    0.00137     0.39925
      H   26    0.09521      0.00000     0.40282    0.00197     0.40479
      H   27    0.11483      0.00000     0.38342    0.00174     0.38517
      H   28    0.12559      0.00000     0.37325    0.00117     0.37441
      H   29    0.10596      0.00000     0.39198    0.00206     0.39404
      H   30    0.24427      0.00000     0.25007    0.00566     0.25573
 =======================================================================
   * Total *    0.00000     14.99466    40.80833    0.19701    56.00000

 Normal termination of Gaussian 16 at Thu Dec 10 15:30:22 2020.
