 Gaussian 16, Revision A.03,

 -----------------------------------------------------------
 # opt freq B3LYP/6-31G(d) empiricaldispersion=gd3bj scf=xqc
 -----------------------------------------------------------

 --------------------------------
 CID_116986002_JID_10345_neutraal
 --------------------------------
 Symbolic Z-matrix:
 Charge =  0 Multiplicity = 1

 SCF Done:  E(RB3LYP) =  -823.552813365     A.U. after   14 cycles
 SCF Done:  E(RB3LYP) =  -823.561317021     A.U. after   12 cycles
 SCF Done:  E(RB3LYP) =  -823.562376451     A.U. after   12 cycles
 SCF Done:  E(RB3LYP) =  -823.563438029     A.U. after   13 cycles
 SCF Done:  E(RB3LYP) =  -823.563427437     A.U. after   12 cycles
 SCF Done:  E(RB3LYP) =  -823.564080429     A.U. after   12 cycles
 SCF Done:  E(RB3LYP) =  -823.564036467     A.U. after   12 cycles
 SCF Done:  E(RB3LYP) =  -823.564639756     A.U. after   12 cycles
 SCF Done:  E(RB3LYP) =  -823.564711817     A.U. after   11 cycles
 SCF Done:  E(RB3LYP) =  -823.564994757     A.U. after   11 cycles
 SCF Done:  E(RB3LYP) =  -823.565371355     A.U. after   11 cycles
 SCF Done:  E(RB3LYP) =  -823.565374104     A.U. after    9 cycles
 SCF Done:  E(RB3LYP) =  -823.565375791     A.U. after    9 cycles
 SCF Done:  E(RB3LYP) =  -823.565375932     A.U. after    7 cycles
 SCF Done:  E(RB3LYP) =  -823.565375894     A.U. after    6 cycles
 Optimization completed.
    -- Stationary point found.
 Normal termination of Gaussian 16 at Mon Dec 14 14:00:39 2020.

 --------------------------------------------------------------------
 #N Geom=AllCheck Guess=TCheck SCRF=Check GenChk RB3LYP/6-31G(d) Freq
 --------------------------------------------------------------------

 Structure from the checkpoint file:  "JID_10345.chk"
 --------------------------------
 CID_116986002_JID_10345_neutraal
 --------------------------------
 Charge =  0 Multiplicity = 1

 SCF Done:  E(RB3LYP) =  -823.565375894     A.U. after    1 cycles

  Exact polarizability: 281.772  16.081 199.190  16.891  -5.737 115.491
 Approx polarizability: 406.358  34.707 357.687  26.960 -14.801 165.978

                      1                      2                      3
                      A                      A                      A
 Frequencies --     24.0668                37.7520                59.9006
 Red. masses --      3.9871                 3.7714                 2.1009
 Frc consts  --      0.0014                 0.0032                 0.0044
 IR Inten    --      0.6188                 0.7075                 0.7646

                      4                      5                      6
                      A                      A                      A
 Frequencies --     62.5674               105.6864               109.4798
 Red. masses --      1.1814                 2.4014                 4.3336
 Frc consts  --      0.0027                 0.0158                 0.0306
 IR Inten    --      0.2724                 1.8073                 0.4808

                      7                      8                      9
                      A                      A                      A
 Frequencies --    117.6859               122.6051               145.3726
 Red. masses --      3.7620                 2.5413                 2.7713
 Frc consts  --      0.0307                 0.0225                 0.0345
 IR Inten    --      0.0135                 0.5608                 0.9468

                     10                     11                     12
                      A                      A                      A
 Frequencies --    199.9049               215.3934               233.8013
 Red. masses --      2.4680                 2.5074                 3.3207
 Frc consts  --      0.0581                 0.0685                 0.1069
 IR Inten    --      0.0672                 1.4829                 0.6493

                     13                     14                     15
                      A                      A                      A
 Frequencies --    250.4173               279.2544               287.1676
 Red. masses --      2.9918                 2.7477                 2.9632
 Frc consts  --      0.1105                 0.1262                 0.1440
 IR Inten    --      1.0352                 1.9659                 1.0000

                     16                     17                     18
                      A                      A                      A
 Frequencies --    300.4676               365.1849               389.3480
 Red. masses --      5.2731                 2.6927                 4.6701
 Frc consts  --      0.2805                 0.2116                 0.4171
 IR Inten    --      2.3907                 5.9372                 2.0379

                     19                     20                     21
                      A                      A                      A
 Frequencies --    423.1045               432.2505               450.5406
 Red. masses --      3.0561                 3.3025                 2.7512
 Frc consts  --      0.3223                 0.3635                 0.3290
 IR Inten    --      1.6315                 2.4375                 3.5592

                     22                     23                     24
                      A                      A                      A
 Frequencies --    462.9289               487.4741               555.5892
 Red. masses --      3.1293                 4.4562                 4.1044
 Frc consts  --      0.3951                 0.6239                 0.7465
 IR Inten    --      1.3624                 2.5608                 1.0878

                     25                     26                     27
                      A                      A                      A
 Frequencies --    565.7638               598.7011               601.7689
 Red. masses --      4.8706                 4.3248                 4.1477
 Frc consts  --      0.9186                 0.9133                 0.8850
 IR Inten    --      7.8266                 4.6975                11.2128

                     28                     29                     30
                      A                      A                      A
 Frequencies --    648.7110               664.7558               671.3161
 Red. masses --      4.4013                 3.0049                 7.0800
 Frc consts  --      1.0913                 0.7823                 1.8799
 IR Inten    --      6.4478                13.8006                 6.4351

                     31                     32                     33
                      A                      A                      A
 Frequencies --    725.2491               761.5123               766.4737
 Red. masses --      1.6859                 4.9005                 5.0897
 Frc consts  --      0.5225                 1.6744                 1.7617
 IR Inten    --    125.9973                 2.7222                 6.1545

                     34                     35                     36
                      A                      A                      A
 Frequencies --    791.8127               806.3994               818.1987
 Red. masses --      4.7855                 1.0747                 1.3725
 Frc consts  --      1.7677                 0.4117                 0.5414
 IR Inten    --      2.2124                12.2745                16.1677

                     37                     38                     39
                      A                      A                      A
 Frequencies --    822.7840               829.5040               878.5108
 Red. masses --      2.3029                 2.0854                 3.0368
 Frc consts  --      0.9185                 0.8454                 1.3809
 IR Inten    --     22.5857                11.3567                48.4013

                     40                     41                     42
                      A                      A                      A
 Frequencies --    895.5812               907.9159               919.8166
 Red. masses --      3.0832                 1.5617                 2.0058
 Frc consts  --      1.4570                 0.7585                 0.9999
 IR Inten    --      4.5429                 3.0538                13.6089

                     43                     44                     45
                      A                      A                      A
 Frequencies --    936.7699               942.0759               954.1863
 Red. masses --      1.3500                 1.3013                 1.4530
 Frc consts  --      0.6980                 0.6805                 0.7794
 IR Inten    --      0.6306                 0.3925                 3.3440

                     46                     47                     48
                      A                      A                      A
 Frequencies --    965.3854               965.7479               993.0179
 Red. masses --      2.6754                 1.4651                 2.6631
 Frc consts  --      1.4691                 0.8051                 1.5472
 IR Inten    --      4.4041                 0.2897                 2.9930

                     49                     50                     51
                      A                      A                      A
 Frequencies --   1022.2017              1035.5255              1062.8598
 Red. masses --      1.5411                 3.5193                 1.3655
 Frc consts  --      0.9488                 2.2235                 0.9088
 IR Inten    --      5.4373                 6.4331                10.8646

                     52                     53                     54
                      A                      A                      A
 Frequencies --   1073.1256              1089.0433              1103.6824
 Red. masses --      2.1884                 1.3975                 3.3441
 Frc consts  --      1.4849                 0.9765                 2.4000
 IR Inten    --      9.6138                 0.4198                 9.0020

                     55                     56                     57
                      A                      A                      A
 Frequencies --   1130.0349              1149.9399              1159.2013
 Red. masses --      2.1470                 2.2278                 1.3002
 Frc consts  --      1.6154                 1.7357                 1.0294
 IR Inten    --      5.6928                12.6375                 6.4276

                     58                     59                     60
                      A                      A                      A
 Frequencies --   1162.2602              1167.7321              1180.1798
 Red. masses --      1.7712                 1.4761                 1.3872
 Frc consts  --      1.4097                 1.1859                 1.1384
 IR Inten    --     27.8029                18.2037                 9.3022

                     61                     62                     63
                      A                      A                      A
 Frequencies --   1199.7006              1211.3050              1223.3434
 Red. masses --      1.3813                 1.8094                 1.7317
 Frc consts  --      1.1714                 1.5642                 1.5269
 IR Inten    --      4.6799                15.5966                16.6931

                     64                     65                     66
                      A                      A                      A
 Frequencies --   1255.8623              1278.2814              1292.0135
 Red. masses --      3.3159                 2.2144                 3.1101
 Frc consts  --      3.0813                 2.1318                 3.0588
 IR Inten    --     11.4752                44.3878                 5.9602

                     67                     68                     69
                      A                      A                      A
 Frequencies --   1312.2312              1326.0621              1346.1291
 Red. masses --      1.8105                 1.7117                 3.2734
 Frc consts  --      1.8368                 1.7733                 3.4948
 IR Inten    --     39.3140                26.1040                13.2261

                     70                     71                     72
                      A                      A                      A
 Frequencies --   1369.4227              1375.2935              1396.0405
 Red. masses --      1.6157                 2.2060                 2.7653
 Frc consts  --      1.7852                 2.4583                 3.1753
 IR Inten    --      9.4411                13.1777                23.1941

                     73                     74                     75
                      A                      A                      A
 Frequencies --   1414.9877              1418.1623              1469.0178
 Red. masses --      1.9148                 2.7886                 2.9923
 Frc consts  --      2.2588                 3.3043                 3.8046
 IR Inten    --     20.6687                24.1989                 3.6829

                     76                     77                     78
                      A                      A                      A
 Frequencies --   1480.7888              1482.1283              1490.5440
 Red. masses --      1.2570                 1.2647                 1.0930
 Frc consts  --      1.6239                 1.6368                 1.4307
 IR Inten    --     13.0504                 8.6821                 2.2460

                     79                     80                     81
                      A                      A                      A
 Frequencies --   1496.9163              1510.0815              1510.7633
 Red. masses --      2.5367                 1.1287                 1.2557
 Frc consts  --      3.3489                 1.5165                 1.6886
 IR Inten    --      5.4444                 6.7491                10.5736

                     82                     83                     84
                      A                      A                      A
 Frequencies --   1515.0827              1520.3853              1526.5301
 Red. masses --      1.1355                 1.0780                 1.8069
 Frc consts  --      1.5358                 1.4682                 2.4808
 IR Inten    --     28.1898                 6.1779                26.4079

                     85                     86                     87
                      A                      A                      A
 Frequencies --   1531.3953              1534.1691              1544.9859
 Red. masses --      1.4101                 2.5277                 1.4213
 Frc consts  --      1.9484                 3.5052                 1.9988
 IR Inten    --     31.0954                42.5511                30.3557

                     88                     89                     90
                      A                      A                      A
 Frequencies --   1553.6020              1617.9968              1630.7016
 Red. masses --      1.0497                 6.1233                 6.3383
 Frc consts  --      1.4927                 9.4448                 9.9306
 IR Inten    --      5.7764                12.4029                11.9975

                     91                     92                     93
                      A                      A                      A
 Frequencies --   1653.2017              1682.3810              3012.9870
 Red. masses --      6.8689                 6.9144                 1.0597
 Frc consts  --     11.0609                11.5306                 5.6680
 IR Inten    --     86.0126                13.4472               105.5947

                     94                     95                     96
                      A                      A                      A
 Frequencies --   3020.2293              3046.5751              3070.2861
 Red. masses --      1.0474                 1.0406                 1.0980
 Frc consts  --      5.6292                 5.6905                 6.0981
 IR Inten    --     13.9993                62.3429                28.4298

                     97                     98                     99
                      A                      A                      A
 Frequencies --   3078.1796              3110.0306              3110.3222
 Red. masses --      1.0933                 1.1027                 1.0994
 Frc consts  --      6.1035                 6.2839                 6.2665
 IR Inten    --     58.3294                29.9636                19.5175

                    100                    101                    102
                      A                      A                      A
 Frequencies --   3142.0051              3145.4055              3159.9139
 Red. masses --      1.0509                 1.0586                 1.1008
 Frc consts  --      6.1125                 6.1704                 6.4761
 IR Inten    --     15.6380                16.1012                 8.3718

                    103                    104                    105
                      A                      A                      A
 Frequencies --   3165.0338              3175.5059              3187.7689
 Red. masses --      1.0896                 1.0894                 1.0873
 Frc consts  --      6.4306                 6.4724                 6.5101
 IR Inten    --     21.8704                25.7472                 7.8499

                    106                    107                    108
                      A                      A                      A
 Frequencies --   3196.5611              3207.9902              3212.3189
 Red. masses --      1.0902                 1.0939                 1.0934
 Frc consts  --      6.5633                 6.6328                 6.6476
 IR Inten    --     11.5019                15.0996                23.3224

                    109                    110                    111
                      A                      A                      A
 Frequencies --   3218.7258              3231.3414              3501.9202
 Red. masses --      1.1185                 1.1159                 1.0736
 Frc consts  --      6.8275                 6.8648                 7.7571
 IR Inten    --      0.0125                27.3110                 0.7880

 - Thermochemistry -
 -------------------
 Temperature   298.150 Kelvin.  Pressure   1.00000 Atm.
 Atom     1 has atomic number  6 and mass  12.00000

 Molecular mass:   265.15790 amu.
 Principal axes and moments of inertia in atomic units:
                           1         2         3
     Eigenvalues --  2802.792008891.424349765.37920
           X            0.99989  -0.01482   0.00188
           Y            0.01484   0.99983  -0.01093
           Z           -0.00172   0.01095   0.99994
 This molecule is an asymmetric top.
 Rotational symmetry number  1.
 Warning -- assumption of classical behavior for rotation
           may cause significant error
 Rotational temperatures (Kelvin)      0.03090     0.00974     0.00887
 Rotational constants (GHZ):           0.64391     0.20298     0.18481
 Zero-point vibrational energy     867581.5 (Joules/Mol)
                                  207.35695 (Kcal/Mol)
 Warning -- explicit consideration of  27 degrees of freedom as
           vibrations may cause significant error
 Vibrational temperatures:     34.63    54.32    86.18    90.02   152.06
          (Kelvin)            157.52   169.32   176.40   209.16   287.62
                              309.90   336.39   360.29   401.78   413.17
                              432.31   525.42   560.18   608.75   621.91
                              648.23   666.05   701.37   799.37   814.01
                              861.40   865.81   933.35   956.44   965.87
                             1043.47  1095.65  1102.78  1139.24  1160.23
                             1177.21  1183.80  1193.47  1263.98  1288.54
                             1306.29  1323.41  1347.80  1355.44  1372.86
                             1388.97  1389.50  1428.73  1470.72  1489.89
                             1529.22  1543.99  1566.89  1587.95  1625.87
                             1654.51  1667.83  1672.23  1680.11  1698.02
                             1726.10  1742.80  1760.12  1806.91  1839.16
                             1858.92  1888.01  1907.91  1936.78  1970.29
                             1978.74  2008.59  2035.85  2040.42  2113.59
                             2130.52  2132.45  2144.56  2153.73  2172.67
                             2173.65  2179.87  2187.50  2196.34  2203.34
                             2207.33  2222.89  2235.29  2327.94  2346.22
                             2378.59  2420.57  4335.02  4345.44  4383.34
                             4417.46  4428.81  4474.64  4475.06  4520.64
                             4525.54  4546.41  4553.78  4568.84  4586.49
                             4599.14  4615.58  4621.81  4631.03  4649.18
                             5038.48

 Zero-point correction=                           0.330444 (Hartree/Particle)
 Thermal correction to Energy=                    0.348239
 Thermal correction to Enthalpy=                  0.349183
 Thermal correction to Gibbs Free Energy=         0.283619
 Sum of electronic and zero-point Energies=           -823.234932
 Sum of electronic and thermal Energies=              -823.217137
 Sum of electronic and thermal Enthalpies=            -823.216193
 Sum of electronic and thermal Free Energies=         -823.281757

                     E (Thermal)             CV                S
                      KCal/Mol        Cal/Mol-Kelvin    Cal/Mol-Kelvin
 Total                  218.523             69.043            137.992
 Electronic               0.000              0.000              0.000
 Translational            0.889              2.981             42.625
 Rotational               0.889              2.981             33.853
 Vibrational            216.746             63.081             61.515
 Vibration     1          0.593              1.985              6.267
 Vibration     2          0.594              1.982              5.374
 Vibration     3          0.597              1.973              4.460
 Vibration     4          0.597              1.972              4.375
 Vibration     5          0.605              1.945              3.347
 Vibration     6          0.606              1.942              3.278
 Vibration     7          0.608              1.935              3.138
 Vibration     8          0.610              1.930              3.059
 Vibration     9          0.617              1.908              2.732
 Vibration    10          0.638              1.840              2.134
 Vibration    11          0.645              1.818              1.997
 Vibration    12          0.654              1.789              1.850
 Vibration    13          0.663              1.762              1.728
 Vibration    14          0.680              1.712              1.538
 Vibration    15          0.684              1.698              1.491
 Vibration    16          0.693              1.673              1.414
 Vibration    17          0.738              1.544              1.100
 Vibration    18          0.757              1.493              1.003
 Vibration    19          0.785              1.420              0.881
 Vibration    20          0.793              1.400              0.851
 Vibration    21          0.809              1.360              0.794
 Vibration    22          0.821              1.332              0.758
 Vibration    23          0.843              1.278              0.690
 Vibration    24          0.911              1.127              0.533
 Vibration    25          0.922              1.105              0.512
 Vibration    26          0.957              1.035              0.452
 Vibration    27          0.960              1.028              0.447

 Optimization completed.
    -- Stationary point found.
 Normal termination of Gaussian 16 at Mon Dec 14 14:21:02 2020.

 ----------------------------------------------------------------------
 # B3LYP/6-311++G(d,p) empiricaldispersion=gd3bj scf=xqc pop=npa geom=c
 heck
 ----------------------------------------------------------------------

 ----------------------------------------
 CID_116986002_JID_10345_Energie_neutraal
 ----------------------------------------
 Structure from the checkpoint file:  "JID_10345.chk"
 Charge =  0 Multiplicity = 1

 SCF Done:  E(RB3LYP) =  -823.774940919     A.U. after   15 cycles
 Normal termination of Gaussian 16 at Mon Dec 14 14:28:52 2020.

 ----------------------------------------------------------------------
 # B3LYP/6-311++G(d,p) empiricaldispersion=gd3bj scf=xqc pop=npa geom=c
 heck
 ----------------------------------------------------------------------

 --------------------------------------
 CID_116986002_JID_10345_Energie_kation
 --------------------------------------
 Structure from the checkpoint file:  "JID_10345.chk"
 Charge =  1 Multiplicity = 2

 SCF Done:  E(UB3LYP) =  -823.509457720     A.U. after   25 cycles
 Normal termination of Gaussian 16 at Mon Dec 14 14:47:02 2020.
 Gaussian 16:  ES64L-G16RevA.03 25-Dec-2016

 ----------------------------------------------------------------------
 # B3LYP/6-311++G(d,p) empiricaldispersion=gd3bj scf=xqc pop=npa geom=c
 heck
 ----------------------------------------------------------------------

 -------------------------------------
 CID_116986002_JID_10345_Energie_anion
 -------------------------------------
 Structure from the checkpoint file:  "JID_10345.chk"
 Charge = -1 Multiplicity = 2

                         Standard orientation:
 ---------------------------------------------------------------------
 Center     Atomic      Atomic             Coordinates (Angstroms)
 Number     Number       Type             X           Y           Z
 ---------------------------------------------------------------------
      1          6           0        2.435918   -0.426912   -2.641513
      2          7           0        3.476203   -0.980031   -1.777980
      3          6           0        3.946439   -0.117292   -0.700932
      4          6           0        3.134095   -0.130409    0.599926
      5          6           0        3.468109   -1.221295    1.592106
      6          6           0        3.892149    0.201554    1.866050
      7          6           0        1.709318    0.325137    0.482179
      8          6           0        0.656960   -0.591208    0.457498
      9          6           0       -0.652071   -0.140651    0.269276
     10          6           0       -0.896800    1.247151    0.102503
     11          6           0        0.140668    2.179920    0.137961
     12          6           0        1.433029    1.699039    0.327559
     13          7           0       -2.264176    1.451916   -0.080732
     14          6           0       -2.908048    0.230201   -0.015917
     15          6           0       -1.943230   -0.792084    0.193191
     16          6           0       -2.391568   -2.110981    0.276456
     17          7           0       -3.680143   -2.447307    0.172558
     18          6           0       -4.572031   -1.456104   -0.020157
     19          6           0       -4.259501   -0.102252   -0.121861
     20          6           0       -2.890771    2.744791   -0.244419
     21          1           0        2.820674    0.482960   -3.117144
     22          1           0        1.488623   -0.171153   -2.144315
     23          1           0        2.221243   -1.147049   -3.438889
     24          1           0        3.177152   -1.873522   -1.393475
     25          1           0        4.977400   -0.405234   -0.448296
     26          1           0        3.996298    0.906486   -1.093209
     27          1           0        2.665425   -1.632735    2.196753
     28          1           0        4.236762   -1.940609    1.320101
     29          1           0        4.947041    0.450414    1.779878
     30          1           0        3.363241    0.746134    2.642725
     31          1           0        0.862766   -1.651227    0.574267
     32          1           0       -0.046300    3.243755    0.029897
     33          1           0        2.261414    2.401503    0.360746
     34          1           0       -1.688874   -2.928034    0.434349
     35          1           0       -5.611447   -1.769335   -0.096019
     36          1           0       -5.039034    0.637765   -0.269926
     37          1           0       -3.892182    2.611434   -0.657464
     38          1           0       -2.968913    3.282033    0.709121
     39          1           0       -2.310482    3.352739   -0.945468
 ---------------------------------------------------------------------

 SCF Done:  E(UB3LYP) =  -823.773490747     A.U. after   33 cycles
 SCF Done:  E(UB3LYP) =  -823.773490747     a.u. after    1 cycles

 The electronic state is 2-A.
 Alpha  occ. eigenvalues --  -14.24264 -14.20072 -14.17276 -10.10407 -10.10064
 Alpha  occ. eigenvalues --  -10.09542 -10.08782 -10.08759 -10.08386 -10.07970
 Alpha  occ. eigenvalues --  -10.07944 -10.06654 -10.06587 -10.05622 -10.04860
 Alpha  occ. eigenvalues --  -10.04821 -10.04586 -10.04431 -10.04313 -10.04228
 Alpha  occ. eigenvalues --   -0.87360  -0.80999  -0.80212  -0.76929  -0.72674
 Alpha  occ. eigenvalues --   -0.68732  -0.65362  -0.63270  -0.61484  -0.60422
 Alpha  occ. eigenvalues --   -0.59094  -0.54382  -0.52324  -0.51201  -0.50858
 Alpha  occ. eigenvalues --   -0.47532  -0.46584  -0.44904  -0.41659  -0.40720
 Alpha  occ. eigenvalues --   -0.40161  -0.38416  -0.36611  -0.35930  -0.35010
 Alpha  occ. eigenvalues --   -0.34743  -0.34374  -0.33078  -0.32139  -0.31625
 Alpha  occ. eigenvalues --   -0.31325  -0.30316  -0.29416  -0.29092  -0.28027
 Alpha  occ. eigenvalues --   -0.27663  -0.27349  -0.27169  -0.25191  -0.24783
 Alpha  occ. eigenvalues --   -0.23211  -0.22657  -0.21851  -0.20090  -0.18928
 Alpha  occ. eigenvalues --   -0.16770  -0.14868  -0.12978  -0.12495  -0.10485
 Alpha  occ. eigenvalues --   -0.09228   0.04480
 Alpha virt. eigenvalues --    0.06490   0.06933   0.07963   0.08394   0.08864
 Alpha virt. eigenvalues --    0.09276   0.09958   0.10095   0.10539   0.10778
 Alpha virt. eigenvalues --    0.10941   0.11165   0.11575   0.12384   0.12608

  Beta  occ. eigenvalues --  -14.24253 -14.20069 -14.17365 -10.10369 -10.10067
  Beta  occ. eigenvalues --  -10.09554 -10.08777 -10.08777 -10.08383 -10.07970
  Beta  occ. eigenvalues --  -10.07943 -10.06460 -10.06361 -10.05697 -10.04783
  Beta  occ. eigenvalues --  -10.04721 -10.04483 -10.04370 -10.04124 -10.04016
  Beta  occ. eigenvalues --   -0.87313  -0.80994  -0.80079  -0.76917  -0.72457
  Beta  occ. eigenvalues --   -0.68562  -0.65147  -0.63020  -0.61453  -0.60078
  Beta  occ. eigenvalues --   -0.58996  -0.54344  -0.52002  -0.51128  -0.50785
  Beta  occ. eigenvalues --   -0.47372  -0.46322  -0.44849  -0.41612  -0.40550
  Beta  occ. eigenvalues --   -0.40065  -0.38364  -0.36604  -0.35839  -0.34945
  Beta  occ. eigenvalues --   -0.34616  -0.34284  -0.32968  -0.32098  -0.31512
  Beta  occ. eigenvalues --   -0.31205  -0.30257  -0.29286  -0.28723  -0.28004
  Beta  occ. eigenvalues --   -0.27638  -0.27341  -0.27159  -0.24785  -0.24568
  Beta  occ. eigenvalues --   -0.23119  -0.22560  -0.21584  -0.19896  -0.18885
  Beta  occ. eigenvalues --   -0.15729  -0.14396  -0.13020  -0.12374  -0.09526
  Beta  occ. eigenvalues --   -0.08691
  Beta virt. eigenvalues --    0.06773   0.07185   0.07918   0.08301   0.08751
  Beta virt. eigenvalues --    0.08953   0.09285   0.09995   0.10251   0.10789
  Beta virt. eigenvalues --    0.10941   0.11019   0.11238   0.11649   0.12432

 Mulliken charges and spin densities:
               1          2
     1  C   -0.378468  -0.075276
     2  N   -0.093615   0.015325
     3  C   -0.652244  -0.018340
     4  C    0.570404  -0.096046
     5  C   -0.241762  -0.013023
     6  C   -0.518320  -0.026079
     7  C    0.694443  -0.038646
     8  C   -1.045887   0.253819
     9  C    0.233122   0.229151
    10  C   -0.353644   0.266416
    11  C   -0.324730  -0.279729
    12  C   -0.621410  -0.124587
    13  N    0.049369   0.123026
    14  C    0.140343   0.319008
    15  C    0.158442   0.241278
    16  C   -0.607460   0.299820
    17  N   -0.058592  -0.049711
    18  C   -0.237901  -0.073980
    19  C    0.315369  -0.421328
    20  C    0.716422  -1.058552
    21  H    0.100962   0.025613
    22  H    0.183631   0.015956
    23  H    0.108173   0.024034
    24  H    0.188374   0.014203
    25  H    0.156139  -0.001665
    26  H    0.149300  -0.004328
    27  H    0.138229   0.004647
    28  H    0.131946   0.000763
    29  H    0.115110   0.004205
    30  H    0.147643   0.000045
    31  H    0.165229  -0.006675
    32  H   -0.045771   0.172550
    33  H    0.094283   0.026280
    34  H    0.155913  -0.008437
    35  H    0.121162   0.011815
    36  H    0.031787   0.087037
    37  H   -0.427288   0.570935
    38  H    0.111506   0.060332
    39  H   -0.370208   0.530144
 Sum of Mulliken charges =  -1.00000   1.00000

 Dipole moment (field-independent basis, Debye):
    X=              6.5754    Y=              0.0946    Z=              1.8281  Tot=              6.8254
 Quadrupole moment (field-independent basis, Debye-Ang):
   XX=           -183.2946   YY=           -158.6421   ZZ=           -142.7184
   XY=             -5.6237   XZ=              0.0128   YZ=              5.2010

 Summary of Natural Population Analysis:

                                       Natural Population
                Natural  -----------------------------------------------
    Atom  No    Charge         Core      Valence    Rydberg      Total
 -----------------------------------------------------------------------
      C    1   -0.17899      0.99966     2.17184    0.00749     3.17899
      N    2   -0.34432      0.99976     2.83215    0.01241     3.84432
      C    3   -0.07489      0.99957     2.06442    0.01090     3.07489
      C    4   -0.05022      0.99951     2.03779    0.01293     3.05022
      C    5   -0.19759      0.99960     2.19143    0.00656     3.19759
      C    6   -0.19437      0.99960     2.18842    0.00635     3.19437
      C    7   -0.05308      0.99948     2.04162    0.01198     3.05308
      C    8   -0.05493      0.99948     2.04708    0.00837     3.05493
      C    9   -0.02461      0.99948     2.01533    0.00980     3.02461
      C   10    0.09520      0.99947     1.89418    0.01115     2.90480
      C   11   -0.11249      0.99953     2.10376    0.00921     3.11249
      C   12   -0.05986      0.99953     2.05113    0.00920     3.05986
      N   13   -0.21582      0.99958     2.70747    0.00877     3.71582
      C   14    0.10993      0.99947     1.87961    0.01099     2.89007
      C   15   -0.05566      0.99947     2.04574    0.01045     3.05566
      C   16    0.07973      0.99955     1.90835    0.01236     2.92027
      N   17   -0.26764      0.99972     2.75701    0.01091     3.76764
      C   18    0.05308      0.99961     1.93224    0.01507     2.94692
      C   19   -0.14597      0.99952     2.13677    0.00967     3.14597
      C   20   -0.17261      0.99965     2.16517    0.00779     3.17261
      H   21    0.08677      0.00000     0.41222    0.00101     0.41323
      H   22    0.09532      0.00000     0.40324    0.00144     0.40468
      H   23    0.08888      0.00000     0.41017    0.00096     0.41112
      H   24    0.17014      0.00000     0.32683    0.00302     0.32986
      H   25    0.08557      0.00000     0.41333    0.00110     0.41443
      H   26    0.09411      0.00000     0.40489    0.00100     0.40589
      H   27    0.10632      0.00000     0.39281    0.00087     0.39368
      H   28    0.09638      0.00000     0.40262    0.00100     0.40362
      H   29    0.09536      0.00000     0.40356    0.00108     0.40464
      H   30    0.10595      0.00000     0.39320    0.00085     0.39405
      H   31    0.09511      0.00000     0.40371    0.00118     0.40489
      H   32    0.09909      0.00000     0.39993    0.00098     0.40091
      H   33    0.09046      0.00000     0.40803    0.00151     0.40954
      H   34    0.08136      0.00000     0.41730    0.00134     0.41864
      H   35    0.07921      0.00000     0.41927    0.00152     0.42079
      H   36    0.09971      0.00000     0.39918    0.00111     0.40029
      H   37    0.10264      0.00000     0.39623    0.00113     0.39736
      H   38    0.09104      0.00000     0.40806    0.00090     0.40896
      H   39    0.10169      0.00000     0.39662    0.00169     0.39831
 =======================================================================
   * Total *    0.00000     19.99124    50.78272    0.22604    71.00000

 Normal termination of Gaussian 16 at Mon Dec 14 15:11:23 2020.
