 Gaussian 16, Revision A.03,

 -----------------------------------------------------------
 # opt freq B3LYP/6-31G(d) empiricaldispersion=gd3bj scf=xqc
 -----------------------------------------------------------

 ------------------------------
 CID_66614442_JID_1806_neutraal
 ------------------------------
 Symbolic Z-matrix:
 Charge =  0 Multiplicity = 1

 SCF Done:  E(RB3LYP) =  -547.548979443     A.U. after   14 cycles
 SCF Done:  E(RB3LYP) =  -547.552012593     A.U. after   13 cycles
 SCF Done:  E(RB3LYP) =  -547.552038481     A.U. after   12 cycles
 SCF Done:  E(RB3LYP) =  -547.552337026     A.U. after   13 cycles
 SCF Done:  E(RB3LYP) =  -547.552470540     A.U. after   11 cycles
 SCF Done:  E(RB3LYP) =  -547.552516298     A.U. after   12 cycles
 SCF Done:  E(RB3LYP) =  -547.552522736     A.U. after    9 cycles
 SCF Done:  E(RB3LYP) =  -547.552523987     A.U. after    9 cycles
 SCF Done:  E(RB3LYP) =  -547.552524617     A.U. after    9 cycles
 SCF Done:  E(RB3LYP) =  -547.552525127     A.U. after    9 cycles
 SCF Done:  E(RB3LYP) =  -547.557244106     A.U. after   13 cycles
 SCF Done:  E(RB3LYP) =  -547.557283876     A.U. after   12 cycles
 SCF Done:  E(RB3LYP) =  -547.557305068     A.U. after   12 cycles
 SCF Done:  E(RB3LYP) =  -547.557307718     A.U. after   10 cycles
 SCF Done:  E(RB3LYP) =  -547.557309527     A.U. after   10 cycles
 SCF Done:  E(RB3LYP) =  -547.557309625     A.U. after    8 cycles
 Optimization completed.
    -- Stationary point found.
 Normal termination of Gaussian 16 at Tue Dec  8 21:35:18 2020.

 --------------------------------------------------------------------
 #N Geom=AllCheck Guess=TCheck SCRF=Check GenChk RB3LYP/6-31G(d) Freq
 --------------------------------------------------------------------

 Structure from the checkpoint file:  "JID_1806.chk"
 ------------------------------
 CID_66614442_JID_1806_neutraal
 ------------------------------
 Charge =  0 Multiplicity = 1

 SCF Done:  E(RB3LYP) =  -547.557309625     A.U. after    1 cycles

  Exact polarizability:  94.686  -8.778  78.323  10.870   4.805  65.508
 Approx polarizability: 132.497 -17.550 142.456  22.237  23.455 111.101

                      1                      2                      3
                      A                      A                      A
 Frequencies --     24.6967                44.7047                77.9564
 Red. masses --      8.6186                 7.0600                 7.8953
 Frc consts  --      0.0031                 0.0083                 0.0283
 IR Inten    --      2.8335                 1.0820                 2.8009

                      4                      5                      6
                      A                      A                      A
 Frequencies --    153.2556               197.9502               275.9116
 Red. masses --      2.9314                 4.5845                 4.0457
 Frc consts  --      0.0406                 0.1058                 0.1815
 IR Inten    --      1.6015                 0.5857                 4.8043

                      7                      8                      9
                      A                      A                      A
 Frequencies --    355.3825               385.9535               440.0710
 Red. masses --      2.2350                 5.9928                 5.6786
 Frc consts  --      0.1663                 0.5260                 0.6479
 IR Inten    --      1.2452                 7.8051                29.2119

                     10                     11                     12
                      A                      A                      A
 Frequencies --    514.2040               539.0078               603.7214
 Red. masses --      1.6927                 3.7940                 4.2365
 Frc consts  --      0.2637                 0.6494                 0.9098
 IR Inten    --     16.5915                11.3328                12.1158

                     13                     14                     15
                      A                      A                      A
 Frequencies --    639.2717               651.7222               690.1432
 Red. masses --      3.0713                 6.2784                 1.6736
 Frc consts  --      0.7395                 1.5712                 0.4697
 IR Inten    --     18.0534                 7.3505                93.2957

                     16                     17                     18
                      A                      A                      A
 Frequencies --    790.3877               814.7096               835.8442
 Red. masses --      3.0503                 2.9439                 5.3286
 Frc consts  --      1.1227                 1.1513                 2.1934
 IR Inten    --     10.9485                 7.5678                 0.8532

                     19                     20                     21
                      A                      A                      A
 Frequencies --    915.3780               965.4361               988.4670
 Red. masses --      1.5818                 2.1690                 2.0356
 Frc consts  --      0.7809                 1.1911                 1.1718
 IR Inten    --      7.7128                 4.6728                10.5441

                     22                     23                     24
                      A                      A                      A
 Frequencies --    997.0052              1055.0443              1071.3795
 Red. masses --      1.5568                 2.7322                 6.2233
 Frc consts  --      0.9118                 1.7919                 4.2088
 IR Inten    --      0.8690                 7.7043                16.6537

                     25                     26                     27
                      A                      A                      A
 Frequencies --   1107.9477              1156.8441              1176.2248
 Red. masses --      6.1005                 2.5056                 3.1822
 Frc consts  --      4.4122                 1.9757                 2.5940
 IR Inten    --      4.3705                83.7779               143.7283

                     28                     29                     30
                      A                      A                      A
 Frequencies --   1203.5218              1242.9519              1260.4433
 Red. masses --      1.7181                 1.6322                 1.4384
 Frc consts  --      1.4663                 1.4857                 1.3464
 IR Inten    --     80.0521                 7.3708                15.8257

                     31                     32                     33
                      A                      A                      A
 Frequencies --   1302.1280              1334.1948              1391.0671
 Red. masses --      1.7337                 1.4884                 1.4465
 Frc consts  --      1.7319                 1.5610                 1.6492
 IR Inten    --     22.1756                 7.6696                 0.7369

                     34                     35                     36
                      A                      A                      A
 Frequencies --   1423.9251              1437.3957              1460.8783
 Red. masses --      2.6363                 2.2480                 1.7800
 Frc consts  --      3.1493                 2.7366                 2.2382
 IR Inten    --     36.6291                72.7573                 8.9919

                     37                     38                     39
                      A                      A                      A
 Frequencies --   1488.4424              1505.6619              1567.7501
 Red. masses --      1.1107                 1.1233                 8.2685
 Frc consts  --      1.4498                 1.5003                11.9738
 IR Inten    --     22.7740                 9.8133                17.2539

                     40                     41                     42
                      A                      A                      A
 Frequencies --   1621.6575              1837.3358              3067.8749
 Red. masses --      4.7785                 9.5494                 1.0630
 Frc consts  --      7.4039                18.9934                 5.8948
 IR Inten    --      1.5017               230.6655                11.4435

                     43                     44                     45
                      A                      A                      A
 Frequencies --   3082.1986              3110.1263              3131.4210
 Red. masses --      1.0604                 1.0999                 1.1043
 Frc consts  --      5.9355                 6.2683                 6.3801
 IR Inten    --     11.7590                 4.2844                 7.0895

                     46                     47                     48
                      A                      A                      A
 Frequencies --   3202.9860              3211.7033              3684.0727
 Red. masses --      1.0918                 1.0929                 1.0640
 Frc consts  --      6.5993                 6.6421                 8.5085
 IR Inten    --     14.0817                13.7573                50.8305

 - Thermochemistry -
 -------------------
 Temperature   298.150 Kelvin.  Pressure   1.00000 Atm.
 Atom     1 has atomic number  6 and mass  12.00000

 Molecular mass:   153.05383 amu.
 Principal axes and moments of inertia in atomic units:
                           1         2         3
     Eigenvalues --   790.101962614.767412809.52143
           X            0.99989  -0.01415   0.00356
           Y            0.01437   0.99723  -0.07304
           Z           -0.00252   0.07308   0.99732
 This molecule is an asymmetric top.
 Rotational symmetry number  1.
 Warning -- assumption of classical behavior for rotation
           may cause significant error
 Rotational temperatures (Kelvin)      0.10962     0.03312     0.03083
 Rotational constants (GHZ):           2.28419     0.69021     0.64237
 Zero-point vibrational energy     359097.2 (Joules/Mol)
                                   85.82628 (Kcal/Mol)
 Warning -- explicit consideration of  12 degrees of freedom as
           vibrations may cause significant error
 Vibrational temperatures:     35.53    64.32   112.16   220.50   284.81
          (Kelvin)            396.98   511.32   555.30   633.16   739.82
                              775.51   868.62   919.77   937.68   992.96
                             1137.19  1172.19  1202.59  1317.02  1389.05
                             1422.18  1434.47  1517.97  1541.48  1594.09
                             1664.44  1692.33  1731.60  1788.33  1813.50
                             1873.47  1919.61  2001.44  2048.71  2068.09
                             2101.88  2141.54  2166.31  2255.64  2333.20
                             2643.52  4413.99  4434.60  4474.78  4505.42
                             4608.38  4620.92  5300.56

 Zero-point correction=                           0.136773 (Hartree/Particle)
 Thermal correction to Energy=                    0.146303
 Thermal correction to Enthalpy=                  0.147247
 Thermal correction to Gibbs Free Energy=         0.099759
 Sum of electronic and zero-point Energies=           -547.420537
 Sum of electronic and thermal Energies=              -547.411007
 Sum of electronic and thermal Enthalpies=            -547.410063
 Sum of electronic and thermal Free Energies=         -547.457550

                     E (Thermal)             CV                S
                      KCal/Mol        Cal/Mol-Kelvin    Cal/Mol-Kelvin
 Total                   91.806             34.330             99.946
 Electronic               0.000              0.000              0.000
 Translational            0.889              2.981             40.987
 Rotational               0.889              2.981             30.141
 Vibrational             90.029             28.369             28.818
 Vibration     1          0.593              1.985              6.215
 Vibration     2          0.595              1.980              5.039
 Vibration     3          0.599              1.964              3.942
 Vibration     4          0.619              1.899              2.631
 Vibration     5          0.637              1.843              2.152
 Vibration     6          0.678              1.718              1.559
 Vibration     7          0.731              1.564              1.142
 Vibration     8          0.755              1.500              1.016
 Vibration     9          0.800              1.383              0.826
 Vibration    10          0.869              1.219              0.624
 Vibration    11          0.894              1.164              0.567
 Vibration    12          0.962              1.024              0.443

 Optimization completed.
    -- Stationary point found.
 Normal termination of Gaussian 16 at Tue Dec  8 21:39:42 2020.

 ----------------------------------------------------------------------
 # B3LYP/6-311++G(d,p) empiricaldispersion=gd3bj scf=xqc pop=npa geom=c
 heck
 ----------------------------------------------------------------------

 --------------------------------------
 CID_66614442_JID_1806_Energie_neutraal
 --------------------------------------
 Structure from the checkpoint file:  "JID_1806.chk"
 Charge =  0 Multiplicity = 1

 SCF Done:  E(RB3LYP) =  -547.717781939     A.U. after   15 cycles
 Normal termination of Gaussian 16 at Tue Dec  8 21:41:50 2020.

 ----------------------------------------------------------------------
 # B3LYP/6-311++G(d,p) empiricaldispersion=gd3bj scf=xqc pop=npa geom=c
 heck
 ----------------------------------------------------------------------

 ------------------------------------
 CID_66614442_JID_1806_Energie_kation
 ------------------------------------
 Structure from the checkpoint file:  "JID_1806.chk"
 Charge =  1 Multiplicity = 2

 SCF Done:  E(UB3LYP) =  -547.384948471     A.U. after   25 cycles
 Normal termination of Gaussian 16 at Tue Dec  8 21:46:49 2020.
 Gaussian 16:  ES64L-G16RevA.03 25-Dec-2016

 ----------------------------------------------------------------------
 # B3LYP/6-311++G(d,p) empiricaldispersion=gd3bj scf=xqc pop=npa geom=c
 heck
 ----------------------------------------------------------------------

 -----------------------------------
 CID_66614442_JID_1806_Energie_anion
 -----------------------------------
 Structure from the checkpoint file:  "JID_1806.chk"
 Charge = -1 Multiplicity = 2

                         Standard orientation:
 ---------------------------------------------------------------------
 Center     Atomic      Atomic             Coordinates (Angstroms)
 Number     Number       Type             X           Y           Z
 ---------------------------------------------------------------------
      1          6           0       -1.192531    0.829342    0.830744
      2          6           0       -0.707572   -0.455107    0.532732
      3          7           0       -1.329671   -1.220579   -0.369052
      4          7           0       -2.426752   -0.754236   -0.972212
      5          6           0       -2.852574    0.463630   -0.636173
      6          7           0       -2.286571    1.301287    0.246681
      7          6           0        0.531311   -1.036706    1.163175
      8          6           0        1.707320   -1.077764    0.179336
      9          6           0        2.211103    0.304636   -0.167211
     10          8           0        1.825632    1.342208    0.329259
     11          8           0        3.176709    0.262202   -1.112278
     12          1           0       -0.674196    1.471485    1.538051
     13          1           0       -3.752915    0.804209   -1.140542
     14          1           0        0.807636   -0.454144    2.046627
     15          1           0        0.309710   -2.059646    1.482766
     16          1           0        2.546874   -1.646686    0.597265
     17          1           0        1.415686   -1.590589   -0.743862
     18          1           0        3.447099    1.186610   -1.269681
 ---------------------------------------------------------------------

 SCF Done:  E(UB3LYP) =  -547.731176209     A.U. after   28 cycles

 The electronic state is 2-A.
 Alpha  occ. eigenvalues --  -19.06582 -19.00640 -14.16577 -14.15437 -14.14020
 Alpha  occ. eigenvalues --  -10.19779 -10.07314 -10.07056 -10.05348 -10.05177
 Alpha  occ. eigenvalues --  -10.04597  -1.00501  -0.91358  -0.85916  -0.75561
 Alpha  occ. eigenvalues --   -0.69818  -0.65020  -0.57035  -0.51844  -0.50043
 Alpha  occ. eigenvalues --   -0.46147  -0.39479  -0.38286  -0.37317  -0.36363
 Alpha  occ. eigenvalues --   -0.35620  -0.31355  -0.30500  -0.28925  -0.26424
 Alpha  occ. eigenvalues --   -0.25756  -0.25715  -0.24787  -0.22110  -0.17980
 Alpha  occ. eigenvalues --   -0.17611  -0.15469  -0.14236  -0.13049  -0.06347
 Alpha  occ. eigenvalues --    0.04561
 Alpha virt. eigenvalues --    0.06683   0.08414   0.10683   0.10869   0.11425
 Alpha virt. eigenvalues --    0.12054   0.12693   0.13447   0.14557   0.15720
 Alpha virt. eigenvalues --    0.16720   0.17172   0.17727   0.18398   0.18831

  Beta  occ. eigenvalues --  -19.06545 -19.00623 -14.16331 -14.14683 -14.13484
  Beta  occ. eigenvalues --  -10.19778 -10.07298 -10.07122 -10.05349 -10.05217
  Beta  occ. eigenvalues --  -10.04426  -1.00449  -0.91316  -0.85089  -0.74540
  Beta  occ. eigenvalues --   -0.69634  -0.64659  -0.56811  -0.51032  -0.49918
  Beta  occ. eigenvalues --   -0.45976  -0.39404  -0.38200  -0.37236  -0.36129
  Beta  occ. eigenvalues --   -0.35401  -0.31238  -0.30349  -0.28302  -0.25949
  Beta  occ. eigenvalues --   -0.25593  -0.24955  -0.24711  -0.22051  -0.17612
  Beta  occ. eigenvalues --   -0.14955  -0.14762  -0.13520  -0.11781  -0.05660
  Beta virt. eigenvalues --    0.07373   0.08713   0.10678   0.10785   0.11334
  Beta virt. eigenvalues --    0.11939   0.12206   0.13038   0.13353   0.14443
  Beta virt. eigenvalues --    0.15843   0.16715   0.17063   0.17778   0.18425

 Mulliken charges and spin densities:
               1          2
     1  C   -0.435975   0.151719
     2  C    0.051071  -0.055684
     3  N   -0.129693   0.333429
     4  N   -0.144171   0.121197
     5  C   -0.086770  -0.031873
     6  N   -0.159593   0.239058
     7  C   -0.456343   0.060824
     8  C    0.281323  -0.346176
     9  C   -0.044240  -0.142981
    10  O   -0.282170   0.003098
    11  O   -0.171126   0.018886
    12  H    0.143238  -0.013398
    13  H    0.139439  -0.000265
    14  H    0.158410  -0.005130
    15  H    0.141712   0.015931
    16  H   -0.081582   0.243050
    17  H    0.226398  -0.021393
    18  H   -0.149927   0.429706
 Sum of Mulliken charges =  -1.00000   1.00000

 Dipole moment (field-independent basis, Debye):
    X=              3.5585    Y=             -0.5617    Z=              2.0852  Tot=              4.1625
 Quadrupole moment (field-independent basis, Debye-Ang):
   XX=           -102.5528   YY=            -85.4234   ZZ=            -75.2194
   XY=             -4.2488   XZ=              0.8002   YZ=             -5.1137

 Summary of Natural Population Analysis:

                                       Natural Population
                Natural  -----------------------------------------------
    Atom  No    Charge         Core      Valence    Rydberg      Total
 -----------------------------------------------------------------------
      C    1    0.05397      0.99954     1.93327    0.01322     2.94603
      C    2    0.04785      0.99955     1.93418    0.01842     2.95215
      N    3   -0.03801      0.99967     2.51730    0.02104     3.53801
      N    4   -0.12362      0.99974     2.60860    0.01528     3.62362
      C    5    0.09286      0.99968     1.88786    0.01960     2.90714
      N    6   -0.17642      0.99971     2.66435    0.01236     3.67642
      C    7   -0.20285      0.99960     2.18998    0.01326     3.20285
      C    8   -0.23942      0.99957     2.23048    0.00937     3.23942
      C    9    0.40662      0.99973     1.56879    0.02487     2.59338
      O   10   -0.30394      0.99987     3.29780    0.00627     4.30394
      O   11   -0.34775      0.99988     3.34138    0.00650     4.34775
      H   12    0.08400      0.00000     0.41413    0.00186     0.41600
      H   13    0.07354      0.00000     0.42504    0.00142     0.42646
      H   14    0.10061      0.00000     0.39837    0.00102     0.39939
      H   15    0.10479      0.00000     0.39358    0.00162     0.39521
      H   16    0.10753      0.00000     0.39127    0.00120     0.39247
      H   17    0.12082      0.00000     0.37729    0.00189     0.37918
      H   18    0.23943      0.00000     0.25291    0.00766     0.26057
 =======================================================================
   * Total *    0.00000     10.99653    28.82659    0.17688    40.00000

 Normal termination of Gaussian 16 at Tue Dec  8 21:51:11 2020.
