 Gaussian 16, Revision A.03,

 -----------------------------------------------------------
 # opt freq B3LYP/6-31G(d) empiricaldispersion=gd3bj scf=xqc
 -----------------------------------------------------------

 ------------------------------
 CID_69981194_JID_6886_neutraal
 ------------------------------
 Symbolic Z-matrix:
 Charge =  0 Multiplicity = 1

 SCF Done:  E(RB3LYP) =  -1017.82068584     A.U. after   15 cycles
 SCF Done:  E(RB3LYP) =  -1017.82336356     A.U. after   13 cycles
 SCF Done:  E(RB3LYP) =  -1017.82192384     A.U. after   12 cycles
 SCF Done:  E(RB3LYP) =  -1017.82383083     A.U. after   11 cycles
 SCF Done:  E(RB3LYP) =  -1017.82388013     A.U. after   11 cycles
 SCF Done:  E(RB3LYP) =  -1017.82394948     A.U. after   11 cycles
 SCF Done:  E(RB3LYP) =  -1017.82404177     A.U. after   14 cycles
 SCF Done:  E(RB3LYP) =  -1017.82416655     A.U. after   12 cycles
 SCF Done:  E(RB3LYP) =  -1017.82411480     A.U. after   12 cycles
 SCF Done:  E(RB3LYP) =  -1017.82427811     A.U. after   15 cycles
 SCF Done:  E(RB3LYP) =  -1017.82455364     A.U. after    8 cycles
 SCF Done:  E(RB3LYP) =  -1017.82455484     A.U. after   10 cycles
 SCF Done:  E(RB3LYP) =  -1017.82455496     A.U. after    8 cycles
 SCF Done:  E(RB3LYP) =  -1017.82455500     A.U. after    7 cycles
 SCF Done:  E(RB3LYP) =  -1017.82455502     A.U. after    6 cycles
 Optimization completed.
    -- Stationary point found.
 Normal termination of Gaussian 16 at Fri Dec 11 01:08:20 2020.

 --------------------------------------------------------------------
 #N Geom=AllCheck Guess=TCheck SCRF=Check GenChk RB3LYP/6-31G(d) Freq
 --------------------------------------------------------------------

 Structure from the checkpoint file:  "JID_6886.chk"
 ------------------------------
 CID_69981194_JID_6886_neutraal
 ------------------------------
 Charge =  0 Multiplicity = 1

 SCF Done:  E(RB3LYP) =  -1017.82455502     A.U. after    1 cycles

  Exact polarizability: 221.041   1.832 153.272 -13.916  10.334 107.579
 Approx polarizability: 285.144   5.702 269.549 -24.388  20.238 168.128

                      1                      2                      3
                      A                      A                      A
 Frequencies --     16.1009                22.8260                40.8656
 Red. masses --      3.9705                 4.4049                 4.0302
 Frc consts  --      0.0006                 0.0014                 0.0040
 IR Inten    --      0.0058                 0.3934                 0.4340

                      4                      5                      6
                      A                      A                      A
 Frequencies --     46.1485                89.7896               106.1603
 Red. masses --      4.1984                 3.0944                 3.7870
 Frc consts  --      0.0053                 0.0147                 0.0251
 IR Inten    --      1.0441                 2.2125                 0.5033

                      7                      8                      9
                      A                      A                      A
 Frequencies --    162.9516               164.4618               202.0088
 Red. masses --      3.9342                 3.2610                 1.5539
 Frc consts  --      0.0615                 0.0520                 0.0374
 IR Inten    --      1.2332                 1.0629                 0.7938

                     10                     11                     12
                      A                      A                      A
 Frequencies --    232.2935               257.2850               280.5474
 Red. masses --      3.7944                 4.7764                 1.8080
 Frc consts  --      0.1206                 0.1863                 0.0838
 IR Inten    --      3.1406                 0.3592                 0.1310

                     13                     14                     15
                      A                      A                      A
 Frequencies --    293.6365               323.9908               359.8705
 Red. masses --      2.1322                 2.4592                 5.7030
 Frc consts  --      0.1083                 0.1521                 0.4352
 IR Inten    --      0.8496                 5.9666                 4.5193

                     16                     17                     18
                      A                      A                      A
 Frequencies --    390.8577               429.3822               476.1112
 Red. masses --      1.9923                 2.9281                 6.4115
 Frc consts  --      0.1793                 0.3181                 0.8563
 IR Inten    --      3.0238                 2.7790                 1.7556

                     19                     20                     21
                      A                      A                      A
 Frequencies --    480.2318               493.6143               515.0497
 Red. masses --      2.7099                 4.2039                 3.7347
 Frc consts  --      0.3682                 0.6035                 0.5837
 IR Inten    --      2.9724                 0.7830                 0.3855

                     22                     23                     24
                      A                      A                      A
 Frequencies --    539.9067               596.3367               657.1473
 Red. masses --      3.6887                 5.5551                 2.4749
 Frc consts  --      0.6335                 1.1639                 0.6297
 IR Inten    --      1.0522                 1.5472                 1.2756

                     25                     26                     27
                      A                      A                      A
 Frequencies --    683.4820               711.0026               722.7911
 Red. masses --      2.5713                 6.3862                 4.3686
 Frc consts  --      0.7077                 1.9021                 1.3447
 IR Inten    --      3.9693                 9.5481                 1.1600

                     28                     29                     30
                      A                      A                      A
 Frequencies --    749.5598               758.9121               797.4222
 Red. masses --      1.4870                 1.2236                 2.3151
 Frc consts  --      0.4922                 0.4152                 0.8673
 IR Inten    --     23.5560                44.9438                 5.7843

                     31                     32                     33
                      A                      A                      A
 Frequencies --    824.3311               856.8083               871.0708
 Red. masses --      4.0870                 1.7503                 1.3202
 Frc consts  --      1.6363                 0.7570                 0.5902
 IR Inten    --      0.9660                 1.0994                 0.3900

                     34                     35                     36
                      A                      A                      A
 Frequencies --    885.2959               908.3731               932.7798
 Red. masses --      2.3534                 2.4251                 1.3783
 Frc consts  --      1.0867                 1.1790                 0.7066
 IR Inten    --      2.1609                 4.5590                 1.1004

                     37                     38                     39
                      A                      A                      A
 Frequencies --    960.1280               972.6015               978.6674
 Red. masses --      1.5709                 1.8538                 1.2652
 Frc consts  --      0.8532                 1.0332                 0.7140
 IR Inten    --      1.2287                 3.4036                 0.1001

                     40                     41                     42
                      A                      A                      A
 Frequencies --    991.5794              1018.8302              1051.8461
 Red. masses --      2.1044                 2.3422                 1.9606
 Frc consts  --      1.2191                 1.4324                 1.2781
 IR Inten    --      5.2486                 4.0196                 0.4221

                     43                     44                     45
                      A                      A                      A
 Frequencies --   1060.9530              1079.0000              1096.3550
 Red. masses --      2.4266                 3.5016                 2.0633
 Frc consts  --      1.6093                 2.4019                 1.4612
 IR Inten    --     12.3170                38.5603                 1.3626

                     46                     47                     48
                      A                      A                      A
 Frequencies --   1105.3337              1131.8377              1154.2078
 Red. masses --      1.5820                 1.9025                 1.6373
 Frc consts  --      1.1388                 1.4360                 1.2852
 IR Inten    --     14.3956                12.7229                12.6008

                     49                     50                     51
                      A                      A                      A
 Frequencies --   1157.9633              1182.9308              1194.3967
 Red. masses --      2.1781                 1.1968                 1.1104
 Frc consts  --      1.7207                 0.9867                 0.9333
 IR Inten    --     22.8714                 7.4216                 0.7295

                     52                     53                     54
                      A                      A                      A
 Frequencies --   1220.3953              1232.4183              1238.1760
 Red. masses --      1.4239                 2.1690                 1.2928
 Frc consts  --      1.2495                 1.9410                 1.1677
 IR Inten    --     13.4049                 2.0998                 2.9279

                     55                     56                     57
                      A                      A                      A
 Frequencies --   1255.3139              1277.4019              1300.5768
 Red. masses --      1.3679                 1.5409                 1.2416
 Frc consts  --      1.2700                 1.4814                 1.2373
 IR Inten    --     12.6331                21.7562                 5.6896

                     58                     59                     60
                      A                      A                      A
 Frequencies --   1324.4754              1339.6554              1363.4372
 Red. masses --      1.8556                 1.1702                 2.8308
 Frc consts  --      1.9179                 1.2373                 3.1005
 IR Inten    --      6.3627                10.7209                 3.7652

                     61                     62                     63
                      A                      A                      A
 Frequencies --   1380.1381              1386.3426              1398.8783
 Red. masses --      1.5316                 1.4392                 1.6301
 Frc consts  --      1.7189                 1.6298                 1.8794
 IR Inten    --      6.6472                 9.0437                18.4780

                     64                     65                     66
                      A                      A                      A
 Frequencies --   1416.0461              1422.2655              1444.2101
 Red. masses --      1.3880                 1.5343                 1.2678
 Frc consts  --      1.6398                 1.8286                 1.5580
 IR Inten    --      0.9762                27.0883                 5.2839

                     67                     68                     69
                      A                      A                      A
 Frequencies --   1484.5593              1496.0019              1507.5634
 Red. masses --      1.0848                 2.1967                 1.2210
 Frc consts  --      1.4086                 2.8965                 1.6350
 IR Inten    --      9.6918                16.2469                 8.9156

                     70                     71                     72
                      A                      A                      A
 Frequencies --   1511.1421              1518.5582              1524.2569
 Red. masses --      1.0747                 2.0926                 1.0814
 Frc consts  --      1.4460                 2.8431                 1.4804
 IR Inten    --      5.3879                22.4801                 9.6411

                     73                     74                     75
                      A                      A                      A
 Frequencies --   1525.6660              1534.8675              1541.5527
 Red. masses --      1.0575                 1.0561                 1.0759
 Frc consts  --      1.4503                 1.4658                 1.5063
 IR Inten    --      0.1991                 8.1634                 2.5886

                     76                     77                     78
                      A                      A                      A
 Frequencies --   1637.2230              1652.7593              1806.7328
 Red. masses --      5.9572                 6.0432                11.2362
 Frc consts  --      9.4082                 9.7261                21.6102
 IR Inten    --      2.0065                11.4542               109.7747

                     79                     80                     81
                      A                      A                      A
 Frequencies --   3027.0182              3029.7021              3038.5005
 Red. masses --      1.0660                 1.0691                 1.0656
 Frc consts  --      5.7548                 5.7818                 5.7967
 IR Inten    --     10.1919                34.3178                26.7060

                     82                     83                     84
                      A                      A                      A
 Frequencies --   3044.9315              3049.8896              3058.8353
 Red. masses --      1.0371                 1.0840                 1.0623
 Frc consts  --      5.6655                 5.9410                 5.8563
 IR Inten    --     21.8054                13.1392                 7.8820

                     85                     86                     87
                      A                      A                      A
 Frequencies --   3061.4818              3065.5867              3079.0704
 Red. masses --      1.0778                 1.0812                 1.0929
 Frc consts  --      5.9516                 5.9866                 6.1049
 IR Inten    --     27.4334                41.3041                 5.8864

                     88                     89                     90
                      A                      A                      A
 Frequencies --   3092.0777              3103.8730              3107.3161
 Red. masses --      1.0949                 1.1010                 1.1012
 Frc consts  --      6.1680                 6.2496                 6.2644
 IR Inten    --     34.8022                14.3553                54.6393

                     91                     92                     93
                      A                      A                      A
 Frequencies --   3109.9647              3115.4385              3183.3679
 Red. masses --      1.1017                 1.1019                 1.0865
 Frc consts  --      6.2782                 6.3012                 6.4871
 IR Inten    --     53.1413                37.6175                 3.6878

                     94                     95                     96
                      A                      A                      A
 Frequencies --   3192.0374              3204.6285              3214.0812
 Red. masses --      1.0884                 1.0926                 1.0973
 Frc consts  --      6.5340                 6.6108                 6.6787
 IR Inten    --      7.4125                20.9954                26.2248

 - Thermochemistry -
 -------------------
 Temperature   298.150 Kelvin.  Pressure   1.00000 Atm.
 Atom     1 has atomic number  6 and mass  12.00000

 Molecular mass:   234.10784 amu.
 Principal axes and moments of inertia in atomic units:
                           1         2         3
     Eigenvalues --  1443.134079110.713389472.48033
           X            0.99996  -0.00728   0.00525
           Y            0.00721   0.99989   0.01292
           Z           -0.00534  -0.01288   0.99990
 This molecule is an asymmetric top.
 Rotational symmetry number  1.
 Warning -- assumption of classical behavior for rotation
           may cause significant error
 Rotational temperatures (Kelvin)      0.06002     0.00951     0.00914
 Rotational constants (GHZ):           1.25057     0.19809     0.19052
 Zero-point vibrational energy     762825.4 (Joules/Mol)
                                  182.31965 (Kcal/Mol)
 Warning -- explicit consideration of  23 degrees of freedom as
           vibrations may cause significant error
 Vibrational temperatures:     23.17    32.84    58.80    66.40   129.19
          (Kelvin)            152.74   234.45   236.62   290.65   334.22
                              370.18   403.65   422.48   466.15   517.77
                              562.36   617.79   685.02   690.95   710.20
                              741.04   776.81   858.00   945.49   983.38
                             1022.97  1039.94  1078.45  1091.91  1147.31
                             1186.03  1232.76  1253.28  1273.74  1306.95
                             1342.06  1381.41  1399.36  1408.08  1426.66
                             1465.87  1513.37  1526.47  1552.44  1577.41
                             1590.33  1628.46  1660.65  1666.05  1701.97
                             1718.47  1755.88  1773.17  1781.46  1806.12
                             1837.90  1871.24  1905.62  1927.47  1961.68
                             1985.71  1994.64  2012.67  2037.37  2046.32
                             2077.90  2135.95  2152.41  2169.05  2174.20
                             2184.87  2193.07  2195.09  2208.33  2217.95
                             2355.60  2377.95  2599.49  4355.20  4359.07
                             4371.72  4380.98  4388.11  4400.98  4404.79
                             4410.70  4430.10  4448.81  4465.78  4470.73
                             4474.55  4482.42  4580.16  4592.63  4610.75
                             4624.35

 Zero-point correction=                           0.290545 (Hartree/Particle)
 Thermal correction to Energy=                    0.306345
 Thermal correction to Enthalpy=                  0.307289
 Thermal correction to Gibbs Free Energy=         0.244479
 Sum of electronic and zero-point Energies=          -1017.534010
 Sum of electronic and thermal Energies=             -1017.518210
 Sum of electronic and thermal Enthalpies=           -1017.517266
 Sum of electronic and thermal Free Energies=        -1017.580076

                     E (Thermal)             CV                S
                      KCal/Mol        Cal/Mol-Kelvin    Cal/Mol-Kelvin
 Total                  192.235             59.780            132.195
 Electronic               0.000              0.000              0.000
 Translational            0.889              2.981             42.254
 Rotational               0.889              2.981             33.187
 Vibrational            190.457             53.818             56.754
 Vibration     1          0.593              1.986              7.065
 Vibration     2          0.593              1.985              6.372
 Vibration     3          0.594              1.981              5.217
 Vibration     4          0.595              1.979              4.976
 Vibration     5          0.602              1.956              3.665
 Vibration     6          0.605              1.944              3.338
 Vibration     7          0.623              1.888              2.515
 Vibration     8          0.623              1.886              2.498
 Vibration     9          0.639              1.837              2.115
 Vibration    10          0.653              1.792              1.861
 Vibration    11          0.667              1.750              1.680
 Vibration    12          0.680              1.710              1.530
 Vibration    13          0.688              1.686              1.453
 Vibration    14          0.709              1.627              1.290
 Vibration    15          0.734              1.555              1.123
 Vibration    16          0.759              1.490              0.997
 Vibration    17          0.791              1.406              0.861
 Vibration    18          0.833              1.303              0.721
 Vibration    19          0.837              1.294              0.709
 Vibration    20          0.849              1.264              0.674
 Vibration    21          0.870              1.217              0.622
 Vibration    22          0.895              1.162              0.565
 Vibration    23          0.954              1.040              0.456

 Optimization completed.
    -- Stationary point found.
 Normal termination of Gaussian 16 at Fri Dec 11 01:17:48 2020.

 ----------------------------------------------------------------------
 # B3LYP/6-311++G(d,p) empiricaldispersion=gd3bj scf=xqc pop=npa geom=c
 heck
 ----------------------------------------------------------------------

 --------------------------------------
 CID_69981194_JID_6886_Energie_neutraal
 --------------------------------------
 Structure from the checkpoint file:  "JID_6886.chk"
 Charge =  0 Multiplicity = 1

 SCF Done:  E(RB3LYP) =  -1018.01683116     A.U. after   16 cycles
 Normal termination of Gaussian 16 at Fri Dec 11 01:22:36 2020.

 ----------------------------------------------------------------------
 # B3LYP/6-311++G(d,p) empiricaldispersion=gd3bj scf=xqc pop=npa geom=c
 heck
 ----------------------------------------------------------------------

 ------------------------------------
 CID_69981194_JID_6886_Energie_kation
 ------------------------------------
 Structure from the checkpoint file:  "JID_6886.chk"
 Charge =  1 Multiplicity = 2

 SCF Done:  E(UB3LYP) =  -1017.73082350     A.U. after   26 cycles
 Normal termination of Gaussian 16 at Fri Dec 11 01:32:56 2020.
 Gaussian 16:  ES64L-G16RevA.03 25-Dec-2016

 ----------------------------------------------------------------------
 # B3LYP/6-311++G(d,p) empiricaldispersion=gd3bj scf=xqc pop=npa geom=c
 heck
 ----------------------------------------------------------------------

 -----------------------------------
 CID_69981194_JID_6886_Energie_anion
 -----------------------------------
 Structure from the checkpoint file:  "JID_6886.chk"
 Charge = -1 Multiplicity = 2

                         Standard orientation:
 ---------------------------------------------------------------------
 Center     Atomic      Atomic             Coordinates (Angstroms)
 Number     Number       Type             X           Y           Z
 ---------------------------------------------------------------------
      1          6           0        5.060529   -1.091101    1.459655
      2          6           0        4.282235    0.223619    1.354035
      3          6           0        4.221390    0.804010   -0.066926
      4          6           0        3.590808   -0.114581   -1.126296
      5          6           0        2.178919   -0.598392   -0.780465
      6          6           0        1.150785    0.516522   -0.690815
      7          8           0        1.309656    1.596925   -1.226112
      8          6           0       -0.113090    0.219637    0.112707
      9          6           0       -1.153429    1.347308    0.094644
     10          6           0       -2.513344    0.715101    0.252610
     11          6           0       -3.687666    1.352309    0.642942
     12          6           0       -4.890575    0.640553    0.679563
     13          6           0       -4.917637   -0.708808    0.323452
     14          6           0       -3.746649   -1.364682   -0.064539
     15          6           0       -2.554834   -0.643744   -0.092109
     16         16           0       -0.967185   -1.304804   -0.554275
     17          1           0        4.579430   -1.895716    0.891891
     18          1           0        5.138061   -1.424006    2.500543
     19          1           0        6.078837   -0.975968    1.068231
     20          1           0        3.264391    0.077143    1.742318
     21          1           0        4.743684    0.970639    2.012678
     22          1           0        3.667617    1.749369   -0.045999
     23          1           0        5.241219    1.050618   -0.392455
     24          1           0        3.551113    0.424414   -2.078554
     25          1           0        4.224739   -0.994471   -1.286815
     26          1           0        1.817565   -1.286212   -1.560261
     27          1           0        2.162566   -1.181510    0.148338
     28          1           0        0.186841   -0.021698    1.140433
     29          1           0       -0.935197    2.080798    0.877707
     30          1           0       -1.080012    1.876144   -0.863981
     31          1           0       -3.666346    2.404417    0.915643
     32          1           0       -5.804207    1.139165    0.989150
     33          1           0       -5.852817   -1.260480    0.356060
     34          1           0       -3.764423   -2.417692   -0.328382
 ---------------------------------------------------------------------

 SCF Done:  E(UB3LYP) =  -1018.00975110     A.U. after   33 cycles
 SCF Done:  E(UB3LYP) =  -1018.00975110     a.u. after    1 cycles

 The electronic state is 2-A.
 Alpha  occ. eigenvalues --  -88.73850 -18.97755 -10.11805 -10.10286 -10.09729
 Alpha  occ. eigenvalues --  -10.08372 -10.07953 -10.07858 -10.07842 -10.07627
 Alpha  occ. eigenvalues --  -10.07416 -10.07102 -10.06735 -10.06696 -10.06602
 Alpha  occ. eigenvalues --  -10.06452  -7.82499  -5.78863  -5.78531  -5.77904
 Alpha  occ. eigenvalues --   -0.91692  -0.77815  -0.71916  -0.70950  -0.66665
 Alpha  occ. eigenvalues --   -0.66163  -0.63553  -0.60397  -0.59394  -0.54776
 Alpha  occ. eigenvalues --   -0.51858  -0.49388  -0.48170  -0.46233  -0.40658
 Alpha  occ. eigenvalues --   -0.40409  -0.38401  -0.38108  -0.37319  -0.35524
 Alpha  occ. eigenvalues --   -0.34987  -0.33234  -0.32572  -0.32179  -0.31424
 Alpha  occ. eigenvalues --   -0.30720  -0.29462  -0.28642  -0.27691  -0.27048
 Alpha  occ. eigenvalues --   -0.26404  -0.26126  -0.24715  -0.24586  -0.24067
 Alpha  occ. eigenvalues --   -0.22815  -0.22464  -0.22190  -0.21299  -0.18949
 Alpha  occ. eigenvalues --   -0.15580  -0.13045  -0.10553   0.04364
 Alpha virt. eigenvalues --    0.05861   0.06349   0.07368   0.07681   0.08158
 Alpha virt. eigenvalues --    0.08244   0.08349   0.08690   0.09192   0.10066
 Alpha virt. eigenvalues --    0.10666   0.11080   0.11514   0.11817   0.11947

  Beta  occ. eigenvalues --  -88.73800 -18.97438 -10.11483 -10.10287 -10.09710
  Beta  occ. eigenvalues --  -10.08371 -10.07942 -10.07848 -10.07821 -10.07616
  Beta  occ. eigenvalues --  -10.07413 -10.07094 -10.06712 -10.06692 -10.06628
  Beta  occ. eigenvalues --  -10.06450  -7.82447  -5.78749  -5.78486  -5.77868
  Beta  occ. eigenvalues --   -0.91078  -0.77773  -0.71799  -0.70924  -0.66614
  Beta  occ. eigenvalues --   -0.66052  -0.63435  -0.60308  -0.59290  -0.54598
  Beta  occ. eigenvalues --   -0.51791  -0.49282  -0.48105  -0.46172  -0.40328
  Beta  occ. eigenvalues --   -0.40238  -0.38213  -0.38031  -0.37270  -0.35456
  Beta  occ. eigenvalues --   -0.34855  -0.33037  -0.32374  -0.32138  -0.31291
  Beta  occ. eigenvalues --   -0.30655  -0.29325  -0.28498  -0.27481  -0.26922
  Beta  occ. eigenvalues --   -0.26292  -0.26058  -0.24629  -0.24468  -0.23283
  Beta  occ. eigenvalues --   -0.22723  -0.22379  -0.22149  -0.20734  -0.18888
  Beta  occ. eigenvalues --   -0.15550  -0.12805  -0.10457
  Beta virt. eigenvalues --    0.06294   0.06480   0.07631   0.07867   0.08060
  Beta virt. eigenvalues --    0.08302   0.08525   0.08544   0.09113   0.10031
  Beta virt. eigenvalues --    0.10304   0.10940   0.11178   0.11437   0.11849

 Mulliken charges and spin densities:
               1          2
     1  C    0.302244  -0.924821
     2  C   -0.580191   0.334939
     3  C   -0.014183  -0.130010
     4  C   -0.319805  -0.009089
     5  C    0.020726  -0.141727
     6  C   -0.581764   0.073638
     7  O   -0.310664   0.108269
     8  C    0.837422   0.336325
     9  C    0.010674  -1.758971
    10  C    0.544288   1.055635
    11  C   -0.533216   0.344995
    12  C    0.135294  -0.528944
    13  C    0.958595  -1.020502
    14  C   -0.443237   0.202819
    15  C   -0.530499   0.165942
    16  S   -0.392445  -0.208999
    17  H    0.017129   0.120462
    18  H   -0.248323   0.383627
    19  H   -0.008406   0.134673
    20  H    0.149993  -0.011848
    21  H   -0.114026   0.254836
    22  H    0.163846   0.004725
    23  H    0.052836   0.091751
    24  H    0.179275  -0.003219
    25  H    0.160800  -0.014800
    26  H    0.168927  -0.001142
    27  H    0.079278   0.113907
    28  H    0.026824   0.259942
    29  H    0.065016   0.089289
    30  H    0.235377   0.010204
    31  H   -0.195827   0.354203
    32  H   -0.330200   0.483901
    33  H   -0.152627   0.305079
    34  H   -0.353130   0.524911
 Sum of Mulliken charges =  -1.00000   1.00000

 Dipole moment (field-independent basis, Debye):
    X=              1.4818    Y=             -0.0683    Z=             -1.6068  Tot=              2.1868
 Quadrupole moment (field-independent basis, Debye-Ang):
   XX=           -197.3752   YY=           -136.7181   ZZ=           -134.6707
   XY=             -0.9163   XZ=             -6.5500   YZ=              5.5691

 Summary of Natural Population Analysis:

                                       Natural Population
                Natural  -----------------------------------------------
    Atom  No    Charge         Core      Valence    Rydberg      Total
 -----------------------------------------------------------------------
      C    1   -0.28882      0.99967     2.28362    0.00554     3.28882
      C    2   -0.19376      0.99964     2.18621    0.00791     3.19376
      C    3   -0.19204      0.99963     2.18322    0.00918     3.19204
      C    4   -0.19031      0.99963     2.18142    0.00926     3.19031
      C    5   -0.24260      0.99959     2.23541    0.00760     3.24260
      C    6    0.32209      0.99963     1.65505    0.02322     2.67791
      O    7   -0.26820      0.99987     3.26279    0.00553     4.26820
      C    8   -0.18182      0.99954     2.17071    0.01157     3.18182
      C    9   -0.20376      0.99958     2.19360    0.01057     3.20376
      C   10   -0.02364      0.99944     2.01404    0.01016     3.02364
      C   11   -0.09734      0.99951     2.08795    0.00987     3.09734
      C   12   -0.10960      0.99957     2.10013    0.00991     3.10960
      C   13   -0.09978      0.99956     2.09064    0.00958     3.09978
      C   14   -0.11234      0.99949     2.10156    0.01128     3.11234
      C   15   -0.07951      0.99937     2.06815    0.01200     3.07951
      S   16    0.13649      4.99955     2.84678    0.01718     7.86351
      H   17    0.09626      0.00000     0.40289    0.00085     0.40374
      H   18    0.09936      0.00000     0.39967    0.00097     0.40064
      H   19    0.09329      0.00000     0.40584    0.00087     0.40671
      H   20    0.09499      0.00000     0.40375    0.00126     0.40501
      H   21    0.09461      0.00000     0.40443    0.00096     0.40539
      H   22    0.10698      0.00000     0.39205    0.00097     0.39302
      H   23    0.09059      0.00000     0.40850    0.00090     0.40941
      H   24    0.10386      0.00000     0.39502    0.00112     0.39614
      H   25    0.09172      0.00000     0.40732    0.00095     0.40828
      H   26    0.11338      0.00000     0.38560    0.00101     0.38662
      H   27    0.10382      0.00000     0.39511    0.00107     0.39618
      H   28    0.10665      0.00000     0.39162    0.00173     0.39335
      H   29    0.10880      0.00000     0.39017    0.00103     0.39120
      H   30    0.11763      0.00000     0.38119    0.00117     0.38237
      H   31    0.09999      0.00000     0.39854    0.00147     0.40001
      H   32    0.09965      0.00000     0.39923    0.00112     0.40035
      H   33    0.09920      0.00000     0.39986    0.00094     0.40080
      H   34    0.10415      0.00000     0.39466    0.00119     0.39585
 =======================================================================
   * Total *    0.00000     19.99327    42.81676    0.18996    63.00000

 Normal termination of Gaussian 16 at Fri Dec 11 01:46:17 2020.
