 Gaussian 16, Revision A.03,

 -----------------------------------------------------------
 # opt freq B3LYP/6-31G(d) empiricaldispersion=gd3bj scf=xqc
 -----------------------------------------------------------

 -------------------------------
 CID_71997359_JID_10729_neutraal
 -------------------------------
 Symbolic Z-matrix:
 Charge =  0 Multiplicity = 1

 SCF Done:  E(RB3LYP) =  -1617.87973546     A.U. after   15 cycles
 SCF Done:  E(RB3LYP) =  -1617.86306121     A.U. after   13 cycles
 SCF Done:  E(RB3LYP) =  -1617.89308813     A.U. after   12 cycles
 SCF Done:  E(RB3LYP) =  -1617.89555556     A.U. after   12 cycles
 SCF Done:  E(RB3LYP) =  -1617.89595477     A.U. after   12 cycles
 SCF Done:  E(RB3LYP) =  -1617.89616302     A.U. after   11 cycles
 SCF Done:  E(RB3LYP) =  -1617.89622794     A.U. after   10 cycles
 SCF Done:  E(RB3LYP) =  -1617.89627110     A.U. after   11 cycles
 SCF Done:  E(RB3LYP) =  -1617.89630203     A.U. after   11 cycles
 SCF Done:  E(RB3LYP) =  -1617.89635102     A.U. after   11 cycles
 SCF Done:  E(RB3LYP) =  -1617.89646217     A.U. after    7 cycles
 SCF Done:  E(RB3LYP) =  -1617.89646475     A.U. after   10 cycles
 SCF Done:  E(RB3LYP) =  -1617.89646497     A.U. after    9 cycles
 SCF Done:  E(RB3LYP) =  -1617.89646265     A.U. after   10 cycles
 SCF Done:  E(RB3LYP) =  -1617.89646213     A.U. after    7 cycles
 Optimization completed on the basis of negligible forces.
    -- Stationary point found.
 Normal termination of Gaussian 16 at Sun Dec 13 21:14:45 2020.

 --------------------------------------------------------------------
 #N Geom=AllCheck Guess=TCheck SCRF=Check GenChk RB3LYP/6-31G(d) Freq
 --------------------------------------------------------------------

 Structure from the checkpoint file:  "JID_10729.chk"
 -------------------------------
 CID_71997359_JID_10729_neutraal
 -------------------------------
 Charge =  0 Multiplicity = 1

 SCF Done:  E(RB3LYP) =  -1617.89646213     A.U. after    1 cycles

  Exact polarizability: 219.088  10.826 164.825   1.565 -14.050 155.258
 Approx polarizability: 329.802  10.643 241.598   5.725 -31.311 289.099

                      1                      2                      3
                      A                      A                      A
 Frequencies --     16.9224                26.2757                30.4594
 Red. masses --      3.0175                 5.8759                 4.8592
 Frc consts  --      0.0005                 0.0024                 0.0027
 IR Inten    --      0.0975                 0.7387                 1.1590

                      4                      5                      6
                      A                      A                      A
 Frequencies --     42.1907                62.0677                70.0978
 Red. masses --      5.1287                 4.1378                 4.9338
 Frc consts  --      0.0054                 0.0094                 0.0143
 IR Inten    --      1.0545                 0.1001                 1.4553

                      7                      8                      9
                      A                      A                      A
 Frequencies --     92.3489               115.6465               125.6815
 Red. masses --      3.3065                 4.9760                 4.3024
 Frc consts  --      0.0166                 0.0392                 0.0400
 IR Inten    --      0.3903                 3.2695                 0.9006

                     10                     11                     12
                      A                      A                      A
 Frequencies --    132.5429               149.1437               199.5512
 Red. masses --      3.7177                 4.2976                 2.5329
 Frc consts  --      0.0385                 0.0563                 0.0594
 IR Inten    --      0.1130                 1.3704                 1.8611

                     13                     14                     15
                      A                      A                      A
 Frequencies --    224.4065               229.8874               235.8100
 Red. masses --      1.3251                 2.2679                 2.8381
 Frc consts  --      0.0393                 0.0706                 0.0930
 IR Inten    --      0.2594                 1.2335                 2.4118

                     16                     17                     18
                      A                      A                      A
 Frequencies --    260.6434               287.0324               305.8161
 Red. masses --      2.0250                 2.7724                 4.5792
 Frc consts  --      0.0811                 0.1346                 0.2523
 IR Inten    --      1.3023                 0.6865                 1.2477

                     19                     20                     21
                      A                      A                      A
 Frequencies --    311.7228               343.4079               354.2055
 Red. masses --      3.6315                 4.6896                 3.0916
 Frc consts  --      0.2079                 0.3258                 0.2285
 IR Inten    --      4.6277                 1.3259                 0.6964

                     22                     23                     24
                      A                      A                      A
 Frequencies --    397.5356               406.5001               422.6371
 Red. masses --      3.4189                 3.8048                 2.2252
 Frc consts  --      0.3183                 0.3704                 0.2342
 IR Inten    --      3.6297                 7.9063                 8.3553

                     25                     26                     27
                      A                      A                      A
 Frequencies --    454.9097               484.1777               491.4483
 Red. masses --      4.3081                 3.4807                 4.5896
 Frc consts  --      0.5253                 0.4808                 0.6531
 IR Inten    --      3.0088                25.6029                 1.8041

                     28                     29                     30
                      A                      A                      A
 Frequencies --    554.7290               574.7247               583.7996
 Red. masses --      2.5642                 3.3996                 4.8516
 Frc consts  --      0.4649                 0.6616                 0.9742
 IR Inten    --    103.4821                 4.6053                25.8811

                     31                     32                     33
                      A                      A                      A
 Frequencies --    593.6246               600.2317               648.8845
 Red. masses --      3.8448                 6.1224                 3.4760
 Frc consts  --      0.7983                 1.2996                 0.8623
 IR Inten    --     52.3980                 4.2305                30.3981

                     34                     35                     36
                      A                      A                      A
 Frequencies --    679.2595               695.3438               697.2421
 Red. masses --      6.6097                 3.2144                 1.2497
 Frc consts  --      1.7968                 0.9157                 0.3579
 IR Inten    --      6.6456                22.7297                66.6160

                     37                     38                     39
                      A                      A                      A
 Frequencies --    746.9462               751.9855               787.9451
 Red. masses --      6.2043                 4.8827                 2.8077
 Frc consts  --      2.0395                 1.6268                 1.0271
 IR Inten    --      1.1523                 4.4155               150.3208

                     40                     41                     42
                      A                      A                      A
 Frequencies --    803.7842               819.2804               832.3709
 Red. masses --      1.1606                 1.3343                 1.6638
 Frc consts  --      0.4418                 0.5277                 0.6792
 IR Inten    --      1.2431                10.8341                 6.3230

                     43                     44                     45
                      A                      A                      A
 Frequencies --    857.2039               862.2298               885.4457
 Red. masses --      1.7407                 3.2223                 1.3107
 Frc consts  --      0.7536                 1.4114                 0.6054
 IR Inten    --     33.3342                15.4893                14.4164

                     46                     47                     48
                      A                      A                      A
 Frequencies --    908.7200               916.7501               940.6626
 Red. masses --      1.5492                 1.4841                 1.5428
 Frc consts  --      0.7537                 0.7349                 0.8043
 IR Inten    --      6.9241                 2.5256                19.5131

                     49                     50                     51
                      A                      A                      A
 Frequencies --    963.9665               970.4266              1005.2931
 Red. masses --      1.8545                 2.5856                 3.1452
 Frc consts  --      1.0153                 1.4346                 1.8728
 IR Inten    --      2.7701                16.0164                21.3938

                     52                     53                     54
                      A                      A                      A
 Frequencies --   1017.4638              1060.6155              1080.1389
 Red. masses --      6.6720                 1.9308                 3.3661
 Frc consts  --      4.0695                 1.2797                 2.3139
 IR Inten    --      9.1185                 8.9771                66.9850

                     55                     56                     57
                      A                      A                      A
 Frequencies --   1103.2331              1105.6055              1115.8352
 Red. masses --      1.6289                 2.6956                 2.8393
 Frc consts  --      1.1681                 1.9413                 2.0829
 IR Inten    --      3.5906                49.2957                30.8573

                     58                     59                     60
                      A                      A                      A
 Frequencies --   1119.4368              1123.7821              1135.5401
 Red. masses --      1.6127                 1.6600                 1.8763
 Frc consts  --      1.1907                 1.2352                 1.4254
 IR Inten    --      5.0241                17.7505                 1.9949

                     61                     62                     63
                      A                      A                      A
 Frequencies --   1154.0392              1164.5050              1179.3449
 Red. masses --      2.1094                 2.7476                 2.0746
 Frc consts  --      1.6552                 2.1953                 1.7000
 IR Inten    --    104.2270                40.3751                 2.9957

                     64                     65                     66
                      A                      A                      A
 Frequencies --   1214.0657              1235.7937              1268.3508
 Red. masses --      1.4307                 1.2721                 2.0326
 Frc consts  --      1.2425                 1.1446                 1.9265
 IR Inten    --      1.6976                 2.6286                 1.2122

                     67                     68                     69
                      A                      A                      A
 Frequencies --   1284.5036              1292.5610              1319.5224
 Red. masses --      1.7600                 1.6696                 2.1400
 Frc consts  --      1.7109                 1.6435                 2.1953
 IR Inten    --     52.4489                32.1508               168.5432

                     70                     71                     72
                      A                      A                      A
 Frequencies --   1341.8110              1358.9054              1369.4488
 Red. masses --      1.3612                 1.9689                 1.3272
 Frc consts  --      1.4440                 2.1421                 1.4665
 IR Inten    --      2.6299                 4.5289                 5.3875

                     73                     74                     75
                      A                      A                      A
 Frequencies --   1387.8605              1398.6079              1405.8212
 Red. masses --      3.3698                 1.8780                 1.5193
 Frc consts  --      3.8243                 2.1643                 1.7691
 IR Inten    --      9.1822                 1.7824                18.4977

                     76                     77                     78
                      A                      A                      A
 Frequencies --   1415.6942              1423.2408              1434.6101
 Red. masses --      1.3871                 1.4618                 3.6738
 Frc consts  --      1.6380                 1.7446                 4.4549
 IR Inten    --      3.9101                 3.3652                 9.2659

                     79                     80                     81
                      A                      A                      A
 Frequencies --   1441.1321              1441.9847              1462.0123
 Red. masses --      1.2553                 1.3738                 1.2667
 Frc consts  --      1.5360                 1.6831                 1.5953
 IR Inten    --      2.1427                 9.2650                26.8121

                     82                     83                     84
                      A                      A                      A
 Frequencies --   1493.5503              1499.7717              1510.5442
 Red. masses --      2.6499                 5.3314                 1.1101
 Frc consts  --      3.4827                 7.0655                 1.4924
 IR Inten    --     14.8594                11.6214                 0.6559

                     85                     86                     87
                      A                      A                      A
 Frequencies --   1513.3409              1516.4580              1518.7149
 Red. masses --      1.2859                 1.0888                 1.0501
 Frc consts  --      1.7352                 1.4752                 1.4270
 IR Inten    --      1.0952                 1.9006                 9.8487

                     88                     89                     90
                      A                      A                      A
 Frequencies --   1527.2282              1529.0894              1533.4299
 Red. masses --      1.0609                 1.0780                 1.0441
 Frc consts  --      1.4580                 1.4850                 1.4466
 IR Inten    --      2.5343                10.0712                10.0243

                     91                     92                     93
                      A                      A                      A
 Frequencies --   1568.6479              1601.8600              3028.2380
 Red. masses --      4.4096                 4.8141                 1.0587
 Frc consts  --      6.3930                 7.2781                 5.7199
 IR Inten    --     67.0462                 1.7654                23.3695

                     94                     95                     96
                      A                      A                      A
 Frequencies --   3037.7955              3052.9222              3057.6388
 Red. masses --      1.0387                 1.0700                 1.1025
 Frc consts  --      5.6474                 5.8759                 6.0730
 IR Inten    --     36.5638                26.9119                13.2237

                     97                     98                     99
                      A                      A                      A
 Frequencies --   3064.6910              3089.8072              3095.6780
 Red. masses --      1.0361                 1.0612                 1.0955
 Frc consts  --      5.7334                 5.9690                 6.1854
 IR Inten    --     13.2976                24.2487                18.8922

                    100                    101                    102
                      A                      A                      A
 Frequencies --   3112.6927              3119.4414              3129.0625
 Red. masses --      1.0970                 1.0925                 1.1041
 Frc consts  --      6.2625                 6.2635                 6.3692
 IR Inten    --     19.5044                23.1162                13.7042

                    103                    104                    105
                      A                      A                      A
 Frequencies --   3135.0243              3143.5705              3159.9251
 Red. masses --      1.0945                 1.1027                 1.1040
 Frc consts  --      6.3382                 6.4205                 6.4949
 IR Inten    --      9.3565                24.1843                13.7180

                    106                    107                    108
                      A                      A                      A
 Frequencies --   3222.9925              3235.6015              3270.8554
 Red. masses --      1.0892                 1.0944                 1.0975
 Frc consts  --      6.6663                 6.7507                 6.9177
 IR Inten    --      2.4391                 1.4277                 1.2808

                    109                    110                    111
                      A                      A                      A
 Frequencies --   3285.5895              3295.1588              3534.8851
 Red. masses --      1.0972                 1.0987                 1.0749
 Frc consts  --      6.9782                 7.0291                 7.9134
 IR Inten    --      0.5975                 1.8901                22.3519

 - Thermochemistry -
 -------------------
 Temperature   298.150 Kelvin.  Pressure   1.00000 Atm.
 Atom     1 has atomic number  6 and mass  12.00000

 Molecular mass:   313.09187 amu.
 Principal axes and moments of inertia in atomic units:
                           1         2         3
     Eigenvalues --  5643.136816135.730769841.19653
           X            0.85769   0.51416  -0.00150
           Y           -0.51415   0.85769   0.00516
           Z            0.00394  -0.00366   0.99999
 This molecule is an asymmetric top.
 Rotational symmetry number  1.
 Warning -- assumption of classical behavior for rotation
           may cause significant error
 Rotational temperatures (Kelvin)      0.01535     0.01412     0.00880
 Rotational constants (GHZ):           0.31981     0.29414     0.18339
 Zero-point vibrational energy     835553.2 (Joules/Mol)
                                  199.70201 (Kcal/Mol)
 Warning -- explicit consideration of  32 degrees of freedom as
           vibrations may cause significant error
 Vibrational temperatures:     24.35    37.80    43.82    60.70    89.30
          (Kelvin)            100.86   132.87   166.39   180.83   190.70
                              214.58   287.11   322.87   330.76   339.28
                              375.01   412.98   440.00   448.50   494.09
                              509.62   571.97   584.86   608.08   654.51
                              696.62   707.08   798.13   826.90   839.96
                              854.09   863.60   933.60   977.30  1000.44
                             1003.18  1074.69  1081.94  1133.68  1156.47
                             1178.76  1197.60  1233.33  1240.56  1273.96
                             1307.45  1319.00  1353.40  1386.93  1396.23
                             1446.39  1463.90  1525.99  1554.08  1587.31
                             1590.72  1605.44  1610.62  1616.87  1633.79
                             1660.41  1675.46  1696.81  1746.77  1778.03
                             1824.87  1848.11  1859.71  1898.50  1930.57
                             1955.16  1970.33  1996.82  2012.28  2022.66
                             2036.87  2047.73  2064.08  2073.47  2074.69
                             2103.51  2148.89  2157.84  2173.34  2177.36
                             2181.84  2185.09  2197.34  2200.02  2206.26
                             2256.93  2304.72  4356.96  4370.71  4392.47
                             4399.26  4409.41  4445.54  4453.99  4478.47
                             4488.18  4502.02  4510.60  4522.90  4546.43
                             4637.17  4655.31  4706.03  4727.23  4741.00
                             5085.91

 Zero-point correction=                           0.318245 (Hartree/Particle)
 Thermal correction to Energy=                    0.338630
 Thermal correction to Enthalpy=                  0.339575
 Thermal correction to Gibbs Free Energy=         0.266571
 Sum of electronic and zero-point Energies=          -1617.578217
 Sum of electronic and thermal Energies=             -1617.557832
 Sum of electronic and thermal Enthalpies=           -1617.556888
 Sum of electronic and thermal Free Energies=        -1617.629891

                     E (Thermal)             CV                S
                      KCal/Mol        Cal/Mol-Kelvin    Cal/Mol-Kelvin
 Total                  212.494             76.202            153.649
 Electronic               0.000              0.000              0.000
 Translational            0.889              2.981             43.120
 Rotational               0.889              2.981             34.187
 Vibrational            210.716             70.240             76.341
 Vibration     1          0.593              1.986              6.966
 Vibration     2          0.593              1.985              6.092
 Vibration     3          0.594              1.984              5.799
 Vibration     4          0.595              1.980              5.153
 Vibration     5          0.597              1.972              4.390
 Vibration     6          0.598              1.968              4.151
 Vibration     7          0.602              1.955              3.610
 Vibration     8          0.608              1.936              3.172
 Vibration     9          0.611              1.927              3.011
 Vibration    10          0.613              1.921              2.909
 Vibration    11          0.618              1.904              2.683
 Vibration    12          0.638              1.841              2.137
 Vibration    13          0.649              1.804              1.923
 Vibration    14          0.652              1.795              1.880
 Vibration    15          0.655              1.786              1.834
 Vibration    16          0.669              1.745              1.657
 Vibration    17          0.684              1.698              1.491
 Vibration    18          0.696              1.663              1.385
 Vibration    19          0.700              1.651              1.353
 Vibration    20          0.722              1.589              1.196
 Vibration    21          0.730              1.567              1.147
 Vibration    22          0.764              1.475              0.972
 Vibration    23          0.771              1.456              0.939
 Vibration    24          0.785              1.421              0.883
 Vibration    25          0.813              1.350              0.781
 Vibration    26          0.840              1.285              0.699
 Vibration    27          0.847              1.269              0.680
 Vibration    28          0.910              1.129              0.534
 Vibration    29          0.931              1.086              0.495
 Vibration    30          0.941              1.066              0.478
 Vibration    31          0.951              1.045              0.461
 Vibration    32          0.958              1.031              0.449

 Optimization completed.
    -- Stationary point found.
 Normal termination of Gaussian 16 at Sun Dec 13 21:41:51 2020.

 ----------------------------------------------------------------------
 # B3LYP/6-311++G(d,p) empiricaldispersion=gd3bj scf=xqc pop=npa geom=c
 heck
 ----------------------------------------------------------------------

 ---------------------------------------
 CID_71997359_JID_10729_Energie_neutraal
 ---------------------------------------
 Structure from the checkpoint file:  "JID_10729.chk"
 Charge =  0 Multiplicity = 1

 SCF Done:  E(RB3LYP) =  -1618.17658319     A.U. after   17 cycles
 Normal termination of Gaussian 16 at Sun Dec 13 21:55:43 2020.

 ----------------------------------------------------------------------
 # B3LYP/6-311++G(d,p) empiricaldispersion=gd3bj scf=xqc pop=npa geom=c
 heck
 ----------------------------------------------------------------------

 -------------------------------------
 CID_71997359_JID_10729_Energie_kation
 -------------------------------------
 Structure from the checkpoint file:  "JID_10729.chk"
 Charge =  1 Multiplicity = 2

 SCF Done:  E(UB3LYP) =  -1617.87711399     A.U. after   31 cycles
 Normal termination of Gaussian 16 at Sun Dec 13 22:29:43 2020.
 Gaussian 16:  ES64L-G16RevA.03 25-Dec-2016

 ----------------------------------------------------------------------
 # B3LYP/6-311++G(d,p) empiricaldispersion=gd3bj scf=xqc pop=npa geom=c
 heck
 ----------------------------------------------------------------------

 ------------------------------------
 CID_71997359_JID_10729_Energie_anion
 ------------------------------------
 Structure from the checkpoint file:  "JID_10729.chk"
 Charge = -1 Multiplicity = 2

                         Standard orientation:
 ---------------------------------------------------------------------
 Center     Atomic      Atomic             Coordinates (Angstroms)
 Number     Number       Type             X           Y           Z
 ---------------------------------------------------------------------
      1          6           0       -3.582035   -1.309730   -1.272730
      2          6           0       -2.832709   -2.629319   -1.095756
      3          7           0       -1.595037   -2.445155   -0.345861
      4          6           0       -0.362394   -2.194179   -0.838643
      5          6           0        0.432022   -1.889449    0.255984
      6          6           0       -0.424468   -1.986639    1.377190
      7          7           0       -1.655235   -2.319883    1.006258
      8         16           0        2.124445   -1.436547    0.290873
      9          8           0        2.289952   -0.662937    1.533484
     10          8           0        3.031454   -2.557278    0.032178
     11          7           0        2.207071   -0.501450   -1.111845
     12          6           0        1.456656    0.760350   -1.188624
     13          6           0        1.920468    1.909303   -0.278095
     14          6           0        3.241355    2.515020   -0.757080
     15          6           0        0.811820    2.978278   -0.189971
     16          6           0       -0.486249    2.433941    0.348294
     17          6           0       -0.686590    1.517484    1.348944
     18          6           0       -2.064297    1.200996    1.563815
     19          6           0       -2.903326    1.879840    0.725413
     20         16           0       -2.014914    2.916517   -0.350217
     21          1           0       -3.796920   -0.865677   -0.297570
     22          1           0       -4.524715   -1.478990   -1.803729
     23          1           0       -2.982865   -0.593097   -1.843700
     24          1           0       -3.432456   -3.353686   -0.539753
     25          1           0       -2.566684   -3.073673   -2.059422
     26          1           0       -0.133961   -2.225860   -1.893099
     27          1           0       -0.176820   -1.822726    2.415824
     28          1           0        3.182589   -0.453193   -1.399208
     29          1           0        1.494323    1.073156   -2.239974
     30          1           0        0.415427    0.515376   -0.969169
     31          1           0        2.074989    1.496903    0.722544
     32          1           0        3.139486    2.946270   -1.761689
     33          1           0        3.580365    3.309296   -0.083216
     34          1           0        4.034741    1.759110   -0.792163
     35          1           0        1.167175    3.800467    0.446067
     36          1           0        0.646295    3.417240   -1.183499
     37          1           0        0.127274    1.055179    1.896253
     38          1           0       -2.408198    0.484202    2.300451
     39          1           0       -3.982907    1.841951    0.676957
 ---------------------------------------------------------------------

 SCF Done:  E(UB3LYP) =  -1618.17033523     A.U. after   33 cycles
 SCF Done:  E(UB3LYP) =  -1618.17033523     a.u. after    1 cycles

 The electronic state is 2-A.
 Alpha  occ. eigenvalues --  -88.97846 -88.79338 -19.02626 -19.02496 -14.31191
 Alpha  occ. eigenvalues --  -14.25589 -14.25171 -10.13256 -10.12713 -10.12363
 Alpha  occ. eigenvalues --  -10.12107 -10.12010 -10.11555 -10.10976 -10.10464
 Alpha  occ. eigenvalues --  -10.09575 -10.09509 -10.08934 -10.08202 -10.07509
 Alpha  occ. eigenvalues --   -8.03920  -7.87955  -6.00208  -6.00147  -6.00057
 Alpha  occ. eigenvalues --   -5.84234  -5.83872  -5.83565  -1.02905  -0.97445
 Alpha  occ. eigenvalues --   -0.91635  -0.84139  -0.80077  -0.77137  -0.73448
 Alpha  occ. eigenvalues --   -0.72237  -0.66867  -0.66241  -0.65167  -0.62042
 Alpha  occ. eigenvalues --   -0.59730  -0.58856  -0.55865  -0.51559  -0.50044
 Alpha  occ. eigenvalues --   -0.49070  -0.48026  -0.45540  -0.44807  -0.43904
 Alpha  occ. eigenvalues --   -0.42300  -0.41854  -0.39561  -0.39079  -0.37622
 Alpha  occ. eigenvalues --   -0.36432  -0.36085  -0.35407  -0.35103  -0.34566
 Alpha  occ. eigenvalues --   -0.33229  -0.32996  -0.31898  -0.30584  -0.30507
 Alpha  occ. eigenvalues --   -0.30007  -0.29421  -0.28872  -0.28397  -0.27192
 Alpha  occ. eigenvalues --   -0.26895  -0.26607  -0.25273  -0.24855  -0.24125
 Alpha  occ. eigenvalues --   -0.23703  -0.22069  -0.21500  -0.18540  -0.18422
 Alpha  occ. eigenvalues --   -0.17351  -0.17035  -0.14976   0.03716
 Alpha virt. eigenvalues --    0.05323   0.05701   0.06483   0.07122   0.07408
 Alpha virt. eigenvalues --    0.07600   0.08079   0.08383   0.09307   0.09407
 Alpha virt. eigenvalues --    0.09697   0.10006   0.10070   0.10659   0.11196

  Beta  occ. eigenvalues --  -88.97844 -88.79336 -19.02619 -19.02488 -14.31156
  Beta  occ. eigenvalues --  -14.25573 -14.25149 -10.13158 -10.12680 -10.12359
  Beta  occ. eigenvalues --  -10.12089 -10.12017 -10.11550 -10.10972 -10.10455
  Beta  occ. eigenvalues --  -10.09574 -10.09508 -10.08932 -10.08174 -10.07473
  Beta  occ. eigenvalues --   -8.03917  -7.87953  -6.00205  -6.00141  -6.00055
  Beta  occ. eigenvalues --   -5.84233  -5.83869  -5.83564  -1.02884  -0.97381
  Beta  occ. eigenvalues --   -0.91619  -0.84103  -0.80071  -0.77080  -0.73424
  Beta  occ. eigenvalues --   -0.72146  -0.66813  -0.66218  -0.65161  -0.61993
  Beta  occ. eigenvalues --   -0.59695  -0.58793  -0.55812  -0.51521  -0.49985
  Beta  occ. eigenvalues --   -0.48979  -0.48013  -0.45499  -0.44762  -0.43861
  Beta  occ. eigenvalues --   -0.42287  -0.41803  -0.39516  -0.38977  -0.37593
  Beta  occ. eigenvalues --   -0.36392  -0.36025  -0.35377  -0.35054  -0.34534
  Beta  occ. eigenvalues --   -0.33199  -0.32966  -0.31887  -0.30523  -0.30473
  Beta  occ. eigenvalues --   -0.29983  -0.29377  -0.28847  -0.28365  -0.27150
  Beta  occ. eigenvalues --   -0.26871  -0.26586  -0.25258  -0.24833  -0.24101
  Beta  occ. eigenvalues --   -0.23678  -0.22037  -0.21465  -0.18433  -0.18284
  Beta  occ. eigenvalues --   -0.17223  -0.17003  -0.14962
  Beta virt. eigenvalues --    0.05572   0.06001   0.06296   0.06987   0.07599
  Beta virt. eigenvalues --    0.07848   0.08023   0.08317   0.08895   0.09465
  Beta virt. eigenvalues --    0.09794   0.09897   0.09998   0.10498   0.10984

 Mulliken charges and spin densities:
               1          2
     1  C    0.313316  -0.764810
     2  C    0.639722  -0.840212
     3  N    0.304534   0.029706
     4  C   -0.415826   0.248200
     5  C    0.289653  -0.554802
     6  C   -0.831471   0.143766
     7  N   -0.233405   0.098211
     8  S    1.280292  -0.580707
     9  O   -0.216411   0.006494
    10  O   -0.113623   0.010992
    11  N   -0.246122   0.034380
    12  C   -0.724720  -0.335269
    13  C    0.086335   0.764434
    14  C    0.571337  -1.208627
    15  C   -0.875732  -0.637727
    16  C   -0.377736   0.612599
    17  C    0.423818   0.224304
    18  C   -0.588201  -0.150868
    19  C   -0.146754   0.095846
    20  S    0.299249  -0.345182
    21  H    0.225578  -0.096778
    22  H   -0.674533   0.849680
    23  H   -0.157334   0.301408
    24  H   -0.191886   0.369231
    25  H   -0.464036   0.628185
    26  H   -0.522217   0.746595
    27  H    0.148868   0.026322
    28  H    0.102220   0.202733
    29  H   -0.566357   0.780911
    30  H    0.961968  -0.633306
    31  H    0.208443   0.003337
    32  H   -0.079664   0.238565
    33  H   -0.062287   0.207527
    34  H    0.046164   0.092521
    35  H    0.171814   0.021471
    36  H   -0.000889   0.178933
    37  H    0.232004  -0.008918
    38  H    0.152139   0.010265
    39  H    0.031751   0.230594
 Sum of Mulliken charges =  -1.00000   1.00000

 Dipole moment (field-independent basis, Debye):
    X=              1.0916    Y=              5.0872    Z=              5.7705  Tot=              7.7698
 Quadrupole moment (field-independent basis, Debye-Ang):
   XX=           -210.2938   YY=           -193.5628   ZZ=           -184.2909
   XY=             -8.7310   XZ=            -11.6183   YZ=             -6.1397

 Summary of Natural Population Analysis:

                                       Natural Population
                Natural  -----------------------------------------------
    Atom  No    Charge         Core      Valence    Rydberg      Total
 -----------------------------------------------------------------------
      C    1   -0.28867      0.99966     2.28372    0.00529     3.28867
      C    2   -0.08166      0.99962     2.07066    0.01138     3.08166
      N    3   -0.09538      0.99966     2.58126    0.01446     3.59538
      C    4    0.03255      0.99948     1.95564    0.01232     2.96745
      C    5   -0.21705      0.99935     2.20379    0.01390     3.21705
      C    6    0.00080      0.99957     1.98555    0.01409     2.99920
      N    7   -0.14670      0.99973     2.63597    0.01100     3.64670
      S    8    1.10966      4.99914     1.78833    0.10287     6.89034
      O    9   -0.47043      0.99991     3.46569    0.00483     4.47043
      O   10   -0.45930      0.99990     3.45407    0.00533     4.45930
      N   11   -0.43117      0.99976     2.91904    0.01237     3.93117
      C   12   -0.09860      0.99958     2.08403    0.01499     3.09860
      C   13   -0.12560      0.99959     2.11691    0.00910     3.12560
      C   14   -0.28429      0.99965     2.27872    0.00592     3.28429
      C   15   -0.20474      0.99956     2.19490    0.01027     3.20474
      C   16   -0.09573      0.99950     2.08342    0.01280     3.09573
      C   17   -0.13596      0.99945     2.12807    0.00844     3.13596
      C   18   -0.12126      0.99954     2.11161    0.01011     3.12126
      C   19   -0.20012      0.99954     2.18941    0.01117     3.20012
      S   20    0.20329      4.99940     2.77740    0.01992     7.79671
      H   21    0.10324      0.00000     0.39536    0.00140     0.39676
      H   22    0.10503      0.00000     0.39269    0.00227     0.39497
      H   23    0.10102      0.00000     0.39717    0.00181     0.39898
      H   24    0.10440      0.00000     0.39402    0.00159     0.39560
      H   25    0.10528      0.00000     0.39103    0.00369     0.39472
      H   26    0.11784      0.00000     0.38051    0.00166     0.38216
      H   27    0.10631      0.00000     0.39276    0.00092     0.39369
      H   28    0.19777      0.00000     0.30020    0.00203     0.30223
      H   29    0.10283      0.00000     0.39532    0.00185     0.39717
      H   30    0.10740      0.00000     0.38918    0.00342     0.39260
      H   31    0.11195      0.00000     0.38572    0.00233     0.38805
      H   32    0.09886      0.00000     0.39999    0.00115     0.40114
      H   33    0.09948      0.00000     0.39977    0.00074     0.40052
      H   34    0.10025      0.00000     0.39875    0.00100     0.39975
      H   35    0.10756      0.00000     0.39139    0.00105     0.39244
      H   36    0.10410      0.00000     0.39487    0.00103     0.39590
      H   37    0.11609      0.00000     0.38237    0.00154     0.38391
      H   38    0.11020      0.00000     0.38883    0.00097     0.38980
      H   39    0.11073      0.00000     0.38828    0.00099     0.38927
 =======================================================================
   * Total *   -0.00000     27.99158    54.66641    0.34201    83.00000

 Normal termination of Gaussian 16 at Sun Dec 13 23:06:16 2020.
