 Gaussian 16, Revision A.03,

 -----------------------------------------------------------
 # opt freq B3LYP/6-31G(d) empiricaldispersion=gd3bj scf=xqc
 -----------------------------------------------------------

 ------------------------------
 CID_10131204_JID_9645_neutraal
 ------------------------------
 Symbolic Z-matrix:
 Charge =  0 Multiplicity = 1

 SCF Done:  E(RB3LYP) =  -753.386268038     A.U. after   14 cycles
 SCF Done:  E(RB3LYP) =  -753.388419014     A.U. after   12 cycles
 SCF Done:  E(RB3LYP) =  -753.389557954     A.U. after   14 cycles
 SCF Done:  E(RB3LYP) =  -753.390702893     A.U. after   14 cycles
 SCF Done:  E(RB3LYP) =  -753.391443076     A.U. after   12 cycles
 SCF Done:  E(RB3LYP) =  -753.391306931     A.U. after   15 cycles
 SCF Done:  E(RB3LYP) =  -753.392353160     A.U. after   13 cycles
 SCF Done:  E(RB3LYP) =  -753.392477295     A.U. after   12 cycles
 SCF Done:  E(RB3LYP) =  -753.392497547     A.U. after   11 cycles
 SCF Done:  E(RB3LYP) =  -753.392503889     A.U. after    9 cycles
 SCF Done:  E(RB3LYP) =  -753.392505646     A.U. after    9 cycles
 SCF Done:  E(RB3LYP) =  -753.392506226     A.U. after    8 cycles
 SCF Done:  E(RB3LYP) =  -753.392506387     A.U. after    7 cycles
 SCF Done:  E(RB3LYP) =  -753.392506486     A.U. after    7 cycles
 Optimization completed.
    -- Stationary point found.
 Normal termination of Gaussian 16 at Mon Dec 14 17:08:34 2020.

 --------------------------------------------------------------------
 #N Geom=AllCheck Guess=TCheck SCRF=Check GenChk RB3LYP/6-31G(d) Freq
 --------------------------------------------------------------------

 Structure from the checkpoint file:  "JID_9645.chk"
 ------------------------------
 CID_10131204_JID_9645_neutraal
 ------------------------------
 Charge =  0 Multiplicity = 1

 SCF Done:  E(RB3LYP) =  -753.392506486     A.U. after    1 cycles

  Exact polarizability: 240.045  28.440 182.940  -5.313  15.981 153.166
 Approx polarizability: 341.994  46.812 270.227 -14.782  38.734 268.170

                      1                      2                      3
                      A                      A                      A
 Frequencies --     22.7524                25.4896                31.0021
 Red. masses --      1.0658                 2.5891                 3.5724
 Frc consts  --      0.0003                 0.0010                 0.0020
 IR Inten    --      0.2660                 0.1497                 0.0796

                      4                      5                      6
                      A                      A                      A
 Frequencies --     48.4643                76.8259                82.6324
 Red. masses --      3.9828                 4.0866                 4.0903
 Frc consts  --      0.0055                 0.0142                 0.0165
 IR Inten    --      0.0911                 0.0954                 0.2618

                      7                      8                      9
                      A                      A                      A
 Frequencies --     99.2419               141.0657               185.1827
 Red. masses --      3.9761                 3.8214                 3.8077
 Frc consts  --      0.0231                 0.0448                 0.0769
 IR Inten    --      0.3220                 0.7846                 1.0107

                     10                     11                     12
                      A                      A                      A
 Frequencies --    217.8601               238.2622               259.3528
 Red. masses --      2.0309                 1.5186                 2.1356
 Frc consts  --      0.0568                 0.0508                 0.0846
 IR Inten    --      0.1088                 0.1684                 0.1928

                     13                     14                     15
                      A                      A                      A
 Frequencies --    284.2518               288.6952               294.7477
 Red. masses --      1.1464                 2.9383                 2.3254
 Frc consts  --      0.0546                 0.1443                 0.1190
 IR Inten    --      0.1156                 0.0988                 0.9540

                     16                     17                     18
                      A                      A                      A
 Frequencies --    321.2140               345.4115               360.7009
 Red. masses --      1.5501                 2.8581                 2.8778
 Frc consts  --      0.0942                 0.2009                 0.2206
 IR Inten    --      0.3504                 0.5328                 0.8170

                     19                     20                     21
                      A                      A                      A
 Frequencies --    376.2347               387.1265               418.4821
 Red. masses --      2.4981                 2.6578                 2.9480
 Frc consts  --      0.2083                 0.2347                 0.3042
 IR Inten    --      0.2805                 0.1678                 0.4114

                     22                     23                     24
                      A                      A                      A
 Frequencies --    424.1617               428.4277               470.1384
 Red. masses --      2.6084                 2.8651                 3.3629
 Frc consts  --      0.2765                 0.3098                 0.4379
 IR Inten    --      1.3887                 0.8686                 5.0393

                     25                     26                     27
                      A                      A                      A
 Frequencies --    519.4566               540.9287               564.6278
 Red. masses --      3.8926                 4.5098                 3.1697
 Frc consts  --      0.6189                 0.7775                 0.5954
 IR Inten    --      1.1823                 2.0550                 4.5902

                     28                     29                     30
                      A                      A                      A
 Frequencies --    585.4424               619.9514               659.0772
 Red. masses --      5.4192                 3.6914                 6.6704
 Frc consts  --      1.0943                 0.8359                 1.7072
 IR Inten    --      1.3252                 7.1158                 0.3943

                     31                     32                     33
                      A                      A                      A
 Frequencies --    682.9725               699.9552               727.5183
 Red. masses --      4.2515                 4.2772                 4.3171
 Frc consts  --      1.1684                 1.2347                 1.3463
 IR Inten    --      4.9761                 1.3936                 3.7375

                     34                     35                     36
                      A                      A                      A
 Frequencies --    735.0042               773.5970               778.2520
 Red. masses --      3.1665                 1.8152                 2.6225
 Frc consts  --      1.0079                 0.6400                 0.9358
 IR Inten    --      2.6592                35.4846                16.8850

                     37                     38                     39
                      A                      A                      A
 Frequencies --    827.9074               838.9428               855.4485
 Red. masses --      3.8166                 1.7035                 1.2918
 Frc consts  --      1.5413                 0.7064                 0.5570
 IR Inten    --      1.2281                15.3867                 0.8833

                     40                     41                     42
                      A                      A                      A
 Frequencies --    862.4565               883.2545               907.9451
 Red. masses --      2.1388                 2.2063                 1.9708
 Frc consts  --      0.9373                 1.0141                 0.9572
 IR Inten    --      3.0569                 7.6930                 8.1538

                     43                     44                     45
                      A                      A                      A
 Frequencies --    920.2645               937.5956               943.2833
 Red. masses --      1.6504                 1.6600                 1.5754
 Frc consts  --      0.8235                 0.8598                 0.8259
 IR Inten    --      2.8939                 0.3227                 0.2392

                     46                     47                     48
                      A                      A                      A
 Frequencies --    960.5065               965.7477               967.7321
 Red. masses --      1.4050                 1.3504                 1.2822
 Frc consts  --      0.7637                 0.7420                 0.7075
 IR Inten    --      3.7562                 0.7272                 1.4597

                     49                     50                     51
                      A                      A                      A
 Frequencies --    976.2700               988.6793              1020.9883
 Red. masses --      1.1996                 1.2586                 1.4100
 Frc consts  --      0.6736                 0.7249                 0.8660
 IR Inten    --      0.1476                 0.0620                 0.0446

                     52                     53                     54
                      A                      A                      A
 Frequencies --   1028.2593              1053.4581              1064.5550
 Red. masses --      6.4055                 2.7754                 1.3793
 Frc consts  --      3.9903                 1.8148                 0.9210
 IR Inten    --      5.9092                 0.1135                 1.4361

                     55                     56                     57
                      A                      A                      A
 Frequencies --   1069.7953              1075.8702              1083.4045
 Red. masses --      1.3988                 1.5250                 2.1985
 Frc consts  --      0.9432                 1.0400                 1.5204
 IR Inten    --      2.2866                14.9557                 0.8479

                     58                     59                     60
                      A                      A                      A
 Frequencies --   1137.4486              1154.4424              1197.6623
 Red. masses --      1.8806                 1.3209                 1.0976
 Frc consts  --      1.4335                 1.0372                 0.9276
 IR Inten    --      1.8398                 4.3142                 0.1483

                     61                     62                     63
                      A                      A                      A
 Frequencies --   1218.3924              1223.6713              1247.8628
 Red. masses --      2.6155                 1.1354                 3.0610
 Frc consts  --      2.2876                 1.0016                 2.8083
 IR Inten    --      7.8088                 2.7117                 6.3033

                     64                     65                     66
                      A                      A                      A
 Frequencies --   1249.1022              1267.8291              1268.2450
 Red. masses --      2.3510                 2.7897                 2.7661
 Frc consts  --      2.1612                 2.6420                 2.6214
 IR Inten    --     25.2530                30.3463                12.7150

                     67                     68                     69
                      A                      A                      A
 Frequencies --   1293.2543              1312.3752              1336.1289
 Red. masses --      1.7582                 3.2546                 3.7936
 Frc consts  --      1.7326                 3.3027                 3.9902
 IR Inten    --      0.0709                 1.6150                 0.1525

                     70                     71                     72
                      A                      A                      A
 Frequencies --   1345.6153              1354.4738              1418.1408
 Red. masses --      4.1614                 1.5909                 1.2325
 Frc consts  --      4.4395                 1.7197                 1.4604
 IR Inten    --      0.3194                 0.2309                 7.3147

                     73                     74                     75
                      A                      A                      A
 Frequencies --   1425.5021              1432.5356              1442.8685
 Red. masses --      1.2428                 1.2066                 1.2472
 Frc consts  --      1.4879                 1.4588                 1.5298
 IR Inten    --      3.3574                12.1418                 0.4344

                     76                     77                     78
                      A                      A                      A
 Frequencies --   1452.7085              1455.9244              1488.0883
 Red. masses --      2.4560                 1.2373                 2.1958
 Frc consts  --      3.0538                 1.5453                 2.8648
 IR Inten    --      2.2973                 8.3531                 4.7314

                     79                     80                     81
                      A                      A                      A
 Frequencies --   1506.1714              1517.7572              1518.2277
 Red. masses --      1.0511                 1.0469                 1.0525
 Frc consts  --      1.4049                 1.4209                 1.4294
 IR Inten    --      0.2066                 0.8307                 5.1704

                     82                     83                     84
                      A                      A                      A
 Frequencies --   1519.4051              1520.3863              1528.3312
 Red. masses --      1.0679                 1.1598                 1.8116
 Frc consts  --      1.4526                 1.5796                 2.4932
 IR Inten    --      2.0936                 8.2101                15.2087

                     85                     86                     87
                      A                      A                      A
 Frequencies --   1529.1387              1537.3436              1550.9167
 Red. masses --      1.1397                 1.0806                 1.0542
 Frc consts  --      1.5701                 1.5048                 1.4940
 IR Inten    --      6.3744                 0.9908                10.8506

                     88                     89                     90
                      A                      A                      A
 Frequencies --   1570.5802              1617.8850              1632.0678
 Red. masses --      2.7078                 5.2977                 6.0540
 Frc consts  --      3.9354                 8.1702                 9.5010
 IR Inten    --     11.8380                 1.6173                 0.2921

                     91                     92                     93
                      A                      A                      A
 Frequencies --   1656.9862              1677.0204              1750.1166
 Red. masses --      5.6660                 5.8448                11.9487
 Frc consts  --      9.1657                 9.6850                21.5628
 IR Inten    --      3.2877                 2.0527                71.8173

                     94                     95                     96
                      A                      A                      A
 Frequencies --   3041.4619              3049.2643              3050.5491
 Red. masses --      1.0410                 1.0347                 1.0840
 Frc consts  --      5.6734                 5.6685                 5.9433
 IR Inten    --     39.1044                20.6969                50.4156

                     97                     98                     99
                      A                      A                      A
 Frequencies --   3052.6011              3061.6099              3099.1987
 Red. masses --      1.0358                 1.0399                 1.0950
 Frc consts  --      5.6869                 5.7433                 6.1970
 IR Inten    --     18.0486                25.7658                20.0603

                    100                    101                    102
                      A                      A                      A
 Frequencies --   3117.5132              3121.7478              3126.6344
 Red. masses --      1.1017                 1.1005                 1.1028
 Frc consts  --      6.3087                 6.3191                 6.3519
 IR Inten    --      8.0012                 6.4310                13.9280

                    103                    104                    105
                      A                      A                      A
 Frequencies --   3126.8284              3131.2326              3135.5116
 Red. masses --      1.0996                 1.1031                 1.1023
 Frc consts  --      6.3342                 6.3722                 6.3854
 IR Inten    --     57.3353                22.0524                38.5329

                    106                    107                    108
                      A                      A                      A
 Frequencies --   3161.5517              3177.8118              3180.9510
 Red. masses --      1.1008                 1.0875                 1.0886
 Frc consts  --      6.4829                 6.4706                 6.4898
 IR Inten    --     18.3890                19.5278                20.0273

                    109                    110                    111
                      A                      A                      A
 Frequencies --   3184.4054              3191.8028              3199.0928
 Red. masses --      1.0851                 1.0888                 1.0933
 Frc consts  --      6.4828                 6.5351                 6.5926
 IR Inten    --      0.9586                 6.8750                 7.9053

                    112                    113                    114
                      A                      A                      A
 Frequencies --   3202.1893              3212.3922              3212.9716
 Red. masses --      1.0927                 1.0968                 1.0934
 Frc consts  --      6.6015                 6.6685                 6.6503
 IR Inten    --     27.8532                26.9427                11.6853

 - Thermochemistry -
 -------------------
 Temperature   298.150 Kelvin.  Pressure   1.00000 Atm.
 Atom     1 has atomic number  6 and mass  12.00000

 Molecular mass:   251.16740 amu.
 Principal axes and moments of inertia in atomic units:
                           1         2         3
     Eigenvalues --  3614.495536114.055718281.71819
           X            0.99997  -0.00701   0.00449
           Y            0.00704   0.99996  -0.00522
           Z           -0.00446   0.00525   0.99998
 This molecule is an asymmetric top.
 Rotational symmetry number  1.
 Warning -- assumption of classical behavior for rotation
           may cause significant error
 Rotational temperatures (Kelvin)      0.02396     0.01417     0.01046
 Rotational constants (GHZ):           0.49931     0.29518     0.21792
 Zero-point vibrational energy     904010.8 (Joules/Mol)
                                  216.06376 (Kcal/Mol)
 Warning -- explicit consideration of  29 degrees of freedom as
           vibrations may cause significant error
 Vibrational temperatures:     32.74    36.67    44.61    69.73   110.54
          (Kelvin)            118.89   142.79   202.96   266.44   313.45
                              342.81   373.15   408.97   415.37   424.08
                              462.16   496.97   518.97   541.32   556.99
                              602.10   610.27   616.41   676.42   747.38
                              778.28   812.37   842.32   891.97   948.27
                              982.65  1007.08  1046.74  1057.51  1113.03
                             1119.73  1191.17  1207.05  1230.80  1240.88
                             1270.81  1306.33  1324.06  1348.99  1357.17
                             1381.95  1389.50  1392.35  1404.63  1422.49
                             1468.97  1479.44  1515.69  1531.66  1539.20
                             1547.94  1558.78  1636.53  1660.99  1723.17
                             1752.99  1760.59  1795.40  1797.18  1824.12
                             1824.72  1860.70  1888.22  1922.39  1936.04
                             1948.79  2040.39  2050.98  2061.10  2075.97
                             2090.12  2094.75  2141.03  2167.04  2183.71
                             2184.39  2186.09  2187.50  2198.93  2200.09
                             2211.89  2231.42  2259.71  2327.78  2348.18
                             2384.03  2412.86  2518.03  4375.99  4387.21
                             4389.06  4392.01  4404.97  4459.06  4485.41
                             4491.50  4498.53  4498.81  4505.15  4511.30
                             4548.77  4572.16  4576.68  4581.65  4592.29
                             4602.78  4607.24  4621.92  4622.75

 Zero-point correction=                           0.344320 (Hartree/Particle)
 Thermal correction to Energy=                    0.362720
 Thermal correction to Enthalpy=                  0.363664
 Thermal correction to Gibbs Free Energy=         0.296121
 Sum of electronic and zero-point Energies=           -753.048187
 Sum of electronic and thermal Energies=              -753.029786
 Sum of electronic and thermal Enthalpies=            -753.028842
 Sum of electronic and thermal Free Energies=         -753.096386

                     E (Thermal)             CV                S
                      KCal/Mol        Cal/Mol-Kelvin    Cal/Mol-Kelvin
 Total                  227.610             71.308            142.157
 Electronic               0.000              0.000              0.000
 Translational            0.889              2.981             42.463
 Rotational               0.889              2.981             33.570
 Vibrational            225.833             65.347             66.124
 Vibration     1          0.593              1.985              6.378
 Vibration     2          0.593              1.985              6.153
 Vibration     3          0.594              1.984              5.764
 Vibration     4          0.595              1.978              4.879
 Vibration     5          0.599              1.965              3.970
 Vibration     6          0.600              1.961              3.827
 Vibration     7          0.604              1.950              3.469
 Vibration     8          0.615              1.912              2.789
 Vibration     9          0.631              1.860              2.276
 Vibration    10          0.646              1.814              1.977
 Vibration    11          0.656              1.782              1.816
 Vibration    12          0.668              1.747              1.666
 Vibration    13          0.683              1.703              1.508
 Vibration    14          0.685              1.695              1.482
 Vibration    15          0.689              1.684              1.447
 Vibration    16          0.707              1.633              1.304
 Vibration    17          0.724              1.585              1.187
 Vibration    18          0.735              1.553              1.119
 Vibration    19          0.747              1.521              1.054
 Vibration    20          0.756              1.498              1.011
 Vibration    21          0.781              1.430              0.897
 Vibration    22          0.786              1.418              0.878
 Vibration    23          0.790              1.408              0.864
 Vibration    24          0.827              1.316              0.737
 Vibration    25          0.874              1.207              0.611
 Vibration    26          0.896              1.160              0.563
 Vibration    27          0.920              1.108              0.515
 Vibration    28          0.942              1.063              0.475
 Vibration    29          0.980              0.990              0.417

                           ! Non-Optimized Parameters !
 Normal termination of Gaussian 16 at Mon Dec 14 17:28:19 2020.

 ----------------------------------------------------------------------
 # B3LYP/6-311++G(d,p) empiricaldispersion=gd3bj scf=xqc pop=npa geom=c
 heck
 ----------------------------------------------------------------------

 --------------------------------------
 CID_10131204_JID_9645_Energie_neutraal
 --------------------------------------
 Structure from the checkpoint file:  "JID_9645.chk"
 Charge =  0 Multiplicity = 1

 SCF Done:  E(RB3LYP) =  -753.584433194     A.U. after   15 cycles
 Normal termination of Gaussian 16 at Mon Dec 14 17:36:05 2020.

 ----------------------------------------------------------------------
 # B3LYP/6-311++G(d,p) empiricaldispersion=gd3bj scf=xqc pop=npa geom=c
 heck
 ----------------------------------------------------------------------

 ------------------------------------
 CID_10131204_JID_9645_Energie_kation
 ------------------------------------
 Structure from the checkpoint file:  "JID_9645.chk"
 Charge =  1 Multiplicity = 2

 SCF Done:  E(UB3LYP) =  -753.295275571     A.U. after   26 cycles
 Normal termination of Gaussian 16 at Mon Dec 14 17:54:06 2020.
 Gaussian 16:  ES64L-G16RevA.03 25-Dec-2016

 ----------------------------------------------------------------------
 # B3LYP/6-311++G(d,p) empiricaldispersion=gd3bj scf=xqc pop=npa geom=c
 heck
 ----------------------------------------------------------------------

 -----------------------------------
 CID_10131204_JID_9645_Energie_anion
 -----------------------------------
 Structure from the checkpoint file:  "JID_9645.chk"
 Charge = -1 Multiplicity = 2

                         Standard orientation:
 ---------------------------------------------------------------------
 Center     Atomic      Atomic             Coordinates (Angstroms)
 Number     Number       Type             X           Y           Z
 ---------------------------------------------------------------------
      1          6           0       -5.141196   -0.873064    0.032044
      2          6           0       -3.753095   -0.283201   -0.008343
      3          6           0       -3.043228   -0.190371   -1.211505
      4          6           0       -1.771142    0.372824   -1.257642
      5          6           0       -1.159016    0.865028   -0.096490
      6          6           0       -1.871920    0.777279    1.108599
      7          6           0       -3.143102    0.210004    1.150627
      8          6           0        0.196552    1.470242   -0.116222
      9          6           0        0.411814    2.688132    0.545648
     10          6           0        1.671349    3.281460    0.587346
     11          6           0        2.748646    2.662425   -0.045005
     12          6           0        2.553180    1.449350   -0.703305
     13          6           0        1.295265    0.835867   -0.733799
     14          6           0        1.180188   -0.478378   -1.451802
     15          7           0        1.420743   -1.664066   -1.067822
     16          6           0        1.851531   -2.070356    0.284267
     17          6           0        3.390984   -2.064980    0.277834
     18          6           0        1.322188   -1.235678    1.464755
     19          6           0        1.343469   -3.515702    0.438026
     20          1           0       -5.903701   -0.107381   -0.163559
     21          1           0       -5.265611   -1.655459   -0.723887
     22          1           0       -5.361942   -1.308994    1.011864
     23          1           0       -3.494745   -0.563189   -2.127746
     24          1           0       -1.255781    0.446073   -2.209535
     25          1           0       -1.409054    1.132636    2.024869
     26          1           0       -3.667000    0.141213    2.101064
     27          1           0       -0.432919    3.178778    1.020457
     28          1           0        1.807132    4.227967    1.102746
     29          1           0        3.734536    3.117914   -0.026391
     30          1           0        3.389175    0.957258   -1.192317
     31          1           0        0.896585   -0.387690   -2.508342
     32          1           0        3.773537   -2.634600   -0.575184
     33          1           0        3.774404   -1.041661    0.212997
     34          1           0        3.774435   -2.517818    1.199149
     35          1           0        0.235714   -1.121626    1.404260
     36          1           0        1.555014   -1.755616    2.401277
     37          1           0        1.772498   -0.242962    1.514186
     38          1           0        0.248192   -3.536819    0.425598
     39          1           0        1.702648   -4.133676   -0.390210
     40          1           0        1.686870   -3.951159    1.383242
 ---------------------------------------------------------------------

 SCF Done:  E(UB3LYP) =  -753.575945492     A.U. after   33 cycles
 SCF Done:  E(UB3LYP) =  -753.575945492     a.u. after    1 cycles

 The electronic state is 2-A.
 Alpha  occ. eigenvalues --  -14.18362 -10.09922 -10.09430 -10.05849 -10.05541
 Alpha  occ. eigenvalues --  -10.05285 -10.05212 -10.04880 -10.04814 -10.04685
 Alpha  occ. eigenvalues --  -10.04619 -10.04519 -10.04507 -10.04410 -10.04348
 Alpha  occ. eigenvalues --  -10.04195 -10.04120 -10.03987 -10.03916  -0.80464
 Alpha  occ. eigenvalues --   -0.74233  -0.72452  -0.68506  -0.66352  -0.63017
 Alpha  occ. eigenvalues --   -0.61996  -0.61781  -0.58226  -0.57388  -0.56348
 Alpha  occ. eigenvalues --   -0.52308  -0.49084  -0.48384  -0.47070  -0.45085
 Alpha  occ. eigenvalues --   -0.41860  -0.39272  -0.36889  -0.35718  -0.34947
 Alpha  occ. eigenvalues --   -0.34267  -0.33415  -0.33079  -0.32569  -0.32180
 Alpha  occ. eigenvalues --   -0.31070  -0.30302  -0.29517  -0.29151  -0.28863
 Alpha  occ. eigenvalues --   -0.28152  -0.27365  -0.26383  -0.25715  -0.25174
 Alpha  occ. eigenvalues --   -0.24521  -0.23768  -0.23515  -0.22745  -0.21578
 Alpha  occ. eigenvalues --   -0.21436  -0.21208  -0.17784  -0.14741  -0.13253
 Alpha  occ. eigenvalues --   -0.13120  -0.12331  -0.10452   0.05223
 Alpha virt. eigenvalues --    0.07227   0.07472   0.08260   0.08687   0.09093
 Alpha virt. eigenvalues --    0.09583   0.09735   0.10051   0.10215   0.10493
 Alpha virt. eigenvalues --    0.10788   0.11386   0.11574   0.11850   0.12226

  Beta  occ. eigenvalues --  -14.18331 -10.09924 -10.09418 -10.05861 -10.05527
  Beta  occ. eigenvalues --  -10.05275 -10.05156 -10.04863 -10.04807 -10.04679
  Beta  occ. eigenvalues --  -10.04529 -10.04478 -10.04413 -10.04298 -10.04197
  Beta  occ. eigenvalues --  -10.04069 -10.04010 -10.03910 -10.03735  -0.80393
  Beta  occ. eigenvalues --   -0.73936  -0.72217  -0.68464  -0.65976  -0.62809
  Beta  occ. eigenvalues --   -0.61773  -0.61553  -0.58205  -0.57369  -0.56154
  Beta  occ. eigenvalues --   -0.52197  -0.48924  -0.48063  -0.46986  -0.44834
  Beta  occ. eigenvalues --   -0.41739  -0.39187  -0.36749  -0.35640  -0.34814
  Beta  occ. eigenvalues --   -0.34146  -0.33365  -0.32958  -0.32407  -0.32084
  Beta  occ. eigenvalues --   -0.30810  -0.30249  -0.29470  -0.29108  -0.28738
  Beta  occ. eigenvalues --   -0.28060  -0.27292  -0.26337  -0.25696  -0.24844
  Beta  occ. eigenvalues --   -0.24295  -0.23632  -0.23297  -0.22455  -0.21393
  Beta  occ. eigenvalues --   -0.21315  -0.21038  -0.17661  -0.13552  -0.12742
  Beta  occ. eigenvalues --   -0.12715  -0.12245  -0.09389
  Beta virt. eigenvalues --    0.07210   0.07538   0.08183   0.08718   0.09073
  Beta virt. eigenvalues --    0.09348   0.09618   0.09817   0.09993   0.10335
  Beta virt. eigenvalues --    0.10595   0.11051   0.11436   0.11623   0.11811

 Mulliken charges and spin densities:
               1          2
     1  C    0.034550  -0.725500
     2  C   -0.003848   0.517122
     3  C   -0.613213   0.129068
     4  C   -0.553930   0.158849
     5  C    0.897321  -0.112043
     6  C   -0.297886  -0.004799
     7  C   -0.492928  -0.018926
     8  C    0.654962   0.075892
     9  C   -0.477443   0.061579
    10  C   -0.246447   0.004000
    11  C   -0.523889   0.245737
    12  C   -0.311822  -0.111370
    13  C    0.909368   0.168133
    14  C   -0.673016  -0.294508
    15  N    0.213100   0.025621
    16  C   -0.465011   0.358666
    17  C   -0.264391  -0.263969
    18  C   -0.332870  -0.183875
    19  C   -0.257142  -0.183888
    20  H    0.182948  -0.039495
    21  H   -0.017651   0.151890
    22  H   -0.090492   0.226000
    23  H    0.070809   0.064563
    24  H    0.130197   0.005598
    25  H    0.064151   0.087621
    26  H   -0.018397   0.160062
    27  H    0.145880  -0.010778
    28  H    0.126793   0.000176
    29  H    0.083658   0.020971
    30  H    0.122741   0.018682
    31  H    0.128614   0.050897
    32  H    0.091065   0.062232
    33  H    0.120647   0.027188
    34  H    0.032495   0.084145
    35  H    0.242864  -0.075777
    36  H    0.021776   0.123649
    37  H    0.133652   0.026535
    38  H    0.106548   0.041762
    39  H    0.081581   0.066532
    40  H    0.044655   0.061755
 Sum of Mulliken charges =  -1.00000   1.00000

 Dipole moment (field-independent basis, Debye):
    X=              1.4971    Y=              0.8631    Z=              0.0053  Tot=              1.7281
 Quadrupole moment (field-independent basis, Debye-Ang):
   XX=           -163.9502   YY=           -152.2695   ZZ=           -134.7733
   XY=             -4.1661   XZ=              3.2464   YZ=              1.3242

 Summary of Natural Population Analysis:

                                       Natural Population
                Natural  -----------------------------------------------
    Atom  No    Charge         Core      Valence    Rydberg      Total
 -----------------------------------------------------------------------
      C    1   -0.29307      0.99964     2.28814    0.00529     3.29307
      C    2    0.01454      0.99952     1.97760    0.00834     2.98546
      C    3   -0.11477      0.99952     2.10565    0.00960     3.11477
      C    4   -0.07124      0.99953     2.06358    0.00814     3.07124
      C    5   -0.01067      0.99949     2.00108    0.01009     3.01067
      C    6   -0.08483      0.99953     2.07653    0.00877     3.08483
      C    7   -0.11156      0.99952     2.10255    0.00949     3.11156
      C    8    0.01453      0.99945     1.97490    0.01112     2.98547
      C    9   -0.08684      0.99953     2.07986    0.00746     3.08684
      C   10   -0.10558      0.99957     2.09729    0.00872     3.10558
      C   11   -0.06633      0.99957     2.05751    0.00926     3.06633
      C   12   -0.11207      0.99952     2.10429    0.00826     3.11207
      C   13   -0.03357      0.99945     2.02407    0.01006     3.03357
      C   14    0.08284      0.99959     1.89922    0.01835     2.91716
      N   15   -0.23499      0.99967     2.72163    0.01368     3.73499
      C   16    0.04069      0.99958     1.94758    0.01215     2.95931
      C   17   -0.28395      0.99962     2.27865    0.00568     3.28395
      C   18   -0.29953      0.99962     2.29242    0.00749     3.29953
      C   19   -0.28012      0.99963     2.27428    0.00621     3.28012
      H   20    0.09868      0.00000     0.40051    0.00081     0.40132
      H   21    0.09951      0.00000     0.39966    0.00083     0.40049
      H   22    0.10022      0.00000     0.39885    0.00093     0.39978
      H   23    0.09264      0.00000     0.40651    0.00085     0.40736
      H   24    0.09543      0.00000     0.40322    0.00135     0.40457
      H   25    0.09692      0.00000     0.40167    0.00141     0.40308
      H   26    0.09335      0.00000     0.40571    0.00094     0.40665
      H   27    0.09681      0.00000     0.40208    0.00111     0.40319
      H   28    0.09205      0.00000     0.40698    0.00097     0.40795
      H   29    0.08942      0.00000     0.40925    0.00133     0.41058
      H   30    0.09470      0.00000     0.40375    0.00156     0.40530
      H   31    0.08191      0.00000     0.41665    0.00144     0.41809
      H   32    0.09959      0.00000     0.39945    0.00097     0.40041
      H   33    0.10237      0.00000     0.39668    0.00095     0.39763
      H   34    0.09541      0.00000     0.40370    0.00090     0.40459
      H   35    0.11022      0.00000     0.38875    0.00103     0.38978
      H   36    0.09475      0.00000     0.40451    0.00074     0.40525
      H   37    0.10837      0.00000     0.39065    0.00098     0.39163
      H   38    0.10289      0.00000     0.39609    0.00102     0.39711
      H   39    0.09976      0.00000     0.39913    0.00111     0.40024
      H   40    0.09152      0.00000     0.40769    0.00079     0.40848
 =======================================================================
   * Total *    0.00000     18.99154    48.80829    0.20017    68.00000

 Normal termination of Gaussian 16 at Mon Dec 14 18:17:12 2020.
