 Gaussian 16, Revision A.03,

 -----------------------------------------------------------
 # opt freq B3LYP/6-31G(d) empiricaldispersion=gd3bj scf=xqc
 -----------------------------------------------------------

 -------------------------------
 CID_148418998_JID_1613_neutraal
 -------------------------------
 Symbolic Z-matrix:
 Charge =  0 Multiplicity = 1

 SCF Done:  E(RB3LYP) =  -587.082289191     A.U. after   14 cycles
 SCF Done:  E(RB3LYP) =  -587.091891031     A.U. after   13 cycles
 SCF Done:  E(RB3LYP) =  -587.094807933     A.U. after   12 cycles
 SCF Done:  E(RB3LYP) =  -587.096074286     A.U. after   12 cycles
 SCF Done:  E(RB3LYP) =  -587.096558584     A.U. after   11 cycles
 SCF Done:  E(RB3LYP) =  -587.096892659     A.U. after   11 cycles
 SCF Done:  E(RB3LYP) =  -587.096977372     A.U. after   10 cycles
 SCF Done:  E(RB3LYP) =  -587.097010003     A.U. after   10 cycles
 SCF Done:  E(RB3LYP) =  -587.097024640     A.U. after    9 cycles
 SCF Done:  E(RB3LYP) =  -587.097031276     A.U. after    9 cycles
 SCF Done:  E(RB3LYP) =  -587.097033574     A.U. after    8 cycles
 SCF Done:  E(RB3LYP) =  -587.097034060     A.U. after    8 cycles
 SCF Done:  E(RB3LYP) =  -587.097034171     A.U. after    7 cycles
 Optimization completed.
    -- Stationary point found.
 Normal termination of Gaussian 16 at Tue Dec  8 19:47:05 2020.

 --------------------------------------------------------------------
 #N Geom=AllCheck Guess=TCheck SCRF=Check GenChk RB3LYP/6-31G(d) Freq
 --------------------------------------------------------------------

 Structure from the checkpoint file:  "JID_1613.chk"
 -------------------------------
 CID_148418998_JID_1613_neutraal
 -------------------------------
 Charge =  0 Multiplicity = 1

 SCF Done:  E(RB3LYP) =  -587.097034171     A.U. after    1 cycles

  Exact polarizability:  88.855   0.093  79.548  -3.565   0.292  67.116
 Approx polarizability: 121.969  -0.607 110.262 -10.110   5.217 103.366

                      1                      2                      3
                      A                      A                      A
 Frequencies --     51.7737                84.7170               175.3193
 Red. masses --      4.8545                 5.2741                 4.3800
 Frc consts  --      0.0077                 0.0223                 0.0793
 IR Inten    --      2.7804                 1.5041                 1.0333

                      4                      5                      6
                      A                      A                      A
 Frequencies --    185.4226               211.3955               259.7705
 Red. masses --      1.0442                 3.9309                 3.0429
 Frc consts  --      0.0212                 0.1035                 0.1210
 IR Inten    --      0.4686                 6.4483                 8.3243

                      7                      8                      9
                      A                      A                      A
 Frequencies --    320.8900               331.6752               358.0903
 Red. masses --      3.5609                 3.2329                 1.6589
 Frc consts  --      0.2160                 0.2095                 0.1253
 IR Inten    --      1.6793                 2.1436                43.9086

                     10                     11                     12
                      A                      A                      A
 Frequencies --    378.9240               417.4113               433.5890
 Red. masses --      3.4247                 2.1230                 1.9252
 Frc consts  --      0.2897                 0.2179                 0.2132
 IR Inten    --     18.8237                35.9198                17.1786

                     13                     14                     15
                      A                      A                      A
 Frequencies --    450.6551               531.0149               573.2676
 Red. masses --      1.9791                 2.3373                 1.9620
 Frc consts  --      0.2368                 0.3883                 0.3799
 IR Inten    --     54.1925                47.2952                46.7532

                     16                     17                     18
                      A                      A                      A
 Frequencies --    616.7008               622.3914               636.7065
 Red. masses --      3.0811                 3.5678                 3.4728
 Frc consts  --      0.6904                 0.8143                 0.8295
 IR Inten    --     52.0853                13.0687                25.0469

                     19                     20                     21
                      A                      A                      A
 Frequencies --    702.5942               792.0699               811.7400
 Red. masses --      3.9420                 6.4395                 4.0251
 Frc consts  --      1.1465                 2.3803                 1.5626
 IR Inten    --     42.0257                36.6686                 9.5664

                     22                     23                     24
                      A                      A                      A
 Frequencies --    919.9615               944.2898              1023.5616
 Red. masses --      3.6548                 3.6315                 2.8067
 Frc consts  --      1.8225                 1.9078                 1.7325
 IR Inten    --      4.1576                53.6184                14.1515

                     25                     26                     27
                      A                      A                      A
 Frequencies --   1040.0095              1047.3382              1085.1541
 Red. masses --      2.7180                 3.1056                 5.1586
 Frc consts  --      1.7321                 2.0071                 3.5790
 IR Inten    --     26.4498               217.0058               156.0476

                     28                     29                     30
                      A                      A                      A
 Frequencies --   1124.5112              1152.6967              1168.9820
 Red. masses --      2.6962                 2.3913                 1.8279
 Frc consts  --      2.0088                 1.8720                 1.4717
 IR Inten    --     21.3220                24.0366                34.4707

                     31                     32                     33
                      A                      A                      A
 Frequencies --   1190.5527              1207.1019              1251.6831
 Red. masses --      2.4126                 3.7101                 2.0549
 Frc consts  --      2.0148                 3.1851                 1.8969
 IR Inten    --     21.3302               162.8789                32.6734

                     34                     35                     36
                      A                      A                      A
 Frequencies --   1291.2249              1326.1033              1352.7751
 Red. masses --      1.4537                 1.3241                 1.6954
 Frc consts  --      1.4280                 1.3719                 1.8279
 IR Inten    --     14.0566               136.4465               170.2648

                     37                     38                     39
                      A                      A                      A
 Frequencies --   1375.2130              1410.0187              1439.4883
 Red. masses --      1.1331                 1.3537                 1.1747
 Frc consts  --      1.2626                 1.5857                 1.4341
 IR Inten    --      4.5800               101.8625                65.6756

                     40                     41                     42
                      A                      A                      A
 Frequencies --   1455.4379              1468.5760              1481.4636
 Red. masses --      1.2080                 1.2248                 1.3080
 Frc consts  --      1.5077                 1.5563                 1.6913
 IR Inten    --     15.8980                17.8458                22.6947

                     43                     44                     45
                      A                      A                      A
 Frequencies --   1496.4554              1505.4110              1512.5545
 Red. masses --      1.3713                 1.1700                 1.2349
 Frc consts  --      1.8093                 1.5622                 1.6645
 IR Inten    --     28.7010                 0.9306                58.2069

                     46                     47                     48
                      A                      A                      A
 Frequencies --   1519.0804              1534.4120              1540.9076
 Red. masses --      1.0561                 1.1009                 1.1833
 Frc consts  --      1.4359                 1.5271                 1.6553
 IR Inten    --      9.4801                 9.3523                19.1066

                     49                     50                     51
                      A                      A                      A
 Frequencies --   1806.8302              2998.5711              3045.9054
 Red. masses --      8.9125                 1.0701                 1.0846
 Frc consts  --     17.1428                 5.6691                 5.9287
 IR Inten    --    383.9984                59.0150                35.5687

                     52                     53                     54
                      A                      A                      A
 Frequencies --   3052.3242              3070.9128              3133.3468
 Red. masses --      1.0456                 1.0608                 1.0944
 Frc consts  --      5.7396                 5.8942                 6.3305
 IR Inten    --     48.0444                40.8012                31.8064

                     55                     56                     57
                      A                      A                      A
 Frequencies --   3135.2738              3138.8225              3177.0343
 Red. masses --      1.0924                 1.1057                 1.1039
 Frc consts  --      6.3266                 6.4184                 6.5647
 IR Inten    --     20.4283                31.4222                11.2960

                     58                     59                     60
                      A                      A                      A
 Frequencies --   3601.4755              3611.0309              3718.2986
 Red. masses --      1.0766                 1.0762                 1.0649
 Frc consts  --      8.2275                 8.2680                 8.6743
 IR Inten    --     11.0769                29.2685                10.8721

 - Thermochemistry -
 -------------------
 Temperature   298.150 Kelvin.  Pressure   1.00000 Atm.
 Atom     1 has atomic number  6 and mass  12.00000

 Molecular mass:   161.08004 amu.
 Principal axes and moments of inertia in atomic units:
                           1         2         3
     Eigenvalues --  1276.087891513.219022310.30159
           X            0.99951   0.02985   0.00975
           Y           -0.02969   0.99943  -0.01611
           Z           -0.01022   0.01581   0.99982
 This molecule is an asymmetric top.
 Rotational symmetry number  1.
 Warning -- assumption of classical behavior for rotation
           may cause significant error
 Rotational temperatures (Kelvin)      0.06787     0.05724     0.03749
 Rotational constants (GHZ):           1.41428     1.19265     0.78117
 Zero-point vibrational energy     486287.4 (Joules/Mol)
                                  116.22548 (Kcal/Mol)
 Warning -- explicit consideration of  16 degrees of freedom as
           vibrations may cause significant error
 Vibrational temperatures:     74.49   121.89   252.25   266.78   304.15
          (Kelvin)            373.75   461.69   477.21   515.21   545.19
                              600.56   623.84   648.39   764.01   824.80
                              887.29   895.48   916.08  1010.88  1139.61
                             1167.91  1323.62  1358.62  1472.68  1496.34
                             1506.89  1561.29  1617.92  1658.47  1681.90
                             1712.94  1736.75  1800.89  1857.78  1907.97
                             1946.34  1978.62  2028.70  2071.10  2094.05
                             2112.95  2131.50  2153.07  2165.95  2176.23
                             2185.62  2207.68  2217.02  2599.63  4314.28
                             4382.38  4391.61  4418.36  4508.19  4510.96
                             4516.07  4571.04  5181.72  5195.47  5349.80

 Zero-point correction=                           0.185217 (Hartree/Particle)
 Thermal correction to Energy=                    0.195649
 Thermal correction to Enthalpy=                  0.196593
 Thermal correction to Gibbs Free Energy=         0.149438
 Sum of electronic and zero-point Energies=           -586.911817
 Sum of electronic and thermal Energies=              -586.901385
 Sum of electronic and thermal Enthalpies=            -586.900441
 Sum of electronic and thermal Free Energies=         -586.947597

                     E (Thermal)             CV                S
                      KCal/Mol        Cal/Mol-Kelvin    Cal/Mol-Kelvin
 Total                  122.772             39.989             99.247
 Electronic               0.000              0.000              0.000
 Translational            0.889              2.981             41.139
 Rotational               0.889              2.981             29.879
 Vibrational            120.994             34.028             28.229
 Vibration     1          0.596              1.977              4.748
 Vibration     2          0.601              1.960              3.779
 Vibration     3          0.627              1.873              2.378
 Vibration     4          0.631              1.860              2.273
 Vibration     5          0.643              1.823              2.032
 Vibration     6          0.668              1.746              1.663
 Vibration     7          0.706              1.634              1.306
 Vibration     8          0.714              1.612              1.252
 Vibration     9          0.733              1.559              1.130
 Vibration    10          0.749              1.515              1.043
 Vibration    11          0.780              1.432              0.901
 Vibration    12          0.794              1.397              0.847
 Vibration    13          0.809              1.359              0.794
 Vibration    14          0.886              1.181              0.585
 Vibration    15          0.930              1.089              0.498
 Vibration    16          0.976              0.997              0.422

                           ! Non-Optimized Parameters !
 Normal termination of Gaussian 16 at Tue Dec  8 19:52:00 2020.

 ----------------------------------------------------------------------
 # B3LYP/6-311++G(d,p) empiricaldispersion=gd3bj scf=xqc pop=npa geom=c
 heck
 ----------------------------------------------------------------------

 ---------------------------------------
 CID_148418998_JID_1613_Energie_neutraal
 ---------------------------------------
 Structure from the checkpoint file:  "JID_1613.chk"
 Charge =  0 Multiplicity = 1

 SCF Done:  E(RB3LYP) =  -587.287368577     A.U. after   13 cycles
 Normal termination of Gaussian 16 at Tue Dec  8 19:54:25 2020.

 ----------------------------------------------------------------------
 # B3LYP/6-311++G(d,p) empiricaldispersion=gd3bj scf=xqc pop=npa geom=c
 heck
 ----------------------------------------------------------------------

 -------------------------------------
 CID_148418998_JID_1613_Energie_kation
 -------------------------------------
 Structure from the checkpoint file:  "JID_1613.chk"
 Charge =  1 Multiplicity = 2

 SCF Done:  E(UB3LYP) =  -586.955847605     A.U. after   29 cycles
 Normal termination of Gaussian 16 at Tue Dec  8 20:00:54 2020.
 Gaussian 16:  ES64L-G16RevA.03 25-Dec-2016

 ----------------------------------------------------------------------
 # B3LYP/6-311++G(d,p) empiricaldispersion=gd3bj scf=xqc pop=npa geom=c
 heck
 ----------------------------------------------------------------------

 ------------------------------------
 CID_148418998_JID_1613_Energie_anion
 ------------------------------------
 Structure from the checkpoint file:  "JID_1613.chk"
 Charge = -1 Multiplicity = 2

                         Standard orientation:
 ---------------------------------------------------------------------
 Center     Atomic      Atomic             Coordinates (Angstroms)
 Number     Number       Type             X           Y           Z
 ---------------------------------------------------------------------
      1          6           0        2.429386    0.035236    0.731330
      2          7           0        1.002522    0.005419    0.365210
      3          6           0        0.641292    1.167811   -0.459730
      4          7           0       -0.673759    0.997586   -1.020882
      5          6           0       -1.823009    1.065370   -0.147946
      6          8           0       -2.419865   -0.191702    0.128835
      7          6           0       -1.588124   -1.060942    0.869728
      8          7           0       -0.573526   -1.738834    0.100913
      9          6           0        0.662358   -1.259590   -0.240017
     10          8           0        1.440995   -1.897797   -0.927938
     11          8           0        0.825223    2.342252    0.315760
     12          1           0        2.638063   -0.788429    1.417339
     13          1           0        2.639049    0.981708    1.229861
     14          1           0        3.080571   -0.067913   -0.145756
     15          1           0        1.332597    1.285270   -1.304922
     16          1           0       -0.781924    1.555587   -1.857106
     17          1           0       -2.611270    1.649730   -0.626047
     18          1           0       -1.563005    1.552925    0.805032
     19          1           0       -2.254023   -1.818700    1.287839
     20          1           0       -1.086431   -0.520937    1.680259
     21          1           0       -0.860564   -2.531774   -0.458401
     22          1           0        0.478041    2.144000    1.201763
 ---------------------------------------------------------------------

 SCF Done:  E(UB3LYP) =  -587.273352277     A.U. after   29 cycles

 The electronic state is 2-A.
 Alpha  occ. eigenvalues --  -19.02384 -19.02335 -18.99600 -14.23757 -14.22711
 Alpha  occ. eigenvalues --  -14.20668 -10.19993 -10.18417 -10.14844 -10.13877
 Alpha  occ. eigenvalues --  -10.09127  -0.96518  -0.94497  -0.94113  -0.83181
 Alpha  occ. eigenvalues --   -0.81938  -0.78578  -0.62801  -0.60284  -0.56240
 Alpha  occ. eigenvalues --   -0.53187  -0.47926  -0.45746  -0.42532  -0.41717
 Alpha  occ. eigenvalues --   -0.40769  -0.38561  -0.36647  -0.35826  -0.33528
 Alpha  occ. eigenvalues --   -0.32701  -0.31695  -0.30108  -0.29029  -0.27299
 Alpha  occ. eigenvalues --   -0.26218  -0.23819  -0.21539  -0.19513  -0.17823
 Alpha  occ. eigenvalues --   -0.16697  -0.15140  -0.14764   0.04762
 Alpha virt. eigenvalues --    0.07111   0.07321   0.08254   0.10028   0.10333
 Alpha virt. eigenvalues --    0.10591   0.11074   0.11695   0.13093   0.13575
 Alpha virt. eigenvalues --    0.14415   0.15164   0.16309   0.17125   0.17410

  Beta  occ. eigenvalues --  -19.02342 -19.02325 -18.99597 -14.23747 -14.22688
  Beta  occ. eigenvalues --  -14.20649 -10.19993 -10.18406 -10.14810 -10.13828
  Beta  occ. eigenvalues --  -10.09108  -0.96495  -0.94475  -0.94049  -0.83149
  Beta  occ. eigenvalues --   -0.81897  -0.78539  -0.62738  -0.60243  -0.56178
  Beta  occ. eigenvalues --   -0.53117  -0.47870  -0.45691  -0.42485  -0.41670
  Beta  occ. eigenvalues --   -0.40680  -0.38527  -0.36597  -0.35744  -0.33500
  Beta  occ. eigenvalues --   -0.32653  -0.31663  -0.30079  -0.28997  -0.27250
  Beta  occ. eigenvalues --   -0.26178  -0.23784  -0.21491  -0.19459  -0.17787
  Beta  occ. eigenvalues --   -0.16675  -0.15093  -0.14711
  Beta virt. eigenvalues --    0.07448   0.08259   0.08336   0.09009   0.10476
  Beta virt. eigenvalues --    0.10806   0.11104   0.11576   0.12246   0.13740
  Beta virt. eigenvalues --    0.14053   0.14737   0.15454   0.16273   0.17229

 Mulliken charges and spin densities:
               1          2
     1  C    0.248653  -0.535695
     2  N   -0.393447   0.264371
     3  C    1.182703  -1.677692
     4  N   -0.472089   0.325016
     5  C    0.736242  -0.911204
     6  O   -0.127632   0.053187
     7  C    1.094021  -1.397757
     8  N   -0.370724   0.165620
     9  C   -0.081185   0.163016
    10  O   -0.330125   0.018008
    11  O   -0.226545   0.021956
    12  H   -0.163954   0.323800
    13  H   -0.111779   0.250933
    14  H    0.117574   0.031523
    15  H    0.220962  -0.008944
    16  H   -0.058412   0.344229
    17  H   -0.895947   1.081513
    18  H   -0.107326   0.243479
    19  H   -0.763811   0.958391
    20  H   -0.293417   0.492257
    21  H    0.108257   0.190841
    22  H   -0.312019   0.603154
 Sum of Mulliken charges =  -1.00000   1.00000

 Dipole moment (field-independent basis, Debye):
    X=              3.5204    Y=             -2.1319    Z=             -1.8433  Tot=              4.5095
 Quadrupole moment (field-independent basis, Debye-Ang):
   XX=           -111.1265   YY=           -111.0997   ZZ=           -100.7400
   XY=              4.3142   XZ=              0.9942   YZ=             -1.0296

 Summary of Natural Population Analysis:

                                       Natural Population
                Natural  -----------------------------------------------
    Atom  No    Charge         Core      Valence    Rydberg      Total
 -----------------------------------------------------------------------
      C    1   -0.17956      0.99964     2.17133    0.00859     3.17956
      N    2   -0.31049      0.99967     2.79859    0.01222     3.81049
      C    3    0.24350      0.99962     1.73770    0.01918     2.75650
      N    4   -0.35365      0.99970     2.84252    0.01144     3.85365
      C    5    0.07107      0.99959     1.91171    0.01763     2.92893
      O    6   -0.29755      0.99989     3.28852    0.00915     4.29755
      C    7    0.06882      0.99959     1.91454    0.01704     2.93118
      N    8   -0.31986      0.99965     2.81012    0.01009     3.81986
      C    9    0.42571      0.99968     1.54839    0.02622     2.57429
      O   10   -0.32282      0.99987     3.31774    0.00521     4.32282
      O   11   -0.37531      0.99990     3.36889    0.00652     4.37531
      H   12    0.09876      0.00000     0.40043    0.00081     0.40124
      H   13    0.10393      0.00000     0.39492    0.00115     0.39607
      H   14    0.09199      0.00000     0.40695    0.00106     0.40801
      H   15    0.07890      0.00000     0.41918    0.00193     0.42110
      H   16    0.19115      0.00000     0.30627    0.00258     0.30885
      H   17    0.09560      0.00000     0.40127    0.00313     0.40440
      H   18    0.07578      0.00000     0.42043    0.00379     0.42422
      H   19    0.09313      0.00000     0.40467    0.00221     0.40687
      H   20    0.09153      0.00000     0.40510    0.00337     0.40847
      H   21    0.19436      0.00000     0.30346    0.00218     0.30564
      H   22    0.23501      0.00000     0.25635    0.00864     0.26499
 =======================================================================
   * Total *    0.00000     10.99680    31.82906    0.17414    43.00000

 Normal termination of Gaussian 16 at Tue Dec  8 20:06:52 2020.
