 Gaussian 16, Revision A.03,

 -----------------------------------------------------------
 # opt freq B3LYP/6-31G(d) empiricaldispersion=gd3bj scf=xqc
 -----------------------------------------------------------

 ------------------------------
 CID_61150344_JID_5571_neutraal
 ------------------------------
 Symbolic Z-matrix:
 Charge =  0 Multiplicity = 1

 SCF Done:  E(RB3LYP) =  -618.192220557     A.U. after   13 cycles
 SCF Done:  E(RB3LYP) =  -618.196108385     A.U. after   12 cycles
 SCF Done:  E(RB3LYP) =  -618.196605585     A.U. after   11 cycles
 SCF Done:  E(RB3LYP) =  -618.196743191     A.U. after   11 cycles
 SCF Done:  E(RB3LYP) =  -618.196780312     A.U. after   11 cycles
 SCF Done:  E(RB3LYP) =  -618.196805394     A.U. after   10 cycles
 SCF Done:  E(RB3LYP) =  -618.196809225     A.U. after    9 cycles
 SCF Done:  E(RB3LYP) =  -618.196810281     A.U. after    8 cycles
 SCF Done:  E(RB3LYP) =  -618.196810485     A.U. after    7 cycles
 SCF Done:  E(RB3LYP) =  -618.196810526     A.U. after    7 cycles
 SCF Done:  E(RB3LYP) =  -618.196810533     A.U. after    7 cycles
 Optimization completed.
    -- Stationary point found.
 Normal termination of Gaussian 16 at Thu Dec 10 16:14:50 2020.

 --------------------------------------------------------------------
 #N Geom=AllCheck Guess=TCheck SCRF=Check GenChk RB3LYP/6-31G(d) Freq
 --------------------------------------------------------------------

 Structure from the checkpoint file:  "JID_5571.chk"
 ------------------------------
 CID_61150344_JID_5571_neutraal
 ------------------------------
 Charge =  0 Multiplicity = 1

 SCF Done:  E(RB3LYP) =  -618.196810533     A.U. after    1 cycles

  Exact polarizability: 199.605   8.262 142.655  20.186  -7.516 104.852
 Approx polarizability: 253.615  12.520 227.787  37.568 -18.984 164.465

                      1                      2                      3
                      A                      A                      A
 Frequencies --     23.2304                27.3943                33.6925
 Red. masses --      4.2105                 3.6925                 2.8447
 Frc consts  --      0.0013                 0.0016                 0.0019
 IR Inten    --      0.1031                 0.2108                 0.0317

                      4                      5                      6
                      A                      A                      A
 Frequencies --     50.3189                67.5586               117.1587
 Red. masses --      3.8462                 3.7306                 3.1081
 Frc consts  --      0.0057                 0.0100                 0.0251
 IR Inten    --      0.4422                 0.2585                 1.0468

                      7                      8                      9
                      A                      A                      A
 Frequencies --    145.6095               187.7581               209.8386
 Red. masses --      3.3824                 2.4017                 2.4481
 Frc consts  --      0.0423                 0.0499                 0.0635
 IR Inten    --      0.9450                 1.1303                 0.8567

                     10                     11                     12
                      A                      A                      A
 Frequencies --    229.2013               260.4552               265.1920
 Red. masses --      1.1440                 2.1379                 1.3001
 Frc consts  --      0.0354                 0.0854                 0.0539
 IR Inten    --      0.0525                 1.2607                 0.6673

                     13                     14                     15
                      A                      A                      A
 Frequencies --    292.1017               329.8986               365.6110
 Red. masses --      2.0928                 2.5312                 2.1625
 Frc consts  --      0.1052                 0.1623                 0.1703
 IR Inten    --      2.4614                 0.0145                 2.3067

                     16                     17                     18
                      A                      A                      A
 Frequencies --    400.6520               419.6768               442.5365
 Red. masses --      2.0396                 3.1479                 2.5111
 Frc consts  --      0.1929                 0.3267                 0.2897
 IR Inten    --      7.3801                 0.1547                 6.4883

                     19                     20                     21
                      A                      A                      A
 Frequencies --    468.8835               478.9879               495.7977
 Red. masses --      2.4371                 2.2154                 2.6623
 Frc consts  --      0.3157                 0.2995                 0.3856
 IR Inten    --      2.0726                 2.7067                53.0556

                     22                     23                     24
                      A                      A                      A
 Frequencies --    532.7727               585.2601               629.6019
 Red. masses --      2.7083                 2.1677                 2.6799
 Frc consts  --      0.4529                 0.4375                 0.6259
 IR Inten    --      8.5934                35.5961                17.3309

                     25                     26                     27
                      A                      A                      A
 Frequencies --    637.5947               706.5626               722.3389
 Red. masses --      4.5384                 2.0404                 1.4140
 Frc consts  --      1.0870                 0.6002                 0.4347
 IR Inten    --      4.1413                16.8913                54.5153

                     28                     29                     30
                      A                      A                      A
 Frequencies --    761.8865               772.1400               818.7884
 Red. masses --      1.7338                 1.6926                 2.4800
 Frc consts  --      0.5930                 0.5946                 0.9796
 IR Inten    --     47.2899                39.3344                 7.7690

                     31                     32                     33
                      A                      A                      A
 Frequencies --    825.1020               832.8728               859.4052
 Red. masses --      1.2766                 3.0185                 1.9146
 Frc consts  --      0.5120                 1.2337                 0.8332
 IR Inten    --      0.3795                 4.5179                11.8066

                     34                     35                     36
                      A                      A                      A
 Frequencies --    874.5409               924.7736               937.7905
 Red. masses --      1.5042                 1.6922                 1.2386
 Frc consts  --      0.6778                 0.8527                 0.6418
 IR Inten    --      8.1424                 4.8608                 1.6215

                     37                     38                     39
                      A                      A                      A
 Frequencies --    946.7738               947.6781               957.6666
 Red. masses --      1.4338                 1.5754                 1.6530
 Frc consts  --      0.7572                 0.8336                 0.8932
 IR Inten    --      0.5950                 1.1370                 1.4815

                     40                     41                     42
                      A                      A                      A
 Frequencies --    973.0903               976.1299              1011.9570
 Red. masses --      1.2667                 1.8647                 5.6069
 Frc consts  --      0.7067                 1.0468                 3.3830
 IR Inten    --      0.7897                 4.7134                 1.7614

                     43                     44                     45
                      A                      A                      A
 Frequencies --   1027.0299              1057.3568              1081.4748
 Red. masses --      1.5106                 2.3681                 1.9481
 Frc consts  --      0.9388                 1.5599                 1.3424
 IR Inten    --      1.5561                 0.6198                30.9761

                     46                     47                     48
                      A                      A                      A
 Frequencies --   1104.1745              1114.0539              1133.8455
 Red. masses --      1.9424                 2.0533                 2.0207
 Frc consts  --      1.3953                 1.5015                 1.5306
 IR Inten    --      0.8741                 2.8765                 2.4546

                     49                     50                     51
                      A                      A                      A
 Frequencies --   1146.2498              1158.3818              1181.5716
 Red. masses --      2.4742                 2.1247                 1.6749
 Frc consts  --      1.9153                 1.6798                 1.3777
 IR Inten    --      9.5944                13.4779                26.1231

                     52                     53                     54
                      A                      A                      A
 Frequencies --   1191.7371              1209.3738              1216.8026
 Red. masses --      1.0887                 1.9813                 1.1305
 Frc consts  --      0.9110                 1.7073                 0.9862
 IR Inten    --      2.4983                60.2674                12.0135

                     55                     56                     57
                      A                      A                      A
 Frequencies --   1235.4052              1270.8207              1295.5634
 Red. masses --      1.2445                 1.6815                 1.3086
 Frc consts  --      1.1191                 1.6000                 1.2941
 IR Inten    --      2.8180                 2.2679                 3.2369

                     58                     59                     60
                      A                      A                      A
 Frequencies --   1310.3374              1339.9798              1357.9664
 Red. masses --      2.3992                 1.1202                 1.5957
 Frc consts  --      2.4271                 1.1851                 1.7337
 IR Inten    --     83.4427                16.8699                 5.5541

                     61                     62                     63
                      A                      A                      A
 Frequencies --   1365.8434              1373.1991              1376.1533
 Red. masses --      1.5502                 1.3055                 2.2869
 Frc consts  --      1.7039                 1.4504                 2.5517
 IR Inten    --     57.6389                20.4381                12.5903

                     64                     65                     66
                      A                      A                      A
 Frequencies --   1396.6482              1404.7127              1422.3737
 Red. masses --      1.4175                 1.4118                 1.2900
 Frc consts  --      1.6291                 1.6414                 1.5377
 IR Inten    --      2.2055                 0.2709                12.1805

                     67                     68                     69
                      A                      A                      A
 Frequencies --   1426.4627              1436.3603              1443.6976
 Red. masses --      1.3871                 1.3508                 1.2575
 Frc consts  --      1.6630                 1.6420                 1.5442
 IR Inten    --      2.6509                 0.7715                11.5463

                     70                     71                     72
                      A                      A                      A
 Frequencies --   1483.2174              1500.2070              1505.6054
 Red. masses --      1.7489                 1.1545                 1.1028
 Frc consts  --      2.2669                 1.5309                 1.4729
 IR Inten    --     18.9919                18.5613                 9.5004

                     73                     74                     75
                      A                      A                      A
 Frequencies --   1515.3366              1518.0368              1523.7426
 Red. masses --      1.0498                 1.0528                 1.0881
 Frc consts  --      1.4203                 1.4295                 1.4885
 IR Inten    --      1.1637                 4.0525                 3.2194

                     76                     77                     78
                      A                      A                      A
 Frequencies --   1532.1477              1538.3869              1540.1086
 Red. masses --      1.1149                 1.0798                 1.0947
 Frc consts  --      1.5420                 1.5057                 1.5298
 IR Inten    --     11.5235                 3.0277                14.4864

                     79                     80                     81
                      A                      A                      A
 Frequencies --   1547.6136              1552.8586              1561.5572
 Red. masses --      1.5708                 1.2309                 1.9953
 Frc consts  --      2.2166                 1.7488                 2.8666
 IR Inten    --      2.6585                38.9686               124.1609

                     82                     83                     84
                      A                      A                      A
 Frequencies --   1646.9844              1671.9640              2956.5147
 Red. masses --      4.6333                 5.6292                 1.0729
 Frc consts  --      7.4050                 9.2716                 5.5254
 IR Inten    --      7.1235               137.7325                66.1713

                     85                     86                     87
                      A                      A                      A
 Frequencies --   3022.9050              3029.2372              3038.0541
 Red. masses --      1.0831                 1.0750                 1.0404
 Frc consts  --      5.8314                 5.8122                 5.6576
 IR Inten    --      7.1289                11.9126                12.0105

                     88                     89                     90
                      A                      A                      A
 Frequencies --   3040.8644              3044.7524              3058.6463
 Red. masses --      1.0724                 1.0412                 1.0649
 Frc consts  --      5.8423                 5.6870                 5.8697
 IR Inten    --     61.0583                51.5033                29.2546

                     91                     92                     93
                      A                      A                      A
 Frequencies --   3066.2925              3074.7500              3101.6723
 Red. masses --      1.0634                 1.0978                 1.0994
 Frc consts  --      5.8907                 6.1150                 6.2314
 IR Inten    --     21.8660                36.9031                 4.4566

                     94                     95                     96
                      A                      A                      A
 Frequencies --   3102.5575              3110.5419              3116.4116
 Red. masses --      1.1014                 1.0978                 1.1003
 Frc consts  --      6.2462                 6.2580                 6.2961
 IR Inten    --     27.6449                70.3064                58.3290

                     97                     98                     99
                      A                      A                      A
 Frequencies --   3121.7443              3136.5563              3163.3694
 Red. masses --      1.1010                 1.1026                 1.0871
 Frc consts  --      6.3218                 6.3913                 6.4093
 IR Inten    --     37.8366                29.7551                17.8547

                    100                    101                    102
                      A                      A                      A
 Frequencies --   3181.1070              3189.4142              3208.4869
 Red. masses --      1.0862                 1.0917                 1.0937
 Frc consts  --      6.4764                 6.5429                 6.6337
 IR Inten    --      2.5338                31.3114                39.5595

                    103                    104                    105
                      A                      A                      A
 Frequencies --   3216.3479              3460.2993              3583.5844
 Red. masses --      1.0942                 1.0730                 1.0753
 Frc consts  --      6.6690                 7.5700                 8.1361
 IR Inten    --      9.0072                 1.2053                 4.7916

 - Thermochemistry -
 -------------------
 Temperature   298.150 Kelvin.  Pressure   1.00000 Atm.
 Atom     1 has atomic number  6 and mass  12.00000

 Molecular mass:   206.17830 amu.
 Principal axes and moments of inertia in atomic units:
                           1         2         3
     Eigenvalues --  1057.882908714.144259049.52235
           X            0.99999  -0.00202   0.00333
           Y            0.00205   0.99998  -0.00657
           Z           -0.00332   0.00658   0.99997
 This molecule is an asymmetric top.
 Rotational symmetry number  1.
 Warning -- assumption of classical behavior for rotation
           may cause significant error
 Rotational temperatures (Kelvin)      0.08187     0.00994     0.00957
 Rotational constants (GHZ):           1.70599     0.20710     0.19943
 Zero-point vibrational energy     880964.3 (Joules/Mol)
                                  210.55552 (Kcal/Mol)
 Warning -- explicit consideration of  23 degrees of freedom as
           vibrations may cause significant error
 Vibrational temperatures:     33.42    39.41    48.48    72.40    97.20
          (Kelvin)            168.57   209.50   270.14   301.91   329.77
                              374.74   381.55   420.27   474.65   526.03
                              576.45   603.82   636.71   674.62   689.16
                              713.34   766.54   842.06   905.86   917.36
                             1016.59  1039.28  1096.18  1110.94  1178.05
                             1187.14  1198.32  1236.49  1258.27  1330.54
                             1349.27  1362.20  1363.50  1377.87  1400.06
                             1404.43  1455.98  1477.67  1521.30  1556.00
                             1588.66  1602.88  1631.35  1649.20  1666.65
                             1700.02  1714.64  1740.02  1750.71  1777.47
                             1828.43  1864.03  1885.28  1927.93  1953.81
                             1965.14  1975.73  1979.98  2009.47  2021.07
                             2046.48  2052.36  2066.60  2077.16  2134.02
                             2158.46  2166.23  2180.23  2184.12  2192.33
                             2204.42  2213.40  2215.87  2226.67  2234.22
                             2246.73  2369.64  2405.58  4253.77  4349.29
                             4358.40  4371.08  4375.13  4380.72  4400.71
                             4411.71  4423.88  4462.61  4463.89  4475.38
                             4483.82  4491.49  4512.81  4551.38  4576.90
                             4588.86  4616.30  4627.61  4978.60  5155.98

 Zero-point correction=                           0.335542 (Hartree/Particle)
 Thermal correction to Energy=                    0.351515
 Thermal correction to Enthalpy=                  0.352459
 Thermal correction to Gibbs Free Energy=         0.290032
 Sum of electronic and zero-point Energies=           -617.861269
 Sum of electronic and thermal Energies=              -617.845296
 Sum of electronic and thermal Enthalpies=            -617.844352
 Sum of electronic and thermal Free Energies=         -617.906779

                     E (Thermal)             CV                S
                      KCal/Mol        Cal/Mol-Kelvin    Cal/Mol-Kelvin
 Total                  220.579             60.957            131.388
 Electronic               0.000              0.000              0.000
 Translational            0.889              2.981             41.875
 Rotational               0.889              2.981             32.789
 Vibrational            218.801             54.995             56.724
 Vibration     1          0.593              1.985              6.337
 Vibration     2          0.593              1.984              6.010
 Vibration     3          0.594              1.983              5.599
 Vibration     4          0.595              1.977              4.805
 Vibration     5          0.598              1.970              4.223
 Vibration     6          0.608              1.935              3.147
 Vibration     7          0.617              1.907              2.729
 Vibration     8          0.632              1.857              2.250
 Vibration     9          0.642              1.826              2.045
 Vibration    10          0.652              1.796              1.885
 Vibration    11          0.669              1.745              1.659
 Vibration    12          0.671              1.737              1.627
 Vibration    13          0.687              1.688              1.462
 Vibration    14          0.713              1.616              1.261
 Vibration    15          0.739              1.543              1.098
 Vibration    16          0.766              1.469              0.960
 Vibration    17          0.782              1.427              0.893
 Vibration    18          0.802              1.377              0.819
 Vibration    19          0.826              1.319              0.741
 Vibration    20          0.835              1.297              0.713
 Vibration    21          0.851              1.259              0.669
 Vibration    22          0.888              1.178              0.581
 Vibration    23          0.942              1.063              0.476

 Optimization completed.
    -- Stationary point found.
 Normal termination of Gaussian 16 at Thu Dec 10 16:25:38 2020.

 ----------------------------------------------------------------------
 # B3LYP/6-311++G(d,p) empiricaldispersion=gd3bj scf=xqc pop=npa geom=c
 heck
 ----------------------------------------------------------------------

 --------------------------------------
 CID_61150344_JID_5571_Energie_neutraal
 --------------------------------------
 Structure from the checkpoint file:  "JID_5571.chk"
 Charge =  0 Multiplicity = 1

 SCF Done:  E(RB3LYP) =  -618.371539192     A.U. after   14 cycles
 Normal termination of Gaussian 16 at Thu Dec 10 16:30:28 2020.

 ----------------------------------------------------------------------
 # B3LYP/6-311++G(d,p) empiricaldispersion=gd3bj scf=xqc pop=npa geom=c
 heck
 ----------------------------------------------------------------------

 ------------------------------------
 CID_61150344_JID_5571_Energie_kation
 ------------------------------------
 Structure from the checkpoint file:  "JID_5571.chk"
 Charge =  1 Multiplicity = 2

 SCF Done:  E(UB3LYP) =  -618.107471203     A.U. after   28 cycles
 Normal termination of Gaussian 16 at Thu Dec 10 16:44:06 2020.
 Gaussian 16:  ES64L-G16RevA.03 25-Dec-2016

 ----------------------------------------------------------------------
 # B3LYP/6-311++G(d,p) empiricaldispersion=gd3bj scf=xqc pop=npa geom=c
 heck
 ----------------------------------------------------------------------

 -----------------------------------
 CID_61150344_JID_5571_Energie_anion
 -----------------------------------
 Structure from the checkpoint file:  "JID_5571.chk"
 Charge = -1 Multiplicity = 2

                         Standard orientation:
 ---------------------------------------------------------------------
 Center     Atomic      Atomic             Coordinates (Angstroms)
 Number     Number       Type             X           Y           Z
 ---------------------------------------------------------------------
      1          6           0       -5.025661   -1.047025   -0.552211
      2          6           0       -4.119011    0.176590   -0.406701
      3          6           0       -4.904309    1.387261    0.124924
      4          7           0       -2.955744   -0.198819    0.405017
      5          6           0       -1.888075    0.791785    0.485255
      6          6           0       -0.692588    0.254156    1.279265
      7          6           0       -0.170912   -1.108384    0.805072
      8          6           0        0.194607   -1.146658   -0.687015
      9          7           0        1.123359   -0.111815   -1.130290
     10          6           0        2.400702    0.013535   -0.589974
     11          6           0        3.051881    1.261640   -0.627100
     12          6           0        4.347837    1.405167   -0.144412
     13          6           0        5.032517    0.314119    0.396286
     14          6           0        4.392307   -0.924400    0.439038
     15          6           0        3.094601   -1.082050   -0.043765
     16          1           0       -5.436503   -1.340731    0.423002
     17          1           0       -4.461274   -1.894985   -0.951039
     18          1           0       -5.870501   -0.836867   -1.217040
     19          1           0       -3.723466    0.432434   -1.400318
     20          1           0       -5.316021    1.169125    1.119266
     21          1           0       -4.272614    2.277522    0.208758
     22          1           0       -5.742624    1.634407   -0.536687
     23          1           0       -3.268498   -0.435248    1.347438
     24          1           0       -1.584276    1.019336   -0.546300
     25          1           0       -2.200250    1.755166    0.927229
     26          1           0        0.114955    0.996130    1.237980
     27          1           0       -0.973637    0.175762    2.338866
     28          1           0        0.706590   -1.373298    1.406017
     29          1           0       -0.931685   -1.876882    0.979868
     30          1           0        0.612240   -2.127902   -0.940867
     31          1           0       -0.713700   -1.039310   -1.287099
     32          1           0        0.678979    0.781164   -1.300314
     33          1           0        2.528671    2.119273   -1.045798
     34          1           0        4.824467    2.381159   -0.186926
     35          1           0        6.042514    0.428649    0.777459
     36          1           0        4.906431   -1.786839    0.855618
     37          1           0        2.623515   -2.058045   -0.004162
 ---------------------------------------------------------------------

 SCF Done:  E(UB3LYP) =  -618.358138781     A.U. after   33 cycles
 SCF Done:  E(UB3LYP) =  -618.358138781     a.u. after    1 cycles

 The electronic state is 2-A.
 Alpha  occ. eigenvalues --  -14.22805 -14.19647 -10.12331 -10.10587 -10.10185
 Alpha  occ. eigenvalues --  -10.09234 -10.08579 -10.08447 -10.07793 -10.07744
 Alpha  occ. eigenvalues --  -10.07550 -10.06967 -10.06791 -10.06173 -10.05789
 Alpha  occ. eigenvalues --   -0.84392  -0.81129  -0.75417  -0.69912  -0.66620
 Alpha  occ. eigenvalues --   -0.65613  -0.64045  -0.60239  -0.58930  -0.54743
 Alpha  occ. eigenvalues --   -0.52277  -0.50249  -0.48947  -0.47202  -0.44194
 Alpha  occ. eigenvalues --   -0.40613  -0.38734  -0.38249  -0.37387  -0.36384
 Alpha  occ. eigenvalues --   -0.35090  -0.34696  -0.33599  -0.33161  -0.32400
 Alpha  occ. eigenvalues --   -0.31963  -0.30215  -0.29096  -0.28799  -0.28003
 Alpha  occ. eigenvalues --   -0.27723  -0.26685  -0.25583  -0.25071  -0.24540
 Alpha  occ. eigenvalues --   -0.24380  -0.23543  -0.23044  -0.20485  -0.16509
 Alpha  occ. eigenvalues --   -0.12896  -0.11187   0.04194
 Alpha virt. eigenvalues --    0.05817   0.06387   0.07139   0.07278   0.07587
 Alpha virt. eigenvalues --    0.07732   0.08703   0.08785   0.09045   0.09557
 Alpha virt. eigenvalues --    0.10175   0.10537   0.10914   0.11438   0.11762

  Beta  occ. eigenvalues --  -14.22791 -14.19631 -10.12332 -10.10578 -10.10172
  Beta  occ. eigenvalues --  -10.09208 -10.08572 -10.08439 -10.07784 -10.07728
  Beta  occ. eigenvalues --  -10.07544 -10.06953 -10.06786 -10.06147 -10.05749
  Beta  occ. eigenvalues --   -0.84371  -0.81098  -0.75398  -0.69884  -0.66591
  Beta  occ. eigenvalues --   -0.65589  -0.64016  -0.60197  -0.58865  -0.54700
  Beta  occ. eigenvalues --   -0.52244  -0.50215  -0.48875  -0.47163  -0.44157
  Beta  occ. eigenvalues --   -0.40580  -0.38695  -0.38205  -0.37357  -0.36341
  Beta  occ. eigenvalues --   -0.35065  -0.34669  -0.33556  -0.33130  -0.32367
  Beta  occ. eigenvalues --   -0.31928  -0.30178  -0.29061  -0.28768  -0.27980
  Beta  occ. eigenvalues --   -0.27698  -0.26659  -0.25556  -0.25038  -0.24502
  Beta  occ. eigenvalues --   -0.24347  -0.23496  -0.23019  -0.20470  -0.16494
  Beta  occ. eigenvalues --   -0.12872  -0.11173
  Beta virt. eigenvalues --    0.05988   0.06534   0.07022   0.07504   0.07648
  Beta virt. eigenvalues --    0.07836   0.08138   0.08788   0.09141   0.09376
  Beta virt. eigenvalues --    0.09876   0.10541   0.10877   0.11174   0.11741

 Mulliken charges and spin densities:
               1          2
     1  C    0.373429  -0.897103
     2  C   -1.036633   1.050730
     3  C    1.086868  -1.612370
     4  N   -0.049178   0.111440
     5  C    0.877936  -1.466743
     6  C   -0.711870   0.235679
     7  C   -0.019413   0.017499
     8  C    0.076459  -0.431475
     9  N    0.029097   0.014720
    10  C    0.413241  -0.535582
    11  C   -0.610215   0.664583
    12  C    0.156933  -0.433258
    13  C    0.282710  -0.732992
    14  C   -0.496352   0.341613
    15  C    0.380055  -0.453834
    16  H   -0.201300   0.334041
    17  H   -0.029004   0.181750
    18  H   -0.132443   0.261931
    19  H    0.028819   0.092966
    20  H   -0.236376   0.372789
    21  H   -0.320441   0.475348
    22  H   -0.215652   0.352447
    23  H    0.321732  -0.111954
    24  H   -0.329244   0.468029
    25  H   -0.082772   0.202544
    26  H    0.181734  -0.008502
    27  H   -0.378120   0.550477
    28  H    0.099896   0.021659
    29  H   -0.047615   0.189940
    30  H    0.003523   0.174024
    31  H    0.082100   0.106792
    32  H    0.173901   0.083641
    33  H   -0.522171   0.662317
    34  H   -0.165521   0.332441
    35  H    0.009193   0.114496
    36  H   -0.110615   0.279574
    37  H    0.117307  -0.009657
 Sum of Mulliken charges =  -1.00000   1.00000

 Dipole moment (field-independent basis, Debye):
    X=              4.3376    Y=             -3.5325    Z=              0.1056  Tot=              5.5950
 Quadrupole moment (field-independent basis, Debye-Ang):
   XX=           -208.3959   YY=           -135.3751   ZZ=           -129.4205
   XY=              2.2229   XZ=              2.2779   YZ=             -0.1676

 Summary of Natural Population Analysis:

                                       Natural Population
                Natural  -----------------------------------------------
    Atom  No    Charge         Core      Valence    Rydberg      Total
 -----------------------------------------------------------------------
      C    1   -0.28371      0.99965     2.27878    0.00529     3.28371
      C    2   -0.01215      0.99963     2.00008    0.01245     3.01215
      C    3   -0.29492      0.99965     2.28991    0.00536     3.29492
      N    4   -0.34553      0.99973     2.83423    0.01156     3.84553
      C    5   -0.08606      0.99963     2.07590    0.01054     3.08606
      C    6   -0.19522      0.99963     2.18649    0.00911     3.19522
      C    7   -0.19938      0.99962     2.19251    0.00725     3.19938
      C    8   -0.08953      0.99961     2.07966    0.01026     3.08953
      N    9   -0.31259      0.99968     2.80227    0.01063     3.81259
      C   10    0.09064      0.99949     1.89789    0.01198     2.90936
      C   11   -0.12306      0.99953     2.11306    0.01047     3.12306
      C   12   -0.09436      0.99957     2.08425    0.01054     3.09436
      C   13   -0.12963      0.99956     2.11999    0.01008     3.12963
      C   14   -0.09314      0.99957     2.08398    0.00959     3.09314
      C   15   -0.13266      0.99952     2.12536    0.00778     3.13266
      H   16    0.09503      0.00000     0.40387    0.00109     0.40497
      H   17    0.10230      0.00000     0.39643    0.00127     0.39770
      H   18    0.09881      0.00000     0.40020    0.00100     0.40119
      H   19    0.08744      0.00000     0.41057    0.00199     0.41256
      H   20    0.09598      0.00000     0.40263    0.00139     0.40402
      H   21    0.10176      0.00000     0.39685    0.00139     0.39824
      H   22    0.10020      0.00000     0.39860    0.00119     0.39980
      H   23    0.16883      0.00000     0.32847    0.00270     0.33117
      H   24    0.08524      0.00000     0.41250    0.00226     0.41476
      H   25    0.08545      0.00000     0.41271    0.00184     0.41455
      H   26    0.10110      0.00000     0.39751    0.00139     0.39890
      H   27    0.09698      0.00000     0.40196    0.00106     0.40302
      H   28    0.09768      0.00000     0.40095    0.00137     0.40232
      H   29    0.10391      0.00000     0.39480    0.00129     0.39609
      H   30    0.09256      0.00000     0.40630    0.00114     0.40744
      H   31    0.10329      0.00000     0.39537    0.00134     0.39671
      H   32    0.18472      0.00000     0.31189    0.00339     0.31528
      H   33    0.10166      0.00000     0.39691    0.00144     0.39834
      H   34    0.10012      0.00000     0.39895    0.00093     0.39988
      H   35    0.09891      0.00000     0.40026    0.00083     0.40109
      H   36    0.09787      0.00000     0.40128    0.00084     0.40213
      H   37    0.10146      0.00000     0.39704    0.00150     0.39854
 =======================================================================
   * Total *    0.00000     14.99407    41.83041    0.17552    57.00000

 Normal termination of Gaussian 16 at Thu Dec 10 17:07:38 2020.
