 Gaussian 16, Revision A.03,

 -----------------------------------------------------------
 # opt freq B3LYP/6-31G(d) empiricaldispersion=gd3bj scf=xqc
 -----------------------------------------------------------

 ------------------------------
 CID_83847862_JID_4992_neutraal
 ------------------------------
 Symbolic Z-matrix:
 Charge =  0 Multiplicity = 1

 SCF Done:  E(RB3LYP) =  -651.912493810     A.U. after   14 cycles
 SCF Done:  E(RB3LYP) =  -651.916689620     A.U. after   11 cycles
 SCF Done:  E(RB3LYP) =  -651.917019321     A.U. after   12 cycles
 SCF Done:  E(RB3LYP) =  -651.917121789     A.U. after   11 cycles
 SCF Done:  E(RB3LYP) =  -651.917314795     A.U. after   10 cycles
 SCF Done:  E(RB3LYP) =  -651.917371622     A.U. after   10 cycles
 SCF Done:  E(RB3LYP) =  -651.917394845     A.U. after   10 cycles
 SCF Done:  E(RB3LYP) =  -651.917405701     A.U. after    9 cycles
 SCF Done:  E(RB3LYP) =  -651.917415001     A.U. after   10 cycles
 SCF Done:  E(RB3LYP) =  -651.917417813     A.U. after    9 cycles
 SCF Done:  E(RB3LYP) =  -651.917419914     A.U. after    9 cycles
 SCF Done:  E(RB3LYP) =  -651.917420862     A.U. after    8 cycles
 SCF Done:  E(RB3LYP) =  -651.917421043     A.U. after    7 cycles
 SCF Done:  E(RB3LYP) =  -651.917421194     A.U. after    7 cycles
 SCF Done:  E(RB3LYP) =  -651.917421262     A.U. after    7 cycles
 SCF Done:  E(RB3LYP) =  -651.917421278     A.U. after    6 cycles
 Optimization completed.
    -- Stationary point found.
 Normal termination of Gaussian 16 at Thu Dec 10 11:09:36 2020.

 --------------------------------------------------------------------
 #N Geom=AllCheck Guess=TCheck SCRF=Check GenChk RB3LYP/6-31G(d) Freq
 --------------------------------------------------------------------

 Structure from the checkpoint file:  "JID_4992.chk"
 ------------------------------
 CID_83847862_JID_4992_neutraal
 ------------------------------
 Charge =  0 Multiplicity = 1

 SCF Done:  E(RB3LYP) =  -651.917421278     A.U. after    1 cycles

  Exact polarizability: 141.086  -2.235 115.905   2.976  -0.971  96.897
 Approx polarizability: 176.393   2.359 169.334   2.377  -5.745 146.734

                      1                      2                      3
                      A                      A                      A
 Frequencies --     33.0903                69.3075                86.4128
 Red. masses --      3.7319                 2.2633                 3.2448
 Frc consts  --      0.0024                 0.0064                 0.0143
 IR Inten    --      0.6287                 0.0359                 4.5093

                      4                      5                      6
                      A                      A                      A
 Frequencies --     95.9382               127.5956               144.8999
 Red. masses --      2.4358                 1.5163                 3.3334
 Frc consts  --      0.0132                 0.0145                 0.0412
 IR Inten    --      0.8559                 0.9838                 0.1958

                      7                      8                      9
                      A                      A                      A
 Frequencies --    162.6121               198.3333               223.3596
 Red. masses --      2.4234                 2.2604                 1.8930
 Frc consts  --      0.0378                 0.0524                 0.0556
 IR Inten    --      3.1004                 6.7361                 0.6364

                     10                     11                     12
                      A                      A                      A
 Frequencies --    250.2228               271.4859               312.5454
 Red. masses --      2.0155                 2.0198                 2.3783
 Frc consts  --      0.0744                 0.0877                 0.1369
 IR Inten    --      0.9694                 1.1975                 0.2891

                     13                     14                     15
                      A                      A                      A
 Frequencies --    328.4524               351.8015               392.3475
 Red. masses --      3.2117                 3.8422                 2.8936
 Frc consts  --      0.2041                 0.2802                 0.2624
 IR Inten    --      6.9040                12.2376                 6.9682

                     16                     17                     18
                      A                      A                      A
 Frequencies --    431.9377               457.4869               511.1423
 Red. masses --      2.6417                 3.7829                 2.8286
 Frc consts  --      0.2904                 0.4665                 0.4354
 IR Inten    --      5.3560                 0.7376                 0.9527

                     19                     20                     21
                      A                      A                      A
 Frequencies --    572.5403               648.7434               684.9273
 Red. masses --      3.9984                 2.6192                 3.8695
 Frc consts  --      0.7722                 0.6495                 1.0695
 IR Inten    --      3.3516                 0.4390                 2.6532

                     22                     23                     24
                      A                      A                      A
 Frequencies --    715.7413               760.3799               764.9160
 Red. masses --      3.4439                 2.9368                 7.3570
 Frc consts  --      1.0395                 1.0004                 2.5362
 IR Inten    --      1.6072                29.9578                22.0726

                     25                     26                     27
                      A                      A                      A
 Frequencies --    806.8911               813.7699               826.6459
 Red. masses --      1.7799                 1.3737                 2.1888
 Frc consts  --      0.6828                 0.5360                 0.8812
 IR Inten    --     13.3426                78.3079                41.8297

                     28                     29                     30
                      A                      A                      A
 Frequencies --    875.4000               917.3584               944.7832
 Red. masses --      2.1192                 2.4722                 1.8560
 Frc consts  --      0.9568                 1.2258                 0.9761
 IR Inten    --     11.1317                 2.9484                 1.1440

                     31                     32                     33
                      A                      A                      A
 Frequencies --    961.5610               976.1031              1011.0356
 Red. masses --      2.5026                 3.1242                 1.9602
 Frc consts  --      1.3633                 1.7538                 1.1805
 IR Inten    --      4.0968                 6.2325                 2.0180

                     34                     35                     36
                      A                      A                      A
 Frequencies --   1017.1184              1024.9118              1062.3843
 Red. masses --      2.1622                 2.4114                 1.5776
 Frc consts  --      1.3179                 1.4924                 1.0491
 IR Inten    --      4.7092                21.9345                18.6020

                     37                     38                     39
                      A                      A                      A
 Frequencies --   1085.2306              1087.0864              1107.4710
 Red. masses --      1.7202                 2.4491                 2.0591
 Frc consts  --      1.1936                 1.7052                 1.4880
 IR Inten    --     18.8434                 5.9829                 6.0136

                     40                     41                     42
                      A                      A                      A
 Frequencies --   1142.3407              1147.0255              1158.4464
 Red. masses --      2.3054                 3.4543                 2.3395
 Frc consts  --      1.7725                 2.6776                 1.8498
 IR Inten    --     11.7808                20.5588                56.0173

                     43                     44                     45
                      A                      A                      A
 Frequencies --   1188.7913              1190.1832              1209.0653
 Red. masses --      1.8107                 1.3878                 2.4746
 Frc consts  --      1.5077                 1.1583                 2.1314
 IR Inten    --     25.1087                 7.2443                51.3918

                     46                     47                     48
                      A                      A                      A
 Frequencies --   1222.1180              1231.4914              1254.9751
 Red. masses --      1.5211                 1.5409                 1.4902
 Frc consts  --      1.3386                 1.3768                 1.3828
 IR Inten    --     27.9832                24.6070               102.9857

                     49                     50                     51
                      A                      A                      A
 Frequencies --   1257.9243              1300.8739              1322.7709
 Red. masses --      1.8726                 1.4464                 1.3599
 Frc consts  --      1.7458                 1.4422                 1.4019
 IR Inten    --     32.2181                 2.0765                 2.8317

                     52                     53                     54
                      A                      A                      A
 Frequencies --   1329.9019              1338.1228              1362.2058
 Red. masses --      1.3249                 1.3398                 1.3627
 Frc consts  --      1.3806                 1.4135                 1.4899
 IR Inten    --      3.4517                 2.8180                 9.8442

                     55                     56                     57
                      A                      A                      A
 Frequencies --   1368.3729              1383.5703              1393.4990
 Red. masses --      1.6717                 1.3591                 1.3575
 Frc consts  --      1.8443                 1.5329                 1.5531
 IR Inten    --      6.4915                 9.7058                45.9984

                     58                     59                     60
                      A                      A                      A
 Frequencies --   1402.8250              1427.1172              1434.7993
 Red. masses --      1.7421                 2.3620                 1.2677
 Frc consts  --      2.0199                 2.8343                 1.5377
 IR Inten    --    120.5972               262.6260                21.2008

                     61                     62                     63
                      A                      A                      A
 Frequencies --   1482.5716              1500.5235              1511.3126
 Red. masses --      1.1347                 1.2500                 1.0490
 Frc consts  --      1.4694                 1.6582                 1.4117
 IR Inten    --      6.6988                71.3447                 4.4834

                     64                     65                     66
                      A                      A                      A
 Frequencies --   1518.1486              1519.6380              1522.4923
 Red. masses --      1.1046                 1.1030                 1.0885
 Frc consts  --      1.5000                 1.5007                 1.4866
 IR Inten    --     16.6575                 9.1403                 4.1822

                     67                     68                     69
                      A                      A                      A
 Frequencies --   1528.3044              1531.4159              1544.8902
 Red. masses --      1.0846                 1.0760                 1.0740
 Frc consts  --      1.4926                 1.4868                 1.5103
 IR Inten    --      4.7959                 4.4964                 4.7122

                     70                     71                     72
                      A                      A                      A
 Frequencies --   1555.1149              1558.0788              1801.3195
 Red. masses --      1.0857                 1.0763                11.1214
 Frc consts  --      1.5470                 1.5395                21.2615
 IR Inten    --      8.3604                 3.0191               436.6025

                     73                     74                     75
                      A                      A                      A
 Frequencies --   3015.6062              3025.0533              3040.1971
 Red. masses --      1.0839                 1.0687                 1.0734
 Frc consts  --      5.8077                 5.7620                 5.8457
 IR Inten    --     24.0240                42.2695                26.3936

                     76                     77                     78
                      A                      A                      A
 Frequencies --   3050.9133              3051.8468              3069.7333
 Red. masses --      1.0652                 1.0665                 1.0638
 Frc consts  --      5.8415                 5.8525                 5.9061
 IR Inten    --     49.9664                51.8702                31.0512

                     79                     80                     81
                      A                      A                      A
 Frequencies --   3073.0229              3073.7473              3096.6024
 Red. masses --      1.0368                 1.0350                 1.1002
 Frc consts  --      5.7686                 5.7615                 6.2156
 IR Inten    --     60.6649                16.0314                18.7040

                     82                     83                     84
                      A                      A                      A
 Frequencies --   3099.5980              3113.0175              3125.5413
 Red. masses --      1.0967                 1.0980                 1.1002
 Frc consts  --      6.2080                 6.2692                 6.3326
 IR Inten    --     19.9547                36.7432                31.3032

                     85                     86                     87
                      A                      A                      A
 Frequencies --   3139.9115              3143.7962              3147.5893
 Red. masses --      1.0995                 1.0944                 1.1075
 Frc consts  --      6.3867                 6.3728                 6.4647
 IR Inten    --     36.3797                10.2605                25.2192

                     88                     89                     90
                      A                      A                      A
 Frequencies --   3169.9553              3173.6621              3515.1017
 Red. masses --      1.0994                 1.1072                 1.0748
 Frc consts  --      6.5092                 6.5705                 7.8246
 IR Inten    --     12.3882                18.8157                 0.9171

 - Thermochemistry -
 -------------------
 Temperature   298.150 Kelvin.  Pressure   1.00000 Atm.
 Atom     1 has atomic number  6 and mass  12.00000

 Molecular mass:   198.13683 amu.
 Principal axes and moments of inertia in atomic units:
                           1         2         3
     Eigenvalues --  1240.815004236.172964827.99529
           X            0.99987  -0.01443   0.00741
           Y            0.01430   0.99975   0.01711
           Z           -0.00766  -0.01700   0.99983
 This molecule is an asymmetric top.
 Rotational symmetry number  1.
 Warning -- assumption of classical behavior for rotation
           may cause significant error
 Rotational temperatures (Kelvin)      0.06980     0.02045     0.01794
 Rotational constants (GHZ):           1.45448     0.42603     0.37381
 Zero-point vibrational energy     746942.9 (Joules/Mol)
                                  178.52363 (Kcal/Mol)
 Warning -- explicit consideration of  19 degrees of freedom as
           vibrations may cause significant error
 Vibrational temperatures:     47.61    99.72   124.33   138.03   183.58
          (Kelvin)            208.48   233.96   285.36   321.36   360.01
                              390.61   449.68   472.57   506.16   564.50
                              621.46   658.22   735.42   823.76   933.40
                              985.46  1029.79  1094.02  1100.54  1160.94
                             1170.83  1189.36  1259.51  1319.87  1359.33
                             1383.47  1404.39  1454.65  1463.41  1474.62
                             1528.53  1561.40  1564.07  1593.40  1643.57
                             1650.31  1666.75  1710.41  1712.41  1739.58
                             1758.36  1771.84  1805.63  1809.87  1871.67
                             1903.17  1913.43  1925.26  1959.91  1968.78
                             1990.65  2004.93  2018.35  2053.30  2064.36
                             2133.09  2158.92  2174.44  2184.28  2186.42
                             2190.53  2198.89  2203.37  2222.75  2237.46
                             2241.73  2591.70  4338.78  4352.38  4374.17
                             4389.58  4390.93  4416.66  4421.39  4422.44
                             4455.32  4459.63  4478.94  4496.96  4517.63
                             4523.22  4528.68  4560.86  4566.19  5057.45

 Zero-point correction=                           0.284496 (Hartree/Particle)
 Thermal correction to Energy=                    0.298405
 Thermal correction to Enthalpy=                  0.299349
 Thermal correction to Gibbs Free Energy=         0.243493
 Sum of electronic and zero-point Energies=           -651.632926
 Sum of electronic and thermal Energies=              -651.619016
 Sum of electronic and thermal Enthalpies=            -651.618072
 Sum of electronic and thermal Free Energies=         -651.673929

                     E (Thermal)             CV                S
                      KCal/Mol        Cal/Mol-Kelvin    Cal/Mol-Kelvin
 Total                  187.252             52.636            117.560
 Electronic               0.000              0.000              0.000
 Translational            0.889              2.981             41.756
 Rotational               0.889              2.981             31.607
 Vibrational            185.474             46.674             44.197
 Vibration     1          0.594              1.983              5.635
 Vibration     2          0.598              1.969              4.173
 Vibration     3          0.601              1.959              3.740
 Vibration     4          0.603              1.952              3.535
 Vibration     5          0.611              1.926              2.982
 Vibration     6          0.616              1.908              2.738
 Vibration     7          0.623              1.888              2.519
 Vibration     8          0.637              1.842              2.149
 Vibration     9          0.649              1.805              1.932
 Vibration    10          0.663              1.762              1.729
 Vibration    11          0.675              1.726              1.587
 Vibration    12          0.701              1.650              1.349
 Vibration    13          0.712              1.619              1.268
 Vibration    14          0.728              1.572              1.158
 Vibration    15          0.760              1.487              0.991
 Vibration    16          0.793              1.401              0.852
 Vibration    17          0.816              1.344              0.773
 Vibration    18          0.866              1.225              0.631
 Vibration    19          0.929              1.091              0.499

 Optimization completed.
    -- Stationary point found.
 Normal termination of Gaussian 16 at Thu Dec 10 11:19:46 2020.

 ----------------------------------------------------------------------
 # B3LYP/6-311++G(d,p) empiricaldispersion=gd3bj scf=xqc pop=npa geom=c
 heck
 ----------------------------------------------------------------------

 --------------------------------------
 CID_83847862_JID_4992_Energie_neutraal
 --------------------------------------
 Structure from the checkpoint file:  "JID_4992.chk"
 Charge =  0 Multiplicity = 1

 SCF Done:  E(RB3LYP) =  -652.104756991     A.U. after   14 cycles
 Normal termination of Gaussian 16 at Thu Dec 10 11:23:38 2020.

 ----------------------------------------------------------------------
 # B3LYP/6-311++G(d,p) empiricaldispersion=gd3bj scf=xqc pop=npa geom=c
 heck
 ----------------------------------------------------------------------

 ------------------------------------
 CID_83847862_JID_4992_Energie_kation
 ------------------------------------
 Structure from the checkpoint file:  "JID_4992.chk"
 Charge =  1 Multiplicity = 2

 SCF Done:  E(UB3LYP) =  -651.800247058     A.U. after   25 cycles
 Normal termination of Gaussian 16 at Thu Dec 10 11:33:00 2020.
 Gaussian 16:  ES64L-G16RevA.03 25-Dec-2016

 ----------------------------------------------------------------------
 # B3LYP/6-311++G(d,p) empiricaldispersion=gd3bj scf=xqc pop=npa geom=c
 heck
 ----------------------------------------------------------------------

 -----------------------------------
 CID_83847862_JID_4992_Energie_anion
 -----------------------------------
 Structure from the checkpoint file:  "JID_4992.chk"
 Charge = -1 Multiplicity = 2

                         Standard orientation:
 ---------------------------------------------------------------------
 Center     Atomic      Atomic             Coordinates (Angstroms)
 Number     Number       Type             X           Y           Z
 ---------------------------------------------------------------------
      1          6           0       -0.164673   -1.673554   -0.690180
      2          6           0       -0.095823   -0.435468    0.204604
      3          6           0       -1.378104    0.454396    0.276991
      4          6           0       -2.222725    0.453310   -1.022888
      5          6           0       -3.330726   -0.616476   -0.793933
      6          7           0       -3.249349   -1.053500    0.617324
      7          6           0       -2.414812   -0.057671    1.298163
      8          6           0       -0.789396    1.837308    0.597349
      9          6           0        0.458361    1.902300   -0.280483
     10          7           0        0.948843    0.518791   -0.234190
     11          6           0        2.291314    0.307862   -0.131494
     12          8           0        3.150740    1.149172   -0.339647
     13          8           0        2.572905   -0.974309    0.240744
     14          6           0        3.971660   -1.265554    0.333913
     15          1           0       -0.346771   -1.403383   -1.733920
     16          1           0       -0.965171   -2.342825   -0.359144
     17          1           0        0.776784   -2.221934   -0.639906
     18          1           0        0.143862   -0.768374    1.224618
     19          1           0       -1.630707    0.261850   -1.921002
     20          1           0       -2.678318    1.441312   -1.151234
     21          1           0       -3.220654   -1.478992   -1.458624
     22          1           0       -4.319157   -0.183900   -0.988307
     23          1           0       -2.780013   -1.953978    0.658937
     24          1           0       -3.048436    0.784172    1.612425
     25          1           0       -1.963029   -0.480926    2.201531
     26          1           0       -1.496929    2.649108    0.403634
     27          1           0       -0.497949    1.885863    1.654776
     28          1           0        1.233976    2.579165    0.081056
     29          1           0        0.209529    2.191707   -1.309850
     30          1           0        4.465428   -1.108707   -0.628748
     31          1           0        4.451221   -0.630293    1.083120
     32          1           0        4.030259   -2.314541    0.627657
 ---------------------------------------------------------------------

 SCF Done:  E(UB3LYP) =  -652.091117359     A.U. after   30 cycles

 The electronic state is 2-A.
 Alpha  occ. eigenvalues --  -19.06351 -18.99397 -14.23960 -14.19723 -10.21433
 Alpha  occ. eigenvalues --  -10.12450 -10.11412 -10.10604 -10.09259 -10.09207
 Alpha  occ. eigenvalues --  -10.08867 -10.07662 -10.06836 -10.05771  -1.00783
 Alpha  occ. eigenvalues --   -0.91449  -0.85388  -0.81823  -0.71170  -0.67178
 Alpha  occ. eigenvalues --   -0.63852  -0.62820  -0.59944  -0.55274  -0.52751
 Alpha  occ. eigenvalues --   -0.50005  -0.45835  -0.45471  -0.43603  -0.41557
 Alpha  occ. eigenvalues --   -0.39752  -0.37788  -0.37003  -0.36586  -0.35049
 Alpha  occ. eigenvalues --   -0.33142  -0.32808  -0.32076  -0.31545  -0.30649
 Alpha  occ. eigenvalues --   -0.29403  -0.29088  -0.27765  -0.26967  -0.26452
 Alpha  occ. eigenvalues --   -0.25907  -0.24553  -0.24011  -0.22521  -0.21941
 Alpha  occ. eigenvalues --   -0.20419  -0.18172  -0.14761  -0.13241   0.04372
 Alpha virt. eigenvalues --    0.06314   0.07027   0.07515   0.08418   0.09161
 Alpha virt. eigenvalues --    0.09631   0.09817   0.10075   0.10951   0.11189
 Alpha virt. eigenvalues --    0.11556   0.12697   0.13100   0.13221   0.13784

  Beta  occ. eigenvalues --  -19.06344 -18.99389 -14.23961 -14.19709 -10.21432
  Beta  occ. eigenvalues --  -10.12417 -10.11397 -10.10594 -10.09238 -10.09187
  Beta  occ. eigenvalues --  -10.08869 -10.07643 -10.06808 -10.05736  -1.00773
  Beta  occ. eigenvalues --   -0.91437  -0.85377  -0.81793  -0.71150  -0.67146
  Beta  occ. eigenvalues --   -0.63809  -0.62777  -0.59895  -0.55215  -0.52703
  Beta  occ. eigenvalues --   -0.49938  -0.45804  -0.45435  -0.43566  -0.41505
  Beta  occ. eigenvalues --   -0.39720  -0.37755  -0.36978  -0.36543  -0.35015
  Beta  occ. eigenvalues --   -0.33111  -0.32786  -0.32048  -0.31516  -0.30612
  Beta  occ. eigenvalues --   -0.29358  -0.29053  -0.27725  -0.26931  -0.26417
  Beta  occ. eigenvalues --   -0.25875  -0.24511  -0.23980  -0.22489  -0.21909
  Beta  occ. eigenvalues --   -0.20401  -0.18160  -0.14747  -0.13220
  Beta virt. eigenvalues --    0.06567   0.07185   0.07725   0.08273   0.08746
  Beta virt. eigenvalues --    0.09737   0.10133   0.10220   0.10488   0.11204
  Beta virt. eigenvalues --    0.11591   0.11823   0.13128   0.13385   0.13577

 Mulliken charges and spin densities:
               1          2
     1  C    1.513403  -2.052115
     2  C   -0.630368  -0.124287
     3  C   -1.081806   1.751841
     4  C   -0.213314  -0.026057
     5  C    0.931929  -1.461749
     6  N   -0.243609   0.189385
     7  C    0.282049  -1.147282
     8  C    0.043562  -0.295378
     9  C    0.264332  -0.534395
    10  N   -0.008034   0.092741
    11  C   -0.079311   0.284205
    12  O   -0.324070   0.007396
    13  O   -0.132677   0.034228
    14  C    0.761209  -0.973389
    15  H   -0.045122   0.210814
    16  H   -0.339872   0.466592
    17  H   -0.047836   0.227311
    18  H    0.009374   0.255241
    19  H   -0.029680   0.183297
    20  H   -0.180691   0.354876
    21  H   -0.193714   0.355461
    22  H   -0.094524   0.256308
    23  H    0.076889   0.149390
    24  H    0.024418   0.161634
    25  H   -0.408810   0.587776
    26  H   -0.284754   0.457143
    27  H    0.011996   0.149323
    28  H    0.039107   0.183611
    29  H   -0.006816   0.157272
    30  H   -0.096926   0.272811
    31  H   -0.102278   0.267308
    32  H   -0.414055   0.558690
 Sum of Mulliken charges =  -1.00000   1.00000

 Dipole moment (field-independent basis, Debye):
    X=              0.2917    Y=              2.1664    Z=             -0.5826  Tot=              2.2623
 Quadrupole moment (field-independent basis, Debye-Ang):
   XX=           -160.2327   YY=           -132.7751   ZZ=           -120.9873
   XY=              0.2907   XZ=              0.0498   YZ=              4.1137

 Summary of Natural Population Analysis:

                                       Natural Population
                Natural  -----------------------------------------------
    Atom  No    Charge         Core      Valence    Rydberg      Total
 -----------------------------------------------------------------------
      C    1   -0.29062      0.99963     2.28401    0.00698     3.29062
      C    2    0.00325      0.99954     1.98319    0.01402     2.99675
      C    3   -0.04662      0.99954     2.03254    0.01455     3.04662
      C    4   -0.20267      0.99959     2.19392    0.00916     3.20267
      C    5   -0.09000      0.99964     2.08030    0.01006     3.09000
      N    6   -0.33816      0.99976     2.82654    0.01186     3.83816
      C    7   -0.08415      0.99957     2.07227    0.01232     3.08415
      C    8   -0.19052      0.99958     2.18149    0.00945     3.19052
      C    9   -0.07706      0.99962     2.06864    0.00879     3.07706
      N   10   -0.26532      0.99963     2.75553    0.01016     3.76532
      C   11    0.46907      0.99964     1.50759    0.02370     2.53093
      O   12   -0.33765      0.99987     3.33246    0.00532     4.33765
      O   13   -0.28667      0.99987     3.27803    0.00877     4.28667
      C   14   -0.10074      0.99959     2.09184    0.00931     3.10074
      H   15    0.09897      0.00000     0.39965    0.00139     0.40103
      H   16    0.09724      0.00000     0.40090    0.00187     0.40276
      H   17    0.11309      0.00000     0.38538    0.00153     0.38691
      H   18    0.09814      0.00000     0.39921    0.00266     0.40186
      H   19    0.10565      0.00000     0.39307    0.00128     0.39435
      H   20    0.10089      0.00000     0.39760    0.00152     0.39911
      H   21    0.09420      0.00000     0.40454    0.00126     0.40580
      H   22    0.08936      0.00000     0.40927    0.00137     0.41064
      H   23    0.17286      0.00000     0.32337    0.00377     0.32714
      H   24    0.08999      0.00000     0.40861    0.00140     0.41001
      H   25    0.10086      0.00000     0.39777    0.00137     0.39914
      H   26    0.10489      0.00000     0.39392    0.00119     0.39511
      H   27    0.09953      0.00000     0.39913    0.00134     0.40047
      H   28    0.10821      0.00000     0.39065    0.00113     0.39179
      H   29    0.09203      0.00000     0.40659    0.00138     0.40797
      H   30    0.08953      0.00000     0.40940    0.00106     0.41047
      H   31    0.09017      0.00000     0.40872    0.00111     0.40983
      H   32    0.09224      0.00000     0.40630    0.00146     0.40776
 =======================================================================
   * Total *   -0.00000     13.99508    39.82241    0.18251    54.00000

 Normal termination of Gaussian 16 at Thu Dec 10 11:43:18 2020.
