 Gaussian 16, Revision A.03,

 -----------------------------------------------------------
 # opt freq B3LYP/6-31G(d) empiricaldispersion=gd3bj scf=xqc
 -----------------------------------------------------------

 -------------------------------
 CID_121184447_JID_5464_neutraal
 -------------------------------
 Symbolic Z-matrix:
 Charge =  0 Multiplicity = 1

 SCF Done:  E(RB3LYP) =  -648.953855708     A.U. after   15 cycles
 SCF Done:  E(RB3LYP) =  -648.967381894     A.U. after   12 cycles
 SCF Done:  E(RB3LYP) =  -648.968929451     A.U. after   11 cycles
 SCF Done:  E(RB3LYP) =  -648.969135853     A.U. after   11 cycles
 SCF Done:  E(RB3LYP) =  -648.969195947     A.U. after   11 cycles
 SCF Done:  E(RB3LYP) =  -648.969243256     A.U. after   10 cycles
 SCF Done:  E(RB3LYP) =  -648.969252441     A.U. after   10 cycles
 SCF Done:  E(RB3LYP) =  -648.969256910     A.U. after    9 cycles
 SCF Done:  E(RB3LYP) =  -648.969260900     A.U. after   10 cycles
 SCF Done:  E(RB3LYP) =  -648.969269569     A.U. after   10 cycles
 SCF Done:  E(RB3LYP) =  -648.969285678     A.U. after    8 cycles
 SCF Done:  E(RB3LYP) =  -648.969285890     A.U. after    7 cycles
 SCF Done:  E(RB3LYP) =  -648.969286012     A.U. after    7 cycles
 SCF Done:  E(RB3LYP) =  -648.969286067     A.U. after    7 cycles
 SCF Done:  E(RB3LYP) =  -648.969286100     A.U. after    7 cycles
 Optimization completed.
    -- Stationary point found.
 Normal termination of Gaussian 16 at Thu Dec 10 16:14:45 2020.

 --------------------------------------------------------------------
 #N Geom=AllCheck Guess=TCheck SCRF=Check GenChk RB3LYP/6-31G(d) Freq
 --------------------------------------------------------------------

 Structure from the checkpoint file:  "JID_5464.chk"
 -------------------------------
 CID_121184447_JID_5464_neutraal
 -------------------------------
 Charge =  0 Multiplicity = 1

 SCF Done:  E(RB3LYP) =  -648.969286100     A.U. after    1 cycles

  Exact polarizability: 186.717  -0.347 119.669  -0.994  -0.247 103.824
 Approx polarizability: 222.558  -0.015 201.467  -3.859  -2.088 156.290

                      1                      2                      3
                      A                      A                      A
 Frequencies --     15.3664                29.6535                37.5250
 Red. masses --      4.4354                 3.6890                 2.9599
 Frc consts  --      0.0006                 0.0019                 0.0025
 IR Inten    --      0.8802                 1.3291                 2.0866

                      4                      5                      6
                      A                      A                      A
 Frequencies --     43.9030               107.4311               116.7295
 Red. masses --      2.7143                 3.0643                 4.0615
 Frc consts  --      0.0031                 0.0208                 0.0326
 IR Inten    --      1.0356                 1.5562                 0.6969

                      7                      8                      9
                      A                      A                      A
 Frequencies --    179.7173               202.2377               211.4778
 Red. masses --      2.8411                 3.9159                 1.4897
 Frc consts  --      0.0541                 0.0944                 0.0393
 IR Inten    --      0.9499                 1.3074                 0.1672

                     10                     11                     12
                      A                      A                      A
 Frequencies --    238.1491               258.9894               296.9950
 Red. masses --      1.4277                 1.2451                 2.5555
 Frc consts  --      0.0477                 0.0492                 0.1328
 IR Inten    --      0.2833                 0.1272                 3.8666

                     13                     14                     15
                      A                      A                      A
 Frequencies --    319.3951               378.6133               392.9202
 Red. masses --      3.2527                 3.2752                 2.6446
 Frc consts  --      0.1955                 0.2766                 0.2406
 IR Inten    --      1.6597                 1.7840                 0.0082

                     16                     17                     18
                      A                      A                      A
 Frequencies --    416.7044               446.0483               469.7687
 Red. masses --      4.7478                 3.9459                 3.1094
 Frc consts  --      0.4857                 0.4626                 0.4043
 IR Inten    --      5.0571                 2.0230                 6.1753

                     19                     20                     21
                      A                      A                      A
 Frequencies --    515.5306               602.7103               644.5357
 Red. masses --      2.5231                 2.4080                 2.5804
 Frc consts  --      0.3951                 0.5154                 0.6316
 IR Inten    --      1.8960                 1.2473                 1.2351

                     22                     23                     24
                      A                      A                      A
 Frequencies --    677.5672               708.1868               719.9798
 Red. masses --      3.6355                 2.7550                 3.3738
 Frc consts  --      0.9834                 0.8141                 1.0304
 IR Inten    --      2.9385                11.6267                 2.0745

                     25                     26                     27
                      A                      A                      A
 Frequencies --    765.3478               800.4977               829.0667
 Red. masses --      1.8128                 1.0792                 1.5975
 Frc consts  --      0.6256                 0.4075                 0.6469
 IR Inten    --     14.7999                 0.0672                 8.7842

                     28                     29                     30
                      A                      A                      A
 Frequencies --    863.0270               895.5891               904.4968
 Red. masses --      2.9227                 3.1201                 1.2257
 Frc consts  --      1.2826                 1.4744                 0.5908
 IR Inten    --      2.8465                 2.4821                 1.0664

                     31                     32                     33
                      A                      A                      A
 Frequencies --    924.4962               925.4833               934.3332
 Red. masses --      2.8507                 3.1472                 1.2042
 Frc consts  --      1.4355                 1.5882                 0.6194
 IR Inten    --      1.1053                11.7731                 0.5902

                     34                     35                     36
                      A                      A                      A
 Frequencies --    954.3329               989.4900              1023.9386
 Red. masses --      1.4297                 2.5635                 3.5791
 Frc consts  --      0.7672                 1.4788                 2.2109
 IR Inten    --      0.2605                 2.1692                12.6878

                     37                     38                     39
                      A                      A                      A
 Frequencies --   1031.5611              1055.3865              1058.4334
 Red. masses --      3.3977                 2.2776                 3.5442
 Frc consts  --      2.1302                 1.4947                 2.3393
 IR Inten    --      1.2676                 1.4091                48.8712

                     40                     41                     42
                      A                      A                      A
 Frequencies --   1069.2400              1080.7503              1094.4831
 Red. masses --      1.4157                 1.3395                 1.6664
 Frc consts  --      0.9536                 0.9218                 1.1761
 IR Inten    --     16.0683                 2.8297                 8.1551

                     43                     44                     45
                      A                      A                      A
 Frequencies --   1113.6789              1123.8615              1141.2447
 Red. masses --      2.3154                 2.3854                 1.0949
 Frc consts  --      1.6920                 1.7752                 0.8402
 IR Inten    --      6.9018                 3.0998                 0.5920

                     46                     47                     48
                      A                      A                      A
 Frequencies --   1143.8912              1154.0034              1190.8363
 Red. masses --      1.1365                 2.2545                 2.1420
 Frc consts  --      0.8762                 1.7690                 1.7896
 IR Inten    --      2.0395                11.1370                 4.9624

                     49                     50                     51
                      A                      A                      A
 Frequencies --   1198.0670              1214.5765              1216.3645
 Red. masses --      1.3743                 1.3953                 2.1962
 Frc consts  --      1.1622                 1.2127                 1.9144
 IR Inten    --     11.9055                 0.7204                 6.6319

                     52                     53                     54
                      A                      A                      A
 Frequencies --   1230.5282              1245.1110              1256.8777
 Red. masses --      2.1709                 2.0277                 2.9833
 Frc consts  --      1.9367                 1.8521                 2.7767
 IR Inten    --      1.6764                25.8116                25.8176

                     55                     56                     57
                      A                      A                      A
 Frequencies --   1265.1787              1282.3974              1297.3529
 Red. masses --      1.3791                 6.2767                 1.3656
 Frc consts  --      1.3007                 6.0817                 1.3543
 IR Inten    --      4.7129                39.4229                 5.9822

                     58                     59                     60
                      A                      A                      A
 Frequencies --   1321.9697              1354.3129              1368.0166
 Red. masses --      3.5109                 1.5937                 1.4387
 Frc consts  --      3.6150                 1.7223                 1.5864
 IR Inten    --     66.9792                 3.6850                 5.3994

                     61                     62                     63
                      A                      A                      A
 Frequencies --   1402.8359              1410.3981              1427.8371
 Red. masses --      1.3345                 1.6153                 1.2929
 Frc consts  --      1.5473                 1.8932                 1.5531
 IR Inten    --     18.6723                10.5188                 8.1115

                     64                     65                     66
                      A                      A                      A
 Frequencies --   1445.6683              1453.2369              1496.3233
 Red. masses --      1.2510                 2.4092                 1.0872
 Frc consts  --      1.5405                 2.9978                 1.4342
 IR Inten    --     13.6148                11.1901                 1.2855

                     67                     68                     69
                      A                      A                      A
 Frequencies --   1501.7700              1512.6927              1518.6623
 Red. masses --      3.5591                 1.0505                 1.0562
 Frc consts  --      4.7293                 1.4162                 1.4352
 IR Inten    --     42.5111                 1.1025                 0.4750

                     70                     71                     72
                      A                      A                      A
 Frequencies --   1525.8733              1535.4948              1536.2214
 Red. masses --      1.0605                 1.2758                 1.1502
 Frc consts  --      1.4548                 1.7723                 1.5993
 IR Inten    --      6.1708                 2.2849                 2.0871

                     73                     74                     75
                      A                      A                      A
 Frequencies --   1540.1466              1558.1955              1606.5998
 Red. masses --      1.0623                 1.1334                 6.8235
 Frc consts  --      1.4847                 1.6214                10.3770
 IR Inten    --      0.7056                18.5947                18.4513

                     76                     77                     78
                      A                      A                      A
 Frequencies --   3026.5538              3036.1480              3044.5193
 Red. masses --      1.0828                 1.0543                 1.0545
 Frc consts  --      5.8436                 5.7262                 5.7586
 IR Inten    --     22.2976                61.8074                 3.6838

                     79                     80                     81
                      A                      A                      A
 Frequencies --   3047.1941              3057.9842              3085.0267
 Red. masses --      1.0377                 1.0393                 1.1097
 Frc consts  --      5.6771                 5.7261                 6.2226
 IR Inten    --     24.6305                10.5158                39.8075

                     82                     83                     84
                      A                      A                      A
 Frequencies --   3091.6962              3110.5718              3120.6039
 Red. masses --      1.1091                 1.1001                 1.1011
 Frc consts  --      6.2460                 6.2712                 6.3179
 IR Inten    --     35.3502                13.3936                70.2768

                     85                     86                     87
                      A                      A                      A
 Frequencies --   3129.2825              3134.8002              3141.8498
 Red. masses --      1.1015                 1.1031                 1.0882
 Frc consts  --      6.3554                 6.3866                 6.3289
 IR Inten    --     26.0732                27.0711                21.0026

                     88                     89                     90
                      A                      A                      A
 Frequencies --   3144.7941              3148.8672              3192.1421
 Red. masses --      1.0504                 1.0588                 1.0900
 Frc consts  --      6.1207                 6.1856                 6.5442
 IR Inten    --     23.2219                 9.9242                 3.1134

                     91                     92                     93
                      A                      A                      A
 Frequencies --   3220.6031              3236.1305              3293.0209
 Red. masses --      1.1200                 1.1156                 1.0983
 Frc consts  --      6.8445                 6.8835                 7.0170
 IR Inten    --      0.1864                27.4758                 0.6811

 - Thermochemistry -
 -------------------
 Temperature   298.150 Kelvin.  Pressure   1.00000 Atm.
 Atom     1 has atomic number  6 and mass  12.00000

 Molecular mass:   206.15315 amu.
 Principal axes and moments of inertia in atomic units:
                           1         2         3
     Eigenvalues --   851.344007647.374527942.92624
           X            0.99996  -0.00869   0.00273
           Y            0.00865   0.99989   0.01240
           Z           -0.00283  -0.01238   0.99992
 This molecule is an asymmetric top.
 Rotational symmetry number  1.
 Warning -- assumption of classical behavior for rotation
           may cause significant error
 Rotational temperatures (Kelvin)      0.10174     0.01133     0.01090
 Rotational constants (GHZ):           2.11987     0.23599     0.22721
 Zero-point vibrational energy     754138.4 (Joules/Mol)
                                  180.24341 (Kcal/Mol)
 Warning -- explicit consideration of  20 degrees of freedom as
           vibrations may cause significant error
 Vibrational temperatures:     22.11    42.66    53.99    63.17   154.57
          (Kelvin)            167.95   258.57   290.97   304.27   342.64
                              372.63   427.31   459.54   544.74   565.32
                              599.54   641.76   675.89   741.73   867.17
                              927.34   974.87  1018.92  1035.89  1101.16
                             1151.74  1192.84  1241.70  1288.55  1301.37
                             1330.14  1331.56  1344.30  1373.07  1423.66
                             1473.22  1484.19  1518.47  1522.85  1538.40
                             1554.96  1574.72  1602.34  1616.99  1642.00
                             1645.80  1660.35  1713.35  1723.75  1747.50
                             1750.08  1770.46  1791.44  1808.37  1820.31
                             1845.08  1866.60  1902.02  1948.55  1968.27
                             2018.37  2029.25  2054.34  2079.99  2090.88
                             2152.88  2160.71  2176.43  2185.02  2195.39
                             2209.23  2210.28  2215.93  2241.90  2311.54
                             4354.54  4368.34  4380.38  4384.23  4399.76
                             4438.67  4448.26  4475.42  4489.85  4502.34
                             4510.28  4520.42  4524.66  4530.52  4592.78
                             4633.73  4656.07  4737.92

 Zero-point correction=                           0.287236 (Hartree/Particle)
 Thermal correction to Energy=                    0.301978
 Thermal correction to Enthalpy=                  0.302922
 Thermal correction to Gibbs Free Energy=         0.242712
 Sum of electronic and zero-point Energies=           -648.682050
 Sum of electronic and thermal Energies=              -648.667308
 Sum of electronic and thermal Enthalpies=            -648.666364
 Sum of electronic and thermal Free Energies=         -648.726574

                     E (Thermal)             CV                S
                      KCal/Mol        Cal/Mol-Kelvin    Cal/Mol-Kelvin
 Total                  189.494             55.473            126.723
 Electronic               0.000              0.000              0.000
 Translational            0.889              2.981             41.874
 Rotational               0.889              2.981             32.314
 Vibrational            187.717             49.512             52.535
 Vibration     1          0.593              1.986              7.158
 Vibration     2          0.593              1.984              5.852
 Vibration     3          0.594              1.982              5.386
 Vibration     4          0.595              1.980              5.075
 Vibration     5          0.606              1.943              3.315
 Vibration     6          0.608              1.935              3.154
 Vibration     7          0.629              1.867              2.331
 Vibration     8          0.639              1.837              2.113
 Vibration     9          0.643              1.823              2.031
 Vibration    10          0.656              1.782              1.817
 Vibration    11          0.668              1.748              1.669
 Vibration    12          0.691              1.679              1.434
 Vibration    13          0.705              1.636              1.313
 Vibration    14          0.749              1.516              1.045
 Vibration    15          0.760              1.485              0.989
 Vibration    16          0.780              1.434              0.903
 Vibration    17          0.805              1.370              0.808
 Vibration    18          0.827              1.317              0.738
 Vibration    19          0.871              1.216              0.620
 Vibration    20          0.961              1.026              0.445

                           ! Non-Optimized Parameters !
 Normal termination of Gaussian 16 at Thu Dec 10 16:23:42 2020.

 ----------------------------------------------------------------------
 # B3LYP/6-311++G(d,p) empiricaldispersion=gd3bj scf=xqc pop=npa geom=c
 heck
 ----------------------------------------------------------------------

 ---------------------------------------
 CID_121184447_JID_5464_Energie_neutraal
 ---------------------------------------
 Structure from the checkpoint file:  "JID_5464.chk"
 Charge =  0 Multiplicity = 1

 SCF Done:  E(RB3LYP) =  -649.140235120     A.U. after   14 cycles
 Normal termination of Gaussian 16 at Thu Dec 10 16:28:14 2020.

 ----------------------------------------------------------------------
 # B3LYP/6-311++G(d,p) empiricaldispersion=gd3bj scf=xqc pop=npa geom=c
 heck
 ----------------------------------------------------------------------

 -------------------------------------
 CID_121184447_JID_5464_Energie_kation
 -------------------------------------
 Structure from the checkpoint file:  "JID_5464.chk"
 Charge =  1 Multiplicity = 2

 SCF Done:  E(UB3LYP) =  -648.848408269     A.U. after   29 cycles
 Normal termination of Gaussian 16 at Thu Dec 10 16:48:00 2020.
 Gaussian 16:  ES64L-G16RevA.03 25-Dec-2016

 ----------------------------------------------------------------------
 # B3LYP/6-311++G(d,p) empiricaldispersion=gd3bj scf=xqc pop=npa geom=c
 heck
 ----------------------------------------------------------------------

 ------------------------------------
 CID_121184447_JID_5464_Energie_anion
 ------------------------------------
 Structure from the checkpoint file:  "JID_5464.chk"
 Charge = -1 Multiplicity = 2

                         Standard orientation:
 ---------------------------------------------------------------------
 Center     Atomic      Atomic             Coordinates (Angstroms)
 Number     Number       Type             X           Y           Z
 ---------------------------------------------------------------------
      1          6           0       -3.608698    1.620501    0.075732
      2          6           0       -3.931905    0.128367    0.266519
      3          6           0       -4.925680   -0.359744   -0.790218
      4          7           0       -2.771565   -0.764956    0.267772
      5          6           0       -1.790347   -0.728230   -0.837855
      6          6           0       -0.683520   -1.026745    0.200591
      7          6           0       -1.707760   -0.593661    1.274904
      8          7           0        0.545870   -0.269115    0.104951
      9          6           0        1.824977   -0.726545    0.054041
     10          6           0        2.600023    0.414172   -0.040382
     11          7           0        1.757874    1.491676   -0.042159
     12          7           0        0.519359    1.078394    0.045117
     13          6           0        4.062341    0.584283   -0.129046
     14          6           0        4.996944   -0.351235    0.612039
     15          6           0        4.913274   -0.415574   -0.886878
     16          1           0       -3.230493    1.822376   -0.932566
     17          1           0       -2.858367    1.974574    0.789632
     18          1           0       -4.513924    2.221741    0.214954
     19          1           0       -4.391610    0.002519    1.257076
     20          1           0       -4.494991   -0.269194   -1.795467
     21          1           0       -5.180229   -1.410486   -0.622110
     22          1           0       -5.844373    0.236257   -0.769230
     23          1           0       -1.953162   -1.471323   -1.626639
     24          1           0       -1.635985    0.260673   -1.288300
     25          1           0       -0.417627   -2.082499    0.257070
     26          1           0       -1.523420    0.443438    1.584616
     27          1           0       -1.808810   -1.229789    2.162319
     28          1           0        2.061575   -1.778673    0.088299
     29          1           0        4.356423    1.627477   -0.190284
     30          1           0        5.887663    0.074211    1.065299
     31          1           0        4.542014   -1.151844    1.189449
     32          1           0        4.400572   -1.260284   -1.339558
     33          1           0        5.746081   -0.034706   -1.471004
 ---------------------------------------------------------------------

 SCF Done:  E(UB3LYP) =  -649.128330476     A.U. after   33 cycles
 SCF Done:  E(UB3LYP) =  -649.128330476     a.u. after    1 cycles

 The electronic state is 2-A.
 Alpha  occ. eigenvalues --  -14.30946 -14.26973 -14.23631 -14.21164 -10.13445
 Alpha  occ. eigenvalues --  -10.11635 -10.11201 -10.10829 -10.10660 -10.10603
 Alpha  occ. eigenvalues --  -10.09938 -10.08839 -10.08810 -10.06995 -10.06981
 Alpha  occ. eigenvalues --   -1.00270  -0.86300  -0.81715  -0.78015  -0.71499
 Alpha  occ. eigenvalues --   -0.70521  -0.63381  -0.60236  -0.59260  -0.56525
 Alpha  occ. eigenvalues --   -0.55117  -0.51754  -0.49488  -0.48148  -0.45537
 Alpha  occ. eigenvalues --   -0.44339  -0.40808  -0.39926  -0.39567  -0.38671
 Alpha  occ. eigenvalues --   -0.37078  -0.36443  -0.34393  -0.33277  -0.32269
 Alpha  occ. eigenvalues --   -0.30103  -0.29748  -0.29503  -0.28846  -0.28444
 Alpha  occ. eigenvalues --   -0.27111  -0.26412  -0.24668  -0.24073  -0.23933
 Alpha  occ. eigenvalues --   -0.23423  -0.21674  -0.19131  -0.17868  -0.14655
 Alpha  occ. eigenvalues --   -0.12928   0.04118
 Alpha virt. eigenvalues --    0.05631   0.06341   0.07386   0.07668   0.07991
 Alpha virt. eigenvalues --    0.08321   0.08584   0.09538   0.09667   0.10182
 Alpha virt. eigenvalues --    0.10800   0.11444   0.11574   0.12090   0.12500

  Beta  occ. eigenvalues --  -14.30948 -14.26967 -14.23629 -14.21165 -10.13421
  Beta  occ. eigenvalues --  -10.11599 -10.11195 -10.10831 -10.10647 -10.10585
  Beta  occ. eigenvalues --  -10.09935 -10.08819 -10.08790 -10.06985 -10.06959
  Beta  occ. eigenvalues --   -1.00262  -0.86285  -0.81709  -0.78001  -0.71476
  Beta  occ. eigenvalues --   -0.70501  -0.63354  -0.60203  -0.59224  -0.56503
  Beta  occ. eigenvalues --   -0.55091  -0.51693  -0.49441  -0.48122  -0.45498
  Beta  occ. eigenvalues --   -0.44297  -0.40755  -0.39882  -0.39535  -0.38653
  Beta  occ. eigenvalues --   -0.37042  -0.36399  -0.34364  -0.33254  -0.32252
  Beta  occ. eigenvalues --   -0.30075  -0.29728  -0.29484  -0.28822  -0.28419
  Beta  occ. eigenvalues --   -0.27086  -0.26391  -0.24648  -0.24051  -0.23912
  Beta  occ. eigenvalues --   -0.23402  -0.21650  -0.19115  -0.17862  -0.14639
  Beta  occ. eigenvalues --   -0.12918
  Beta virt. eigenvalues --    0.06078   0.06382   0.07581   0.07707   0.07812
  Beta virt. eigenvalues --    0.08416   0.08470   0.08843   0.10013   0.10131
  Beta virt. eigenvalues --    0.10467   0.10965   0.11487   0.11962   0.12437

 Mulliken charges and spin densities:
               1          2
     1  C    0.112212  -0.664925
     2  C   -0.789048   0.808671
     3  C    0.264002  -0.808010
     4  N   -0.002713   0.078212
     5  C    1.045615  -1.471672
     6  C   -0.971843   0.657536
     7  C    0.963653  -1.330883
     8  N    0.574622  -0.053217
     9  C   -0.475010   0.283958
    10  C    0.835871  -1.091994
    11  N    0.174409  -0.011250
    12  N   -0.441198   0.091821
    13  C   -0.890254   0.942007
    14  C    0.495903  -0.887646
    15  C    0.565410  -0.949954
    16  H    0.074490   0.068665
    17  H    0.093964   0.039349
    18  H   -0.013643   0.162108
    19  H   -0.147957   0.308834
    20  H   -0.008900   0.149395
    21  H   -0.009496   0.168854
    22  H   -0.184996   0.317884
    23  H   -0.246865   0.446015
    24  H    0.164287  -0.015398
    25  H   -0.748872   0.957252
    26  H    0.209991  -0.072551
    27  H   -0.327918   0.524169
    28  H   -0.860165   1.069378
    29  H    0.053923   0.184866
    30  H   -0.074011   0.219627
    31  H   -0.190967   0.340461
    32  H   -0.160281   0.308197
    33  H   -0.084215   0.230241
 Sum of Mulliken charges =  -1.00000   1.00000

 Dipole moment (field-independent basis, Debye):
    X=             -0.8820    Y=              4.9128    Z=             -0.1756  Tot=              4.9945
 Quadrupole moment (field-independent basis, Debye-Ang):
   XX=           -184.5924   YY=           -145.7083   ZZ=           -120.5588
   XY=              4.6690   XZ=             -0.4422   YZ=              1.4302

 Summary of Natural Population Analysis:

                                       Natural Population
                Natural  -----------------------------------------------
    Atom  No    Charge         Core      Valence    Rydberg      Total
 -----------------------------------------------------------------------
      C    1   -0.29794      0.99964     2.29367    0.00463     3.29794
      C    2   -0.00595      0.99961     1.99363    0.01272     3.00595
      C    3   -0.28554      0.99964     2.28071    0.00518     3.28554
      N    4   -0.28454      0.99972     2.76982    0.01501     3.78454
      C    5   -0.08000      0.99962     2.06931    0.01107     3.08000
      C    6   -0.01520      0.99955     1.99952    0.01613     3.01520
      C    7   -0.07587      0.99962     2.06552    0.01073     3.07587
      N    8   -0.10085      0.99964     2.58673    0.01448     3.60085
      C    9   -0.01962      0.99949     2.00899    0.01114     3.01962
      C   10    0.04048      0.99955     1.94376    0.01622     2.95952
      N   11   -0.14047      0.99972     2.62779    0.01295     3.64047
      N   12   -0.05032      0.99978     2.53641    0.01413     3.55032
      C   13   -0.12583      0.99957     2.11576    0.01050     3.12583
      C   14   -0.19146      0.99963     2.18411    0.00772     3.19146
      C   15   -0.19146      0.99963     2.18412    0.00771     3.19146
      H   16    0.09784      0.00000     0.40127    0.00089     0.40216
      H   17    0.10285      0.00000     0.39622    0.00094     0.39715
      H   18    0.09945      0.00000     0.39965    0.00090     0.40055
      H   19    0.09274      0.00000     0.40606    0.00120     0.40726
      H   20    0.09634      0.00000     0.40257    0.00109     0.40366
      H   21    0.10462      0.00000     0.39383    0.00155     0.39538
      H   22    0.09791      0.00000     0.40112    0.00097     0.40209
      H   23    0.09602      0.00000     0.40257    0.00141     0.40398
      H   24    0.09397      0.00000     0.40415    0.00188     0.40603
      H   25    0.11329      0.00000     0.38215    0.00456     0.38671
      H   26    0.09317      0.00000     0.40494    0.00189     0.40683
      H   27    0.09462      0.00000     0.40395    0.00143     0.40538
      H   28    0.11692      0.00000     0.37953    0.00355     0.38308
      H   29    0.11071      0.00000     0.38750    0.00179     0.38929
      H   30    0.10126      0.00000     0.39786    0.00088     0.39874
      H   31    0.10585      0.00000     0.39284    0.00130     0.39415
      H   32    0.10572      0.00000     0.39299    0.00129     0.39428
      H   33    0.10129      0.00000     0.39783    0.00088     0.39871
 =======================================================================
   * Total *   -0.00000     14.99441    40.80688    0.19870    56.00000

 Normal termination of Gaussian 16 at Thu Dec 10 17:19:17 2020.
