 Gaussian 16, Revision A.03,

 -----------------------------------------------------------
 # opt freq B3LYP/6-31G(d) empiricaldispersion=gd3bj scf=xqc
 -----------------------------------------------------------

 -------------------------------
 CID_104381886_JID_9297_neutraal
 -------------------------------
 Symbolic Z-matrix:
 Charge =  0 Multiplicity = 1

 SCF Done:  E(RB3LYP) =  -964.681615351     A.U. after   16 cycles
 SCF Done:  E(RB3LYP) =  -964.648693090     A.U. after   16 cycles
 SCF Done:  E(RB3LYP) =  -964.686548904     A.U. after   15 cycles
 SCF Done:  E(RB3LYP) =  -964.689096179     A.U. after   15 cycles
 SCF Done:  E(RB3LYP) =  -964.690366865     A.U. after   14 cycles
 SCF Done:  E(RB3LYP) =  -964.692131156     A.U. after   15 cycles
 SCF Done:  E(RB3LYP) =  -964.692149339     A.U. after   15 cycles
 SCF Done:  E(RB3LYP) =  -964.692621722     A.U. after   15 cycles
 SCF Done:  E(RB3LYP) =  -964.693412430     A.U. after   14 cycles
 SCF Done:  E(RB3LYP) =  -964.693624500     A.U. after   13 cycles
 SCF Done:  E(RB3LYP) =  -964.712752846     A.U. after   13 cycles
 SCF Done:  E(RB3LYP) =  -964.712756636     A.U. after   10 cycles
 SCF Done:  E(RB3LYP) =  -964.712758108     A.U. after   11 cycles
 SCF Done:  E(RB3LYP) =  -964.712758121     A.U. after    8 cycles
 SCF Done:  E(RB3LYP) =  -964.712757523     A.U. after    9 cycles
 SCF Done:  E(RB3LYP) =  -964.712757410     A.U. after    8 cycles
 Optimization completed.
    -- Stationary point found.
 Normal termination of Gaussian 16 at Sat Dec 12 10:59:06 2020.

 --------------------------------------------------------------------
 #N Geom=AllCheck Guess=TCheck SCRF=Check GenChk RB3LYP/6-31G(d) Freq
 --------------------------------------------------------------------

 Structure from the checkpoint file:  "JID_9297.chk"
 -------------------------------
 CID_104381886_JID_9297_neutraal
 -------------------------------
 Charge =  0 Multiplicity = 1

 SCF Done:  E(RB3LYP) =  -964.712757410     A.U. after    1 cycles

  Exact polarizability: 167.342  40.689 142.203  11.950  -7.604 147.287
 Approx polarizability: 266.335  83.790 210.973  25.907 -11.557 272.856

                      1                      2                      3
                      A                      A                      A
 Frequencies --     13.3696                30.7458                50.8942
 Red. masses --      5.6378                 4.1880                 5.5691
 Frc consts  --      0.0006                 0.0023                 0.0085
 IR Inten    --      1.6352                 1.0199                 0.6029

                      4                      5                      6
                      A                      A                      A
 Frequencies --     57.2347                65.4374                77.0178
 Red. masses --      4.2671                 6.7798                 3.1147
 Frc consts  --      0.0082                 0.0171                 0.0109
 IR Inten    --      0.3854                 0.7683                 0.5250

                      7                      8                      9
                      A                      A                      A
 Frequencies --     86.2902                94.1409               116.4184
 Red. masses --      5.8333                 6.8629                 2.6514
 Frc consts  --      0.0256                 0.0358                 0.0212
 IR Inten    --      1.4207                 0.6141                 3.4719

                     10                     11                     12
                      A                      A                      A
 Frequencies --    166.8310               199.5456               229.5789
 Red. masses --      6.3950                 6.8502                 5.9076
 Frc consts  --      0.1049                 0.1607                 0.1835
 IR Inten    --      1.5637                 2.1976                 0.8913

                     13                     14                     15
                      A                      A                      A
 Frequencies --    232.3612               261.9994               279.9473
 Red. masses --      1.3539                 4.0125                 5.6837
 Frc consts  --      0.0431                 0.1623                 0.2624
 IR Inten    --      2.9462                12.2122                 6.9630

                     16                     17                     18
                      A                      A                      A
 Frequencies --    306.1169               313.8438               350.0422
 Red. masses --      2.1489                 4.4487                 5.0572
 Frc consts  --      0.1186                 0.2582                 0.3651
 IR Inten    --      3.1333                 9.9563                 0.9501

                     19                     20                     21
                      A                      A                      A
 Frequencies --    355.4558               392.7228               414.4036
 Red. masses --      2.7185                 3.1713                 1.2863
 Frc consts  --      0.2024                 0.2882                 0.1301
 IR Inten    --      1.0494                 2.5701               131.2648

                     22                     23                     24
                      A                      A                      A
 Frequencies --    439.5784               460.1990               486.1323
 Red. masses --      2.9828                 3.0284                 4.9013
 Frc consts  --      0.3396                 0.3779                 0.6825
 IR Inten    --     38.0819                33.7253                 2.4070

                     25                     26                     27
                      A                      A                      A
 Frequencies --    513.6112               517.9797               543.8055
 Red. masses --      1.5290                 2.8189                 2.4969
 Frc consts  --      0.2377                 0.4456                 0.4350
 IR Inten    --    157.9169                18.4864                11.7807

                     28                     29                     30
                      A                      A                      A
 Frequencies --    564.1836               606.6940               621.3759
 Red. masses --      3.8251                 2.0585                 2.5340
 Frc consts  --      0.7173                 0.4464                 0.5765
 IR Inten    --      8.3304               104.5152                36.4460

                     31                     32                     33
                      A                      A                      A
 Frequencies --    645.1124               691.1652               700.9276
 Red. masses --      3.7725                 1.8432                 3.5002
 Frc consts  --      0.9250                 0.5188                 1.0132
 IR Inten    --     20.6778                91.0076                17.3162

                     34                     35                     36
                      A                      A                      A
 Frequencies --    720.9295               739.0390               766.8259
 Red. masses --      2.6889                 5.7121                 5.4549
 Frc consts  --      0.8234                 1.8382                 1.8899
 IR Inten    --     24.1213                 2.3478                13.5539

                     37                     38                     39
                      A                      A                      A
 Frequencies --    777.8780               807.1805               812.1720
 Red. masses --      5.9674                 1.9501                 2.1553
 Frc consts  --      2.1274                 0.7486                 0.8376
 IR Inten    --     35.4101                22.3516                 2.6804

                     40                     41                     42
                      A                      A                      A
 Frequencies --    849.3211               877.4932               958.4717
 Red. masses --      9.5594                 2.8527                 2.2635
 Frc consts  --      4.0628                 1.2942                 1.2251
 IR Inten    --     33.6716                 3.1377                 7.5528

                     43                     44                     45
                      A                      A                      A
 Frequencies --    967.7564               988.7369               998.4092
 Red. masses --      3.0658                 1.3695                 2.1072
 Frc consts  --      1.6917                 0.7888                 1.2376
 IR Inten    --      2.6112                 3.1790                 2.9860

                     46                     47                     48
                      A                      A                      A
 Frequencies --   1049.6669              1089.8525              1108.5411
 Red. masses --      2.8093                 1.8480                 2.8953
 Frc consts  --      1.8237                 1.2933                 2.0963
 IR Inten    --     25.8264                10.1144                 2.2161

                     49                     50                     51
                      A                      A                      A
 Frequencies --   1120.0584              1157.4517              1165.3628
 Red. masses --      1.9046                 2.4985                 1.4316
 Frc consts  --      1.4078                 1.9721                 1.1455
 IR Inten    --     40.3410                14.2026                34.2653

                     52                     53                     54
                      A                      A                      A
 Frequencies --   1175.1388              1196.9069              1205.2784
 Red. masses --      5.4807                 1.3069                 2.4155
 Frc consts  --      4.4593                 1.1031                 2.0674
 IR Inten    --    146.3443                 3.9756                14.1849

                     55                     56                     57
                      A                      A                      A
 Frequencies --   1228.6808              1267.3727              1280.1930
 Red. masses --      1.5543                 1.3729                 1.3809
 Frc consts  --      1.3825                 1.2993                 1.3334
 IR Inten    --     30.3556                 6.0670                44.6425

                     58                     59                     60
                      A                      A                      A
 Frequencies --   1296.1189              1302.8622              1347.2011
 Red. masses --      1.6619                 1.3206                 4.3613
 Frc consts  --      1.6449                 1.3207                 4.6637
 IR Inten    --      5.7874                15.5757               144.2731

                     61                     62                     63
                      A                      A                      A
 Frequencies --   1367.4609              1370.1444              1392.2857
 Red. masses --      1.4018                 2.7484                 2.4624
 Frc consts  --      1.5445                 3.0400                 2.8123
 IR Inten    --     37.4693               118.2569               273.4153

                     64                     65                     66
                      A                      A                      A
 Frequencies --   1414.3067              1421.3936              1439.5142
 Red. masses --      2.3875                 2.2350                 1.4252
 Frc consts  --      2.8138                 2.6604                 1.7400
 IR Inten    --     29.2750                33.7150                18.3488

                     67                     68                     69
                      A                      A                      A
 Frequencies --   1446.3030              1491.6343              1501.9018
 Red. masses --      2.1883                 1.4511                 1.2365
 Frc consts  --      2.6970                 1.9022                 1.6433
 IR Inten    --      4.9309                81.2782                18.5718

                     70                     71                     72
                      A                      A                      A
 Frequencies --   1511.7533              1514.4472              1515.8680
 Red. masses --      1.7175                 1.1967                 1.0836
 Frc consts  --      2.3126                 1.6171                 1.4671
 IR Inten    --     56.8683                65.9260                20.9437

                     73                     74                     75
                      A                      A                      A
 Frequencies --   1528.1593              1530.1585              1550.0254
 Red. masses --      1.8920                 1.0857                 1.0883
 Frc consts  --      2.6032                 1.4978                 1.5406
 IR Inten    --    150.9270                23.8634                 3.0805

                     76                     77                     78
                      A                      A                      A
 Frequencies --   1572.1312              1601.9271              1644.3560
 Red. masses --      2.1810                 5.8445                 3.3729
 Frc consts  --      3.1760                 8.8365                 5.3734
 IR Inten    --     57.3780                28.6845               148.3247

                     79                     80                     81
                      A                      A                      A
 Frequencies --   1657.7833              1680.0006              1789.6518
 Red. masses --      5.8943                 1.6792                 8.2016
 Frc consts  --      9.5442                 2.7924                15.4770
 IR Inten    --    358.3029               380.4592               331.3132

                     82                     83                     84
                      A                      A                      A
 Frequencies --   2991.5700              3001.8145              3034.1074
 Red. masses --      1.0488                 1.0526                 1.0754
 Frc consts  --      5.5302                 5.5884                 5.8328
 IR Inten    --     32.6987                64.9340                23.0496

                     85                     86                     87
                      A                      A                      A
 Frequencies --   3043.1998              3063.4604              3078.4666
 Red. masses --      1.1049                 1.0959                 1.0684
 Frc consts  --      6.0289                 6.0599                 5.9658
 IR Inten    --     69.6336                57.2231                27.4750

                     88                     89                     90
                      A                      A                      A
 Frequencies --   3143.3307              3167.3286              3183.2970
 Red. masses --      1.0974                 1.0960                 1.0883
 Frc consts  --      6.3882                 6.4783                 6.4973
 IR Inten    --     29.9115                 2.4829                 9.3826

                     91                     92                     93
                      A                      A                      A
 Frequencies --   3213.9983              3249.9797              3582.4792
 Red. masses --      1.0909                 1.0930                 1.0467
 Frc consts  --      6.6394                 6.8018                 7.9145
 IR Inten    --      6.1317                 2.0535                64.9078

                     94                     95                     96
                      A                      A                      A
 Frequencies --   3589.2485              3593.0995              3697.0872
 Red. masses --      1.0750                 1.0755                 1.1016
 Frc consts  --      8.1598                 8.1811                 8.8711
 IR Inten    --     35.9013                30.8454                28.6962

 - Thermochemistry -
 -------------------
 Temperature   298.150 Kelvin.  Pressure   1.00000 Atm.
 Atom     1 has atomic number  6 and mass  12.00000

 Molecular mass:   269.11240 amu.
 Principal axes and moments of inertia in atomic units:
                           1         2         3
     Eigenvalues --  4186.583895115.771446834.24830
           X            0.99965   0.01169  -0.02387
           Y           -0.01205   0.99982  -0.01487
           Z            0.02369   0.01515   0.99960
 This molecule is an asymmetric top.
 Rotational symmetry number  1.
 Warning -- assumption of classical behavior for rotation
           may cause significant error
 Rotational temperatures (Kelvin)      0.02069     0.01693     0.01267
 Rotational constants (GHZ):           0.43108     0.35278     0.26407
 Zero-point vibrational energy     716047.2 (Joules/Mol)
                                  171.13938 (Kcal/Mol)
 Warning -- explicit consideration of  29 degrees of freedom as
           vibrations may cause significant error
 Vibrational temperatures:     19.24    44.24    73.23    82.35    94.15
          (Kelvin)            110.81   124.15   135.45   167.50   240.03
                              287.10   330.31   334.32   376.96   402.78
                              440.43   451.55   503.63   511.42   565.04
                              596.23   632.46   662.12   699.44   738.97
                              745.26   782.41   811.73   872.90   894.02
                              928.17   994.43  1008.48  1037.26  1063.31
                             1103.29  1119.19  1161.35  1168.53  1221.98
                             1262.52  1379.03  1392.39  1422.57  1436.49
                             1510.24  1568.05  1594.94  1611.51  1665.31
                             1676.70  1690.76  1722.08  1734.13  1767.80
                             1823.47  1841.91  1864.83  1874.53  1938.32
                             1967.47  1971.33  2003.19  2034.87  2045.07
                             2071.14  2080.91  2146.13  2160.90  2175.08
                             2178.95  2181.00  2198.68  2201.56  2230.14
                             2261.95  2304.82  2365.86  2385.18  2417.15
                             2574.91  4304.20  4318.94  4365.40  4378.49
                             4407.64  4429.23  4522.55  4557.08  4580.05
                             4624.23  4676.00  5154.39  5164.13  5169.67
                             5319.28

 Zero-point correction=                           0.272728 (Hartree/Particle)
 Thermal correction to Energy=                    0.291474
 Thermal correction to Enthalpy=                  0.292418
 Thermal correction to Gibbs Free Energy=         0.223403
 Sum of electronic and zero-point Energies=           -964.440029
 Sum of electronic and thermal Energies=              -964.421284
 Sum of electronic and thermal Enthalpies=            -964.420339
 Sum of electronic and thermal Free Energies=         -964.489355

                     E (Thermal)             CV                S
                      KCal/Mol        Cal/Mol-Kelvin    Cal/Mol-Kelvin
 Total                  182.903             68.769            145.255
 Electronic               0.000              0.000              0.000
 Translational            0.889              2.981             42.669
 Rotational               0.889              2.981             33.348
 Vibrational            181.125             62.807             69.238
 Vibration     1          0.593              1.987              7.434
 Vibration     2          0.594              1.984              5.781
 Vibration     3          0.595              1.977              4.782
 Vibration     4          0.596              1.975              4.550
 Vibration     5          0.597              1.971              4.286
 Vibration     6          0.599              1.964              3.965
 Vibration     7          0.601              1.959              3.742
 Vibration     8          0.603              1.953              3.572
 Vibration     9          0.608              1.936              3.159
 Vibration    10          0.624              1.883              2.471
 Vibration    11          0.638              1.841              2.137
 Vibration    12          0.652              1.796              1.882
 Vibration    13          0.653              1.791              1.861
 Vibration    14          0.669              1.742              1.648
 Vibration    15          0.680              1.711              1.534
 Vibration    16          0.697              1.662              1.383
 Vibration    17          0.702              1.647              1.342
 Vibration    18          0.727              1.575              1.166
 Vibration    19          0.731              1.564              1.142
 Vibration    20          0.760              1.486              0.990
 Vibration    21          0.778              1.439              0.911
 Vibration    22          0.800              1.384              0.828
 Vibration    23          0.818              1.338              0.766
 Vibration    24          0.842              1.281              0.694
 Vibration    25          0.869              1.220              0.625
 Vibration    26          0.873              1.210              0.615
 Vibration    27          0.899              1.153              0.557
 Vibration    28          0.920              1.109              0.516
 Vibration    29          0.965              1.018              0.438

 Optimization completed.
    -- Stationary point found.
 Normal termination of Gaussian 16 at Sat Dec 12 11:15:46 2020.

 ----------------------------------------------------------------------
 # B3LYP/6-311++G(d,p) empiricaldispersion=gd3bj scf=xqc pop=npa geom=c
 heck
 ----------------------------------------------------------------------

 ---------------------------------------
 CID_104381886_JID_9297_Energie_neutraal
 ---------------------------------------
 Structure from the checkpoint file:  "JID_9297.chk"
 Charge =  0 Multiplicity = 1

 SCF Done:  E(RB3LYP) =  -965.004834076     A.U. after   16 cycles
 Normal termination of Gaussian 16 at Sat Dec 12 11:22:52 2020.

 ----------------------------------------------------------------------
 # B3LYP/6-311++G(d,p) empiricaldispersion=gd3bj scf=xqc pop=npa geom=c
 heck
 ----------------------------------------------------------------------

 -------------------------------------
 CID_104381886_JID_9297_Energie_kation
 -------------------------------------
 Structure from the checkpoint file:  "JID_9297.chk"
 Charge =  1 Multiplicity = 2

 SCF Done:  E(UB3LYP) =  -964.706324592     A.U. after   32 cycles
 Normal termination of Gaussian 16 at Sat Dec 12 11:42:22 2020.
 Gaussian 16:  ES64L-G16RevA.03 25-Dec-2016

 ----------------------------------------------------------------------
 # B3LYP/6-311++G(d,p) empiricaldispersion=gd3bj scf=xqc pop=npa geom=c
 heck
 ----------------------------------------------------------------------

 ------------------------------------
 CID_104381886_JID_9297_Energie_anion
 ------------------------------------
 Structure from the checkpoint file:  "JID_9297.chk"
 Charge = -1 Multiplicity = 2

                         Standard orientation:
 ---------------------------------------------------------------------
 Center     Atomic      Atomic             Coordinates (Angstroms)
 Number     Number       Type             X           Y           Z
 ---------------------------------------------------------------------
      1          6           0       -3.833693    0.978475    1.631332
      2          8           0       -3.022122    1.687161    0.718172
      3          6           0       -2.485697    0.855458   -0.295125
      4          6           0       -1.464269    1.683724   -1.060646
      5          7           0       -0.412439    2.123259   -0.162011
      6          6           0        0.946891    2.128043   -0.292850
      7          8           0        1.662797    2.663339    0.541916
      8          6           0        1.586873    1.447556   -1.519609
      9          7           0        1.142116    0.085114   -1.794300
     10          6           0        0.740002   -0.838030   -0.869166
     11          6           0        1.241913   -0.976627    0.449765
     12          6           0        0.563662   -1.827076    1.333972
     13          6           0       -0.500776   -2.583818    0.900140
     14          6           0       -0.844300   -2.492672   -0.470427
     15          7           0       -0.264145   -1.627038   -1.302517
     16          7           0       -1.861039   -3.252155   -0.995520
     17          7           0        2.493134   -0.410905    0.906075
     18          8           0        3.322063   -0.077161    0.052936
     19          8           0        2.691654   -0.358887    2.122603
     20          1           0       -4.180680    1.695477    2.379188
     21          1           0       -3.268998    0.177037    2.132653
     22          1           0       -4.706715    0.529138    1.132260
     23          1           0       -1.996114   -0.022723    0.148213
     24          1           0       -3.278733    0.500320   -0.973813
     25          1           0       -1.045630    1.081426   -1.864697
     26          1           0       -1.970058    2.549554   -1.510302
     27          1           0       -0.736392    2.569057    0.688885
     28          1           0        1.361678    2.036623   -2.415454
     29          1           0        2.660131    1.483541   -1.337171
     30          1           0        0.639771   -0.054309   -2.661436
     31          1           0        0.927164   -1.887496    2.352495
     32          1           0       -1.033232   -3.252757    1.567320
     33          1           0       -1.896197   -3.285602   -2.005575
     34          1           0       -2.098146   -4.113030   -0.523982
 ---------------------------------------------------------------------

 SCF Done:  E(UB3LYP) =  -965.026636021     A.U. after   31 cycles

 The electronic state is 2-A.
 Alpha  occ. eigenvalues --  -19.04385 -18.96566 -18.93490 -18.93437 -14.31493
 Alpha  occ. eigenvalues --  -14.22265 -14.21072 -14.20941 -14.17283 -10.15382
 Alpha  occ. eigenvalues --  -10.13244 -10.12407 -10.12054 -10.11315 -10.10702
 Alpha  occ. eigenvalues --  -10.09240 -10.05912 -10.04133 -10.04027  -1.01560
 Alpha  occ. eigenvalues --   -0.95731  -0.91871  -0.85931  -0.84311  -0.82156
 Alpha  occ. eigenvalues --   -0.80984  -0.75790  -0.67951  -0.66951  -0.63575
 Alpha  occ. eigenvalues --   -0.60115  -0.59311  -0.53669  -0.52761  -0.50669
 Alpha  occ. eigenvalues --   -0.47986  -0.46170  -0.43109  -0.41390  -0.41257
 Alpha  occ. eigenvalues --   -0.40187  -0.38739  -0.38472  -0.36866  -0.36139
 Alpha  occ. eigenvalues --   -0.36003  -0.34462  -0.33622  -0.32958  -0.32349
 Alpha  occ. eigenvalues --   -0.31548  -0.30586  -0.29991  -0.28892  -0.28239
 Alpha  occ. eigenvalues --   -0.27903  -0.27869  -0.26182  -0.25822  -0.24175
 Alpha  occ. eigenvalues --   -0.21923  -0.18109  -0.17448  -0.15709  -0.14444
 Alpha  occ. eigenvalues --   -0.14180  -0.12620  -0.12194  -0.11304  -0.09462
 Alpha  occ. eigenvalues --   -0.08255   0.03937
 Alpha virt. eigenvalues --    0.06212   0.07247   0.07416   0.08924   0.09446
 Alpha virt. eigenvalues --    0.09753   0.10576   0.10806   0.11665   0.12041
 Alpha virt. eigenvalues --    0.12654   0.12994   0.13517   0.13982   0.14203

  Beta  occ. eigenvalues --  -19.04384 -18.96541 -18.93099 -18.92928 -14.30854
  Beta  occ. eigenvalues --  -14.22264 -14.21009 -14.20902 -14.17328 -10.15367
  Beta  occ. eigenvalues --  -10.13241 -10.12404 -10.11970 -10.11314 -10.10366
  Beta  occ. eigenvalues --  -10.09232 -10.05926 -10.04232 -10.03760  -1.00536
  Beta  occ. eigenvalues --   -0.95729  -0.91833  -0.85745  -0.83482  -0.81983
  Beta  occ. eigenvalues --   -0.80931  -0.75694  -0.67622  -0.66934  -0.63321
  Beta  occ. eigenvalues --   -0.59986  -0.59255  -0.53126  -0.52616  -0.50391
  Beta  occ. eigenvalues --   -0.47857  -0.45805  -0.43007  -0.41303  -0.41158
  Beta  occ. eigenvalues --   -0.40141  -0.38699  -0.38429  -0.36805  -0.36040
  Beta  occ. eigenvalues --   -0.35413  -0.33711  -0.33102  -0.32354  -0.31506
  Beta  occ. eigenvalues --   -0.31281  -0.30182  -0.29821  -0.28668  -0.27805
  Beta  occ. eigenvalues --   -0.27656  -0.27556  -0.25993  -0.25690  -0.24139
  Beta  occ. eigenvalues --   -0.21358  -0.18091  -0.16652  -0.15682  -0.14337
  Beta  occ. eigenvalues --   -0.14077  -0.12083  -0.10927  -0.09368  -0.08997
  Beta  occ. eigenvalues --   -0.07599
  Beta virt. eigenvalues --    0.06135   0.07161   0.07333   0.08860   0.09377
  Beta virt. eigenvalues --    0.09653   0.10425   0.10828   0.11168   0.11621
  Beta virt. eigenvalues --    0.12257   0.12722   0.13067   0.13656   0.13996

 Mulliken charges and spin densities:
               1          2
     1  C   -0.220973  -0.052823
     2  O   -0.148300   0.004953
     3  C   -0.439044  -0.049241
     4  C   -0.134553  -0.005518
     5  N   -0.086647  -0.007283
     6  C   -0.025590   0.031630
     7  O   -0.256947   0.007620
     8  C   -0.440700  -0.011855
     9  N    0.000255   0.011341
    10  C    0.243160   0.086588
    11  C   -0.226428  -0.078746
    12  C   -0.475143   0.267933
    13  C   -0.170085  -0.089846
    14  C   -0.353598   0.187709
    15  N   -0.129686  -0.020523
    16  N   -0.280478   0.033600
    17  N   -0.240163   0.202039
    18  O   -0.174674   0.185975
    19  O   -0.146378   0.159843
    20  H    0.098206   0.028288
    21  H    0.113148   0.035190
    22  H    0.089116   0.025154
    23  H    0.304386  -0.086359
    24  H    0.048691   0.083160
    25  H    0.100550   0.014390
    26  H    0.154457   0.034788
    27  H    0.301407  -0.000239
    28  H    0.130765   0.002524
    29  H    0.290784   0.006264
    30  H    0.267305   0.003235
    31  H    0.218341  -0.016161
    32  H    0.125231   0.006175
    33  H    0.235322  -0.000775
    34  H    0.228263   0.000971
 Sum of Mulliken charges =  -1.00000   1.00000

 Dipole moment (field-independent basis, Debye):
    X=            -11.2086    Y=             -1.2145    Z=             -4.9446  Tot=             12.3108
 Quadrupole moment (field-independent basis, Debye-Ang):
   XX=           -159.7592   YY=           -128.2570   ZZ=           -123.3551
   XY=              0.4630   XZ=            -15.1647   YZ=             -6.1354

 Summary of Natural Population Analysis:

                                       Natural Population
                Natural  -----------------------------------------------
    Atom  No    Charge         Core      Valence    Rydberg      Total
 -----------------------------------------------------------------------
      C    1   -0.09700      0.99963     2.08896    0.00841     3.09700
      O    2   -0.30443      0.99988     3.29511    0.00944     4.30443
      C    3   -0.01553      0.99959     2.00429    0.01165     3.01553
      C    4   -0.09672      0.99961     2.08697    0.01013     3.09672
      N    5   -0.32392      0.99966     2.81332    0.01094     3.82392
      C    6    0.33543      0.99968     1.64175    0.02314     2.66457
      O    7   -0.30489      0.99988     3.29851    0.00650     4.30489
      C    8   -0.12927      0.99957     2.12031    0.00939     3.12927
      N    9   -0.30134      0.99966     2.79008    0.01160     3.80134
      C   10    0.22211      0.99951     1.76082    0.01757     2.77789
      C   11   -0.01979      0.99937     2.00663    0.01379     3.01979
      C   12   -0.01389      0.99955     2.00289    0.01145     3.01389
      C   13   -0.19532      0.99952     2.18820    0.00760     3.19532
      C   14    0.24809      0.99957     1.73591    0.01643     2.75191
      N   15   -0.31290      0.99964     2.80188    0.01138     3.81290
      N   16   -0.39147      0.99971     2.88357    0.00820     3.89147
      N   17    0.30733      0.99970     2.16603    0.02693     3.19267
      O   18   -0.19381      0.99990     3.18587    0.00804     4.19381
      O   19   -0.20648      0.99990     3.19910    0.00749     4.20648
      H   20    0.08713      0.00000     0.41192    0.00095     0.41287
      H   21    0.08464      0.00000     0.41391    0.00146     0.41536
      H   22    0.07449      0.00000     0.42388    0.00162     0.42551
      H   23    0.09628      0.00000     0.40066    0.00306     0.40372
      H   24    0.07778      0.00000     0.42047    0.00174     0.42222
      H   25    0.10755      0.00000     0.39041    0.00204     0.39245
      H   26    0.08685      0.00000     0.41169    0.00146     0.41315
      H   27    0.19589      0.00000     0.30089    0.00322     0.30411
      H   28    0.09325      0.00000     0.40563    0.00112     0.40675
      H   29    0.12731      0.00000     0.37151    0.00118     0.37269
      H   30    0.18442      0.00000     0.31328    0.00229     0.31558
      H   31    0.11338      0.00000     0.38562    0.00100     0.38662
      H   32    0.09464      0.00000     0.40444    0.00092     0.40536
      H   33    0.18754      0.00000     0.31115    0.00131     0.31246
      H   34    0.18265      0.00000     0.31627    0.00108     0.31735
 =======================================================================
   * Total *   -0.00000     18.99352    51.75193    0.25455    71.00000

 Normal termination of Gaussian 16 at Sat Dec 12 12:01:22 2020.
