 Gaussian 16, Revision A.03,

 -----------------------------------------------------------
 # opt freq B3LYP/6-31G(d) empiricaldispersion=gd3bj scf=xqc
 -----------------------------------------------------------

 ------------------------------
 CID_77060767_JID_4514_neutraal
 ------------------------------
 Symbolic Z-matrix:
 Charge =  0 Multiplicity = 1

 SCF Done:  E(RB3LYP) =  -952.555103439     A.U. after   15 cycles
 SCF Done:  E(RB3LYP) =  -952.561450588     A.U. after   12 cycles
 SCF Done:  E(RB3LYP) =  -952.562432950     A.U. after   12 cycles
 SCF Done:  E(RB3LYP) =  -952.562951212     A.U. after   12 cycles
 SCF Done:  E(RB3LYP) =  -952.564165285     A.U. after   14 cycles
 SCF Done:  E(RB3LYP) =  -952.564509334     A.U. after   15 cycles
 SCF Done:  E(RB3LYP) =  -952.562646427     A.U. after   15 cycles
 SCF Done:  E(RB3LYP) =  -952.562526935     A.U. after   14 cycles
 SCF Done:  E(RB3LYP) =  -952.561067227     A.U. after   13 cycles
 SCF Done:  E(RB3LYP) =  -952.564732291     A.U. after   11 cycles
 SCF Done:  E(RB3LYP) =  -952.569712853     A.U. after   10 cycles
 SCF Done:  E(RB3LYP) =  -952.569713626     A.U. after    8 cycles
 SCF Done:  E(RB3LYP) =  -952.569714203     A.U. after    7 cycles
 SCF Done:  E(RB3LYP) =  -952.569714557     A.U. after    8 cycles
 SCF Done:  E(RB3LYP) =  -952.569714590     A.U. after    7 cycles
 Optimization completed.
    -- Stationary point found.
 Normal termination of Gaussian 16 at Thu Dec 10 10:08:52 2020.

 --------------------------------------------------------------------
 #N Geom=AllCheck Guess=TCheck SCRF=Check GenChk RB3LYP/6-31G(d) Freq
 --------------------------------------------------------------------

 Structure from the checkpoint file:  "JID_4514.chk"
 ------------------------------
 CID_77060767_JID_4514_neutraal
 ------------------------------
 Charge =  0 Multiplicity = 1

 SCF Done:  E(RB3LYP) =  -952.569714590     A.U. after    1 cycles

  Exact polarizability: 206.010  -7.757 137.112   7.457  -0.212  95.739
 Approx polarizability: 276.029 -14.578 231.590   9.433   1.317 153.764

                      1                      2                      3
                      A                      A                      A
 Frequencies --     19.3930                36.6551                54.6576
 Red. masses --      4.9243                 4.1752                 4.1003
 Frc consts  --      0.0011                 0.0033                 0.0072
 IR Inten    --      0.1835                 0.1902                 0.0254

                      4                      5                      6
                      A                      A                      A
 Frequencies --     98.3806               137.9894               150.0275
 Red. masses --      5.1649                 1.1081                 3.0582
 Frc consts  --      0.0295                 0.0124                 0.0406
 IR Inten    --      0.9388                 0.0187                 1.1113

                      7                      8                      9
                      A                      A                      A
 Frequencies --    174.8152               181.5257               204.9596
 Red. masses --      1.2348                 4.3943                 2.7467
 Frc consts  --      0.0222                 0.0853                 0.0680
 IR Inten    --      0.5416                 0.3754                 0.4225

                     10                     11                     12
                      A                      A                      A
 Frequencies --    254.3315               278.5452               289.9223
 Red. masses --      2.0526                 2.6079                 2.4561
 Frc consts  --      0.0782                 0.1192                 0.1216
 IR Inten    --     16.1066                 5.9333                 8.3659

                     13                     14                     15
                      A                      A                      A
 Frequencies --    306.5240               324.5116               353.0059
 Red. masses --      2.5235                 1.9158                 2.7423
 Frc consts  --      0.1397                 0.1189                 0.2013
 IR Inten    --      0.6625                 6.1965                20.8647

                     16                     17                     18
                      A                      A                      A
 Frequencies --    395.4790               424.4750               445.0556
 Red. masses --      1.5531                 1.9970                 2.7792
 Frc consts  --      0.1431                 0.2120                 0.3243
 IR Inten    --    107.8824                48.0792                14.0515

                     19                     20                     21
                      A                      A                      A
 Frequencies --    453.9923               488.1242               532.0761
 Red. masses --      2.9537                 4.4608                 5.8024
 Frc consts  --      0.3587                 0.6262                 0.9678
 IR Inten    --      0.8029                 3.8195                22.1929

                     22                     23                     24
                      A                      A                      A
 Frequencies --    553.9449               569.7246               591.5288
 Red. masses --      4.0711                 5.0370                 4.5618
 Frc consts  --      0.7360                 0.9633                 0.9404
 IR Inten    --      1.8858                 1.3990                 2.2863

                     25                     26                     27
                      A                      A                      A
 Frequencies --    649.5528               687.2652               736.1236
 Red. masses --      4.4554                 4.6675                 3.1122
 Frc consts  --      1.1076                 1.2989                 0.9936
 IR Inten    --     25.6583                 7.3403                 6.9672

                     28                     29                     30
                      A                      A                      A
 Frequencies --    753.1181               766.4378               806.4492
 Red. masses --      4.8170                 3.9430                 1.5443
 Frc consts  --      1.6097                 1.3647                 0.5917
 IR Inten    --      6.9826                 1.8643               243.6059

                     31                     32                     33
                      A                      A                      A
 Frequencies --    839.8037               880.8879               889.4806
 Red. masses --      1.3521                 2.0013                 1.5620
 Frc consts  --      0.5618                 0.9150                 0.7281
 IR Inten    --     12.6798               193.1120                36.4053

                     34                     35                     36
                      A                      A                      A
 Frequencies --    909.3182               953.4484               964.7683
 Red. masses --      1.6055                 1.3288                 3.0620
 Frc consts  --      0.7821                 0.7117                 1.6792
 IR Inten    --      3.1902                 0.4463                 1.2119

                     37                     38                     39
                      A                      A                      A
 Frequencies --   1029.8420              1034.6778              1060.8431
 Red. masses --      1.5671                 1.5087                 1.4329
 Frc consts  --      0.9792                 0.9516                 0.9501
 IR Inten    --      5.0548                 6.1681                 6.0748

                     40                     41                     42
                      A                      A                      A
 Frequencies --   1069.9518              1085.7837              1158.4057
 Red. masses --      1.7145                 1.5979                 2.1752
 Frc consts  --      1.1564                 1.1099                 1.7197
 IR Inten    --     87.7017                 0.0015                 3.2633

                     43                     44                     45
                      A                      A                      A
 Frequencies --   1187.3140              1201.8427              1215.8580
 Red. masses --      1.5540                 1.1983                 2.1651
 Frc consts  --      1.2907                 1.0198                 1.8858
 IR Inten    --      3.3311                 0.5112                 9.9291

                     46                     47                     48
                      A                      A                      A
 Frequencies --   1243.6448              1274.7599              1283.8683
 Red. masses --      1.8433                 1.6741                 2.9326
 Frc consts  --      1.6797                 1.6028                 2.8481
 IR Inten    --      2.1027                32.6364                28.7561

                     49                     50                     51
                      A                      A                      A
 Frequencies --   1303.0169              1334.6933              1360.8479
 Red. masses --      1.5383                 1.4372                 4.8173
 Frc consts  --      1.5388                 1.5085                 5.2563
 IR Inten    --     25.6718                 0.5742                 1.6513

                     52                     53                     54
                      A                      A                      A
 Frequencies --   1374.1325              1439.8334              1451.4805
 Red. masses --      1.4662                 1.2568                 1.2314
 Frc consts  --      1.6312                 1.5351                 1.5285
 IR Inten    --     11.7337                 0.1013                 0.3466

                     55                     56                     57
                      A                      A                      A
 Frequencies --   1461.9640              1486.5993              1506.6186
 Red. masses --      2.4504                 1.1306                 1.0452
 Frc consts  --      3.0857                 1.4721                 1.3979
 IR Inten    --      1.8472                 9.3250                 0.0055

                     58                     59                     60
                      A                      A                      A
 Frequencies --   1521.3666              1522.5821              1524.7671
 Red. masses --      1.2066                 1.0443                 1.1431
 Frc consts  --      1.6455                 1.4264                 1.5658
 IR Inten    --     16.4808                14.8987                 1.8388

                     61                     62                     63
                      A                      A                      A
 Frequencies --   1553.6655              1632.9333              1655.8321
 Red. masses --      2.3155                 5.7660                 1.1976
 Frc consts  --      3.2931                 9.0586                 1.9347
 IR Inten    --     18.3165                 2.4056                57.4815

                     64                     65                     66
                      A                      A                      A
 Frequencies --   1676.6121              1683.1785              1735.0284
 Red. masses --      5.8078                 1.2416                 3.5064
 Frc consts  --      9.6190                 2.0725                 6.2190
 IR Inten    --      3.7622                 9.7523               121.2225

                     67                     68                     69
                      A                      A                      A
 Frequencies --   3038.5827              3040.0377              3079.2512
 Red. masses --      1.0388                 1.0383                 1.0651
 Frc consts  --      5.6510                 5.6535                 5.9502
 IR Inten    --     16.4563                49.3436                11.6114

                     70                     71                     72
                      A                      A                      A
 Frequencies --   3085.6721              3087.7224              3128.2373
 Red. masses --      1.1001                 1.1001                 1.1000
 Frc consts  --      6.1716                 6.1796                 6.3422
 IR Inten    --     34.9185                 4.8610                25.4846

                     73                     74                     75
                      A                      A                      A
 Frequencies --   3131.3384              3154.3226              3177.3975
 Red. masses --      1.0998                 1.1004                 1.0891
 Frc consts  --      6.3536                 6.4507                 6.4784
 IR Inten    --      9.9526                 1.9132                26.5375

                     76                     77                     78
                      A                      A                      A
 Frequencies --   3178.8795              3199.9329              3379.3457
 Red. masses --      1.0884                 1.0936                 1.0555
 Frc consts  --      6.4800                 6.5978                 7.1019
 IR Inten    --      3.2235                13.4805                10.9782

                     79                     80                     81
                      A                      A                      A
 Frequencies --   3494.8357              3556.9324              3598.7199
 Red. masses --      1.0475                 1.0872                 1.0969
 Frc consts  --      7.5383                 8.1038                 8.3697
 IR Inten    --      7.4503                 1.4810                17.3078

 - Thermochemistry -
 -------------------
 Temperature   298.150 Kelvin.  Pressure   1.00000 Atm.
 Atom     1 has atomic number  6 and mass  12.00000

 Molecular mass:   209.09867 amu.
 Principal axes and moments of inertia in atomic units:
                           1         2         3
     Eigenvalues --  1334.556786304.510556748.35806
           X            0.99992   0.00453   0.01156
           Y           -0.00472   0.99985   0.01693
           Z           -0.01148  -0.01699   0.99979
 This molecule is an asymmetric top.
 Rotational symmetry number  1.
 Warning -- assumption of classical behavior for rotation
           may cause significant error
 Rotational temperatures (Kelvin)      0.06490     0.01374     0.01283
 Rotational constants (GHZ):           1.35232     0.28626     0.26743
 Zero-point vibrational energy     637367.1 (Joules/Mol)
                                  152.33438 (Kcal/Mol)
 Warning -- explicit consideration of  24 degrees of freedom as
           vibrations may cause significant error
 Vibrational temperatures:     27.90    52.74    78.64   141.55   198.54
          (Kelvin)            215.86   251.52   261.18   294.89   365.93
                              400.76   417.13   441.02   466.90   507.90
                              569.01   610.72   640.34   653.19   702.30
                              765.54   797.00   819.71   851.08   934.56
                              988.82  1059.12  1083.57  1102.73  1160.30
                             1208.29  1267.40  1279.76  1308.31  1371.80
                             1388.09  1481.71  1488.67  1526.32  1539.42
                             1562.20  1666.69  1708.28  1729.18  1749.35
                             1789.33  1834.10  1847.20  1874.75  1920.33
                             1957.96  1977.07  2071.60  2088.36  2103.44
                             2138.88  2167.69  2188.91  2190.66  2193.80
                             2235.38  2349.43  2382.37  2412.27  2421.72
                             2496.32  4371.84  4373.94  4430.36  4439.59
                             4442.54  4500.84  4505.30  4538.37  4571.57
                             4573.70  4603.99  4862.12  5028.29  5117.63
                             5177.76

 Zero-point correction=                           0.242760 (Hartree/Particle)
 Thermal correction to Energy=                    0.257867
 Thermal correction to Enthalpy=                  0.258811
 Thermal correction to Gibbs Free Energy=         0.199431
 Sum of electronic and zero-point Energies=           -952.326954
 Sum of electronic and thermal Energies=              -952.311847
 Sum of electronic and thermal Enthalpies=            -952.310903
 Sum of electronic and thermal Free Energies=         -952.370283

                     E (Thermal)             CV                S
                      KCal/Mol        Cal/Mol-Kelvin    Cal/Mol-Kelvin
 Total                  161.814             56.550            124.976
 Electronic               0.000              0.000              0.000
 Translational            0.889              2.981             41.917
 Rotational               0.889              2.981             32.407
 Vibrational            160.037             50.588             50.653
 Vibration     1          0.593              1.986              6.695
 Vibration     2          0.594              1.982              5.432
 Vibration     3          0.596              1.976              4.641
 Vibration     4          0.604              1.950              3.486
 Vibration     5          0.614              1.915              2.832
 Vibration     6          0.618              1.903              2.672
 Vibration     7          0.627              1.873              2.383
 Vibration     8          0.630              1.865              2.313
 Vibration     9          0.640              1.833              2.088
 Vibration    10          0.665              1.755              1.700
 Vibration    11          0.679              1.713              1.543
 Vibration    12          0.686              1.692              1.474
 Vibration    13          0.697              1.661              1.381
 Vibration    14          0.709              1.626              1.287
 Vibration    15          0.729              1.569              1.153
 Vibration    16          0.762              1.480              0.979
 Vibration    17          0.786              1.417              0.877
 Vibration    18          0.804              1.372              0.811
 Vibration    19          0.812              1.352              0.784
 Vibration    20          0.844              1.276              0.688
 Vibration    21          0.887              1.179              0.583
 Vibration    22          0.909              1.131              0.536
 Vibration    23          0.926              1.097              0.505
 Vibration    24          0.949              1.050              0.464

                           ! Non-Optimized Parameters !
 Normal termination of Gaussian 16 at Thu Dec 10 10:16:51 2020.

 ----------------------------------------------------------------------
 # B3LYP/6-311++G(d,p) empiricaldispersion=gd3bj scf=xqc pop=npa geom=c
 heck
 ----------------------------------------------------------------------

 --------------------------------------
 CID_77060767_JID_4514_Energie_neutraal
 --------------------------------------
 Structure from the checkpoint file:  "JID_4514.chk"
 Charge =  0 Multiplicity = 1

 SCF Done:  E(RB3LYP) =  -952.759047534     A.U. after   15 cycles
 Normal termination of Gaussian 16 at Thu Dec 10 10:20:02 2020.

 ----------------------------------------------------------------------
 # B3LYP/6-311++G(d,p) empiricaldispersion=gd3bj scf=xqc pop=npa geom=c
 heck
 ----------------------------------------------------------------------

 ------------------------------------
 CID_77060767_JID_4514_Energie_kation
 ------------------------------------
 Structure from the checkpoint file:  "JID_4514.chk"
 Charge =  1 Multiplicity = 2

 SCF Done:  E(UB3LYP) =  -952.482535134     A.U. after   27 cycles
 Normal termination of Gaussian 16 at Thu Dec 10 10:28:33 2020.
 Gaussian 16:  ES64L-G16RevA.03 25-Dec-2016

 ----------------------------------------------------------------------
 # B3LYP/6-311++G(d,p) empiricaldispersion=gd3bj scf=xqc pop=npa geom=c
 heck
 ----------------------------------------------------------------------

 -----------------------------------
 CID_77060767_JID_4514_Energie_anion
 -----------------------------------
 Structure from the checkpoint file:  "JID_4514.chk"
 Charge = -1 Multiplicity = 2

                         Standard orientation:
 ---------------------------------------------------------------------
 Center     Atomic      Atomic             Coordinates (Angstroms)
 Number     Number       Type             X           Y           Z
 ---------------------------------------------------------------------
      1          6           0        4.453599   -0.749931    0.813554
      2          6           0        3.099617   -0.488524    0.203657
      3          6           0        2.559633    0.816114    0.178166
      4          6           0        1.303400    1.021453   -0.391301
      5          6           0        0.557415   -0.027686   -0.941992
      6          6           0        1.098206   -1.314450   -0.911386
      7          6           0        2.354410   -1.534146   -0.344100
      8          6           0       -0.790460    0.225763   -1.568186
      9         16           0       -2.060145    0.954255   -0.434878
     10          6           0       -2.677961   -0.495003    0.438462
     11          7           0       -3.843226   -0.550970    0.957935
     12          7           0       -4.692235    0.556018    0.814897
     13          7           0       -1.841611   -1.616973    0.461449
     14          6           0        3.327568    1.976005    0.761237
     15          1           0        5.241994   -0.177449    0.308313
     16          1           0        4.484059   -0.459250    1.871475
     17          1           0        4.716832   -1.809737    0.749901
     18          1           0        0.884922    2.025377   -0.395936
     19          1           0        0.532606   -2.145407   -1.323592
     20          1           0        2.763848   -2.541318   -0.326595
     21          1           0       -0.714115    0.972508   -2.365407
     22          1           0       -1.205361   -0.687838   -1.996245
     23          1           0       -4.618615    0.966117   -0.122169
     24          1           0       -5.639714    0.209807    0.936739
     25          1           0       -0.894957   -1.412970    0.770743
     26          1           0       -2.265869   -2.345885    1.029481
     27          1           0        2.766598    2.909654    0.663077
     28          1           0        3.540999    1.823360    1.826825
     29          1           0        4.296015    2.110860    0.262796
 ---------------------------------------------------------------------

 SCF Done:  E(UB3LYP) =  -952.745832051     A.U. after   33 cycles
 SCF Done:  E(UB3LYP) =  -952.745832051     a.u. after    1 cycles

 The electronic state is 2-A.
 Alpha  occ. eigenvalues --  -88.76342 -14.24262 -14.23188 -14.23094 -10.16469
 Alpha  occ. eigenvalues --  -10.11601 -10.08569 -10.08448 -10.08202 -10.07556
 Alpha  occ. eigenvalues --  -10.07377 -10.07255 -10.06905 -10.06722  -7.84970
 Alpha  occ. eigenvalues --   -5.81353  -5.80946  -5.80385  -0.90085  -0.82448
 Alpha  occ. eigenvalues --   -0.77012  -0.71637  -0.69735  -0.67276  -0.66211
 Alpha  occ. eigenvalues --   -0.60710  -0.59090  -0.55114  -0.50449  -0.48112
 Alpha  occ. eigenvalues --   -0.46809  -0.43917  -0.42752  -0.39486  -0.38833
 Alpha  occ. eigenvalues --   -0.37467  -0.35302  -0.34110  -0.33960  -0.33216
 Alpha  occ. eigenvalues --   -0.32087  -0.31062  -0.30543  -0.30170  -0.29050
 Alpha  occ. eigenvalues --   -0.28789  -0.26009  -0.24762  -0.24343  -0.23617
 Alpha  occ. eigenvalues --   -0.22497  -0.18171  -0.16822  -0.15201  -0.14091
 Alpha  occ. eigenvalues --   -0.11728   0.04280
 Alpha virt. eigenvalues --    0.05945   0.06690   0.07012   0.07207   0.08077
 Alpha virt. eigenvalues --    0.08429   0.09009   0.09180   0.09932   0.10334
 Alpha virt. eigenvalues --    0.10526   0.10921   0.11507   0.11784   0.12486

  Beta  occ. eigenvalues --  -88.76334 -14.24243 -14.23182 -14.23076 -10.16465
  Beta  occ. eigenvalues --  -10.11586 -10.08542 -10.08454 -10.08170 -10.07548
  Beta  occ. eigenvalues --  -10.07361 -10.07229 -10.06869 -10.06683  -7.84959
  Beta  occ. eigenvalues --   -5.81346  -5.80937  -5.80377  -0.90068  -0.82422
  Beta  occ. eigenvalues --   -0.76966  -0.71585  -0.69694  -0.67241  -0.66157
  Beta  occ. eigenvalues --   -0.60647  -0.59029  -0.55053  -0.50392  -0.48070
  Beta  occ. eigenvalues --   -0.46749  -0.43889  -0.42726  -0.39435  -0.38801
  Beta  occ. eigenvalues --   -0.37437  -0.35236  -0.34058  -0.33910  -0.33160
  Beta  occ. eigenvalues --   -0.32040  -0.31022  -0.30515  -0.30121  -0.29007
  Beta  occ. eigenvalues --   -0.28743  -0.25954  -0.24703  -0.24297  -0.23582
  Beta  occ. eigenvalues --   -0.22473  -0.18147  -0.16786  -0.15121  -0.13951
  Beta  occ. eigenvalues --   -0.11706
  Beta virt. eigenvalues --    0.06206   0.06616   0.07148   0.07527   0.07776
  Beta virt. eigenvalues --    0.08275   0.08712   0.09451   0.09566   0.10281
  Beta virt. eigenvalues --    0.10607   0.10835   0.11255   0.11883   0.11922

 Mulliken charges and spin densities:
               1          2
     1  C    2.356775  -2.985840
     2  C   -1.567556   2.267092
     3  C   -2.038822   2.102672
     4  C   -0.635448   0.088219
     5  C    1.228307  -0.062503
     6  C   -0.673982   0.147525
     7  C    0.735467  -1.359246
     8  C    1.105579  -1.897536
     9  S    0.738554  -0.325884
    10  C   -0.818104   0.041026
    11  N   -0.103641   0.042409
    12  N   -0.206059  -0.149963
    13  N   -0.306238   0.002194
    14  C    1.075810  -1.571201
    15  H   -0.219784   0.377841
    16  H   -0.145304   0.298029
    17  H   -0.483178   0.631328
    18  H   -0.119418   0.187903
    19  H   -0.199459   0.359498
    20  H   -0.417107   0.572074
    21  H   -0.325892   0.591465
    22  H    0.107104   0.119401
    23  H   -0.006575   0.212053
    24  H    0.131301   0.112023
    25  H    0.321632  -0.069454
    26  H    0.103104   0.164976
    27  H   -0.381674   0.539265
    28  H   -0.097112   0.251890
    29  H   -0.158279   0.312746
 Sum of Mulliken charges =  -1.00000   1.00000

 Dipole moment (field-independent basis, Debye):
    X=             -4.9999    Y=             -0.8048    Z=             -0.4150  Tot=              5.0812
 Quadrupole moment (field-independent basis, Debye-Ang):
   XX=           -187.0042   YY=           -132.8192   ZZ=           -125.6583
   XY=              3.4681   XZ=             -0.0763   YZ=             -0.5932

 Summary of Natural Population Analysis:

                                       Natural Population
                Natural  -----------------------------------------------
    Atom  No    Charge         Core      Valence    Rydberg      Total
 -----------------------------------------------------------------------
      C    1   -0.29513      0.99964     2.28968    0.00582     3.29513
      C    2   -0.00806      0.99948     1.99789    0.01070     3.00806
      C    3   -0.01339      0.99948     2.00270    0.01122     3.01339
      C    4   -0.10431      0.99949     2.09008    0.01474     3.10431
      C    5    0.00868      0.99949     1.98472    0.00711     2.99132
      C    6   -0.11925      0.99954     2.10477    0.01494     3.11925
      C    7   -0.09720      0.99951     2.08746    0.01023     3.09720
      C    8   -0.26211      0.99955     2.24584    0.01672     3.26211
      S    9    0.09482      4.99956     2.88721    0.01842     7.90518
      C   10    0.12875      0.99961     1.85326    0.01838     2.87125
      N   11   -0.19388      0.99957     2.67736    0.01696     3.69388
      N   12   -0.31944      0.99976     2.80800    0.01168     3.81944
      N   13   -0.41238      0.99971     2.90165    0.01102     3.91238
      C   14   -0.29225      0.99964     2.28769    0.00492     3.29225
      H   15    0.10734      0.00000     0.39071    0.00195     0.39266
      H   16    0.10402      0.00000     0.39482    0.00116     0.39598
      H   17    0.10321      0.00000     0.39535    0.00144     0.39679
      H   18    0.10090      0.00000     0.39788    0.00122     0.39910
      H   19    0.10246      0.00000     0.39592    0.00162     0.39754
      H   20    0.09970      0.00000     0.39918    0.00112     0.40030
      H   21    0.11445      0.00000     0.38380    0.00175     0.38555
      H   22    0.11423      0.00000     0.38392    0.00184     0.38577
      H   23    0.17091      0.00000     0.32632    0.00277     0.32909
      H   24    0.17364      0.00000     0.32387    0.00249     0.32636
      H   25    0.19238      0.00000     0.30533    0.00230     0.30762
      H   26    0.18885      0.00000     0.30826    0.00289     0.31115
      H   27    0.10251      0.00000     0.39635    0.00114     0.39749
      H   28    0.10469      0.00000     0.39390    0.00141     0.39531
      H   29    0.10600      0.00000     0.39249    0.00152     0.39400
 =======================================================================
   * Total *    0.00012     17.99402    37.80638    0.19947    55.99988

 Normal termination of Gaussian 16 at Thu Dec 10 10:39:48 2020.
