 Gaussian 16, Revision A.03,

 -----------------------------------------------------------
 # opt freq B3LYP/6-31G(d) empiricaldispersion=gd3bj scf=xqc
 -----------------------------------------------------------

 ------------------------------
 CID_142004122_JID_723_neutraal
 ------------------------------
 Symbolic Z-matrix:
 Charge =  0 Multiplicity = 1

 SCF Done:  E(RB3LYP) =  -442.649674631     A.U. after   14 cycles
 SCF Done:  E(RB3LYP) =  -442.654169143     A.U. after   12 cycles
 SCF Done:  E(RB3LYP) =  -442.654577747     A.U. after   12 cycles
 SCF Done:  E(RB3LYP) =  -442.654760935     A.U. after   12 cycles
 SCF Done:  E(RB3LYP) =  -442.654927193     A.U. after   11 cycles
 SCF Done:  E(RB3LYP) =  -442.655064190     A.U. after   12 cycles
 SCF Done:  E(RB3LYP) =  -442.655086162     A.U. after   11 cycles
 SCF Done:  E(RB3LYP) =  -442.655089924     A.U. after   10 cycles
 SCF Done:  E(RB3LYP) =  -442.655105251     A.U. after   10 cycles
 SCF Done:  E(RB3LYP) =  -442.655235645     A.U. after   12 cycles
 SCF Done:  E(RB3LYP) =  -442.657054156     A.U. after    7 cycles
 SCF Done:  E(RB3LYP) =  -442.657054244     A.U. after    7 cycles
 SCF Done:  E(RB3LYP) =  -442.657054296     A.U. after    6 cycles
 SCF Done:  E(RB3LYP) =  -442.657054343     A.U. after    7 cycles
 SCF Done:  E(RB3LYP) =  -442.657054375     A.U. after    6 cycles
 SCF Done:  E(RB3LYP) =  -442.657054394     A.U. after    6 cycles
 Optimization completed.
    -- Stationary point found.
 Normal termination of Gaussian 16 at Tue Dec  8 12:43:22 2020.

 --------------------------------------------------------------------
 #N Geom=AllCheck Guess=TCheck SCRF=Check GenChk RB3LYP/6-31G(d) Freq
 --------------------------------------------------------------------

 Structure from the checkpoint file:  "JID_723.chk"
 ------------------------------
 CID_142004122_JID_723_neutraal
 ------------------------------
 Charge =  0 Multiplicity = 1

 SCF Done:  E(RB3LYP) =  -442.657054394     A.U. after    1 cycles

  Exact polarizability: 106.234   0.535  94.114   1.646  -6.442  70.585
 Approx polarizability: 129.043   7.124 146.490   1.605 -16.920 107.660

                      1                      2                      3
                      A                      A                      A
 Frequencies --     41.4483                55.4168                80.9247
 Red. masses --      3.8028                 3.1778                 1.0489
 Frc consts  --      0.0038                 0.0057                 0.0040
 IR Inten    --      0.2276                 0.9813                 0.3007

                      4                      5                      6
                      A                      A                      A
 Frequencies --    105.0988               157.9209               179.0032
 Red. masses --      3.7249                 3.2063                 2.3674
 Frc consts  --      0.0242                 0.0471                 0.0447
 IR Inten    --      3.4319                 6.2407                 1.8668

                      7                      8                      9
                      A                      A                      A
 Frequencies --    190.9971               228.7211               299.3142
 Red. masses --      1.1168                 3.2772                 2.6611
 Frc consts  --      0.0240                 0.1010                 0.1405
 IR Inten    --      0.1344                 4.4006                 1.7583

                     10                     11                     12
                      A                      A                      A
 Frequencies --    339.6512               425.5420               478.8729
 Red. masses --      2.9739                 2.7267                 2.8273
 Frc consts  --      0.2021                 0.2909                 0.3820
 IR Inten    --      1.7573                 7.3110                 0.2815

                     13                     14                     15
                      A                      A                      A
 Frequencies --    528.7997               571.9753               592.4019
 Red. masses --      2.8544                 2.7687                 2.8181
 Frc consts  --      0.4703                 0.5337                 0.5827
 IR Inten    --      3.8549                 6.8982                 7.9413

                     16                     17                     18
                      A                      A                      A
 Frequencies --    634.6613               715.0225               756.7427
 Red. masses --      3.0553                 1.7500                 1.4028
 Frc consts  --      0.7251                 0.5271                 0.4733
 IR Inten    --      4.3905                 0.5044                 0.6842

                     19                     20                     21
                      A                      A                      A
 Frequencies --    903.0351               911.2585               930.0459
 Red. masses --      2.2136                 1.7535                 1.3462
 Frc consts  --      1.0635                 0.8579                 0.6861
 IR Inten    --      1.8763                 1.5810                38.2400

                     22                     23                     24
                      A                      A                      A
 Frequencies --    944.7647               980.7618               994.3383
 Red. masses --      2.2320                 2.0938                 2.1220
 Frc consts  --      1.1738                 1.1866                 1.2361
 IR Inten    --      0.2733                18.0442                 1.9065

                     25                     26                     27
                      A                      A                      A
 Frequencies --   1036.8620              1059.3369              1063.0659
 Red. masses --      1.8961                 1.5349                 1.7391
 Frc consts  --      1.2010                 1.0149                 1.1579
 IR Inten    --      1.3509                 1.4347                 5.4122

                     28                     29                     30
                      A                      A                      A
 Frequencies --   1079.0485              1118.5337              1128.4728
 Red. masses --      1.6256                 1.9140                 2.7519
 Frc consts  --      1.1152                 1.4109                 2.0647
 IR Inten    --      1.1428                 2.4874                 4.1186

                     31                     32                     33
                      A                      A                      A
 Frequencies --   1155.2411              1191.2111              1215.2921
 Red. masses --      1.0800                 1.3237                 3.7269
 Frc consts  --      0.8492                 1.1067                 3.2431
 IR Inten    --      1.2826                 4.7384                25.2765

                     34                     35                     36
                      A                      A                      A
 Frequencies --   1265.2982              1281.2488              1305.0832
 Red. masses --      1.5283                 1.4786                 1.4327
 Frc consts  --      1.4416                 1.4301                 1.4377
 IR Inten    --      8.7599                 7.6219                 0.3710

                     37                     38                     39
                      A                      A                      A
 Frequencies --   1338.0802              1395.0587              1410.7871
 Red. masses --      1.5168                 1.9598                 1.4531
 Frc consts  --      1.6001                 2.2472                 1.7040
 IR Inten    --      1.9004                74.4145                 3.9610

                     40                     41                     42
                      A                      A                      A
 Frequencies --   1441.5345              1454.8697              1474.0627
 Red. masses --      1.2618                 4.0183                 1.2023
 Frc consts  --      1.5448                 5.0112                 1.5392
 IR Inten    --     20.2594               296.8213                 2.5621

                     43                     44                     45
                      A                      A                      A
 Frequencies --   1501.6219              1510.6934              1511.9853
 Red. masses --      1.0965                 1.0460                 1.0670
 Frc consts  --      1.4568                 1.4065                 1.4372
 IR Inten    --      6.4167                10.4482                17.6036

                     46                     47                     48
                      A                      A                      A
 Frequencies --   1524.4513              1532.5482              1551.9417
 Red. masses --      1.0584                 1.0797                 1.1079
 Frc consts  --      1.4492                 1.4940                 1.5721
 IR Inten    --      8.5435                 0.4340                11.7066

                     49                     50                     51
                      A                      A                      A
 Frequencies --   1742.2521              1780.2700              3031.5698
 Red. masses --      5.0957                10.2209                 1.0434
 Frc consts  --      9.1134                19.0858                 5.6496
 IR Inten    --     12.1592               316.9129                 5.6870

                     52                     53                     54
                      A                      A                      A
 Frequencies --   3034.4032              3054.0171              3054.2637
 Red. masses --      1.0549                 1.0413                 1.0843
 Frc consts  --      5.7226                 5.7221                 5.9594
 IR Inten    --     61.5701                 6.8246                10.9576

                     55                     56                     57
                      A                      A                      A
 Frequencies --   3074.2994              3077.4134              3089.2871
 Red. masses --      1.0568                 1.0994                 1.1061
 Frc consts  --      5.8848                 6.1347                 6.2196
 IR Inten    --     25.3234                25.6819                42.8064

                     58                     59                     60
                      A                      A                      A
 Frequencies --   3115.3520              3119.4295              3133.0893
 Red. masses --      1.0985                 1.1101                 1.0992
 Frc consts  --      6.2812                 6.3642                 6.3575
 IR Inten    --     13.0366                34.9059                23.3982

                     61                     62                     63
                      A                      A                      A
 Frequencies --   3171.3162              3174.6068              3248.3598
 Red. masses --      1.0609                 1.1009                 1.1148
 Frc consts  --      6.2863                 6.5368                 6.9307
 IR Inten    --      8.4683                 8.9479                16.1859

 - Thermochemistry -
 -------------------
 Temperature   298.150 Kelvin.  Pressure   1.00000 Atm.
 Atom     1 has atomic number  6 and mass  12.00000

 Molecular mass:   139.09971 amu.
 Principal axes and moments of inertia in atomic units:
                           1         2         3
     Eigenvalues --   624.018522532.888642846.14397
           X            0.99990  -0.01382  -0.00031
           Y            0.01383   0.99986   0.00990
           Z            0.00017  -0.00990   0.99995
 This molecule is an asymmetric top.
 Rotational symmetry number  1.
 Warning -- assumption of classical behavior for rotation
           may cause significant error
 Rotational temperatures (Kelvin)      0.13880     0.03420     0.03043
 Rotational constants (GHZ):           2.89213     0.71252     0.63410
 Zero-point vibrational energy     523324.2 (Joules/Mol)
                                  125.07749 (Kcal/Mol)
 Warning -- explicit consideration of  15 degrees of freedom as
           vibrations may cause significant error
 Vibrational temperatures:     59.63    79.73   116.43   151.21   227.21
          (Kelvin)            257.55   274.80   329.08   430.65   488.68
                              612.26   688.99   760.82   822.94   852.33
                              913.14  1028.76  1088.78  1299.27  1311.10
                             1338.13  1359.31  1411.10  1430.63  1491.81
                             1524.15  1529.51  1552.51  1609.32  1623.62
                             1662.13  1713.89  1748.53  1820.48  1843.43
                             1877.72  1925.20  2007.18  2029.81  2074.05
                             2093.23  2120.85  2160.50  2173.55  2175.41
                             2193.35  2205.00  2232.90  2506.71  2561.41
                             4361.75  4365.83  4394.05  4394.40  4423.23
                             4427.71  4444.80  4482.30  4488.16  4507.82
                             4562.82  4567.55  4673.67

 Zero-point correction=                           0.199324 (Hartree/Particle)
 Thermal correction to Energy=                    0.210449
 Thermal correction to Enthalpy=                  0.211394
 Thermal correction to Gibbs Free Energy=         0.161576
 Sum of electronic and zero-point Energies=           -442.457731
 Sum of electronic and thermal Energies=              -442.446605
 Sum of electronic and thermal Enthalpies=            -442.445661
 Sum of electronic and thermal Free Energies=         -442.495479

                     E (Thermal)             CV                S
                      KCal/Mol        Cal/Mol-Kelvin    Cal/Mol-Kelvin
 Total                  132.059             39.672            104.850
 Electronic               0.000              0.000              0.000
 Translational            0.889              2.981             40.702
 Rotational               0.889              2.981             29.888
 Vibrational            130.281             33.710             34.261
 Vibration     1          0.594              1.981              5.189
 Vibration     2          0.596              1.975              4.614
 Vibration     3          0.600              1.962              3.868
 Vibration     4          0.605              1.945              3.357
 Vibration     5          0.621              1.894              2.575
 Vibration     6          0.629              1.868              2.339
 Vibration     7          0.634              1.852              2.218
 Vibration     8          0.651              1.797              1.889
 Vibration     9          0.692              1.675              1.421
 Vibration    10          0.720              1.596              1.214
 Vibration    11          0.787              1.415              0.873
 Vibration    12          0.835              1.297              0.713
 Vibration    13          0.884              1.186              0.590
 Vibration    14          0.928              1.092              0.500
 Vibration    15          0.950              1.048              0.463

 Optimization completed.
    -- Stationary point found.
 Normal termination of Gaussian 16 at Tue Dec  8 13:04:03 2020.

 ----------------------------------------------------------------------
 # B3LYP/6-311++G(d,p) empiricaldispersion=gd3bj scf=xqc pop=npa geom=c
 heck
 ----------------------------------------------------------------------

 --------------------------------------
 CID_142004122_JID_723_Energie_neutraal
 --------------------------------------
 Structure from the checkpoint file:  "JID_723.chk"
 Charge =  0 Multiplicity = 1

 SCF Done:  E(RB3LYP) =  -442.784626402     A.U. after   14 cycles
 Normal termination of Gaussian 16 at Tue Dec  8 13:07:26 2020.

 ----------------------------------------------------------------------
 # B3LYP/6-311++G(d,p) empiricaldispersion=gd3bj scf=xqc pop=npa geom=c
 heck
 ----------------------------------------------------------------------

 ------------------------------------
 CID_142004122_JID_723_Energie_kation
 ------------------------------------
 Structure from the checkpoint file:  "JID_723.chk"
 Charge =  1 Multiplicity = 2

 SCF Done:  E(UB3LYP) =  -442.464256837     A.U. after   27 cycles
 Normal termination of Gaussian 16 at Tue Dec  8 13:17:20 2020.
 Gaussian 16:  ES64L-G16RevA.03 25-Dec-2016

 ----------------------------------------------------------------------
 # B3LYP/6-311++G(d,p) empiricaldispersion=gd3bj scf=xqc pop=npa geom=c
 heck
 ----------------------------------------------------------------------

 -----------------------------------
 CID_142004122_JID_723_Energie_anion
 -----------------------------------
 Structure from the checkpoint file:  "JID_723.chk"
 Charge = -1 Multiplicity = 2

                         Standard orientation:
 ---------------------------------------------------------------------
 Center     Atomic      Atomic             Coordinates (Angstroms)
 Number     Number       Type             X           Y           Z
 ---------------------------------------------------------------------
      1          6           0        3.162937    1.072866    0.125142
      2          6           0        2.273294   -0.145365    0.125720
      3          6           0        2.571030   -1.240571    0.829270
      4          6           0        1.047632   -0.018071   -0.735349
      5          6           0       -0.087737   -1.078225   -0.673649
      6          7           0       -1.041153    0.012123   -0.452594
      7          6           0       -0.011882    1.045709   -0.292950
      8          6           0       -2.283419   -0.115781    0.100495
      9          8           0       -2.830245   -1.207753    0.194941
     10          6           0       -2.915451    1.184282    0.569164
     11          1           0        4.037622    0.935299    0.766898
     12          1           0        2.620041    1.961175    0.475693
     13          1           0        3.514703    1.301922   -0.889978
     14          1           0        1.941528   -2.124499    0.827445
     15          1           0        3.472701   -1.291979    1.433534
     16          1           0        1.352649    0.170590   -1.771951
     17          1           0       -0.265311   -1.652776   -1.587396
     18          1           0       -0.046070   -1.767741    0.175789
     19          1           0        0.113386    1.383738    0.744474
     20          1           0       -0.133114    1.918453   -0.944222
     21          1           0       -2.461014    1.505999    1.514773
     22          1           0       -2.774982    1.991298   -0.157764
     23          1           0       -3.980535    1.016622    0.734271
 ---------------------------------------------------------------------

 SCF Done:  E(UB3LYP) =  -442.773225203     A.U. after   30 cycles

 The electronic state is 2-A.
 Alpha  occ. eigenvalues --  -18.98486 -14.23219 -10.16730 -10.10553 -10.10379
 Alpha  occ. eigenvalues --  -10.08644 -10.08464 -10.07220 -10.06016 -10.05770
 Alpha  occ. eigenvalues --   -0.93555  -0.85338  -0.71633  -0.66572  -0.61906
 Alpha  occ. eigenvalues --   -0.59665  -0.57869  -0.52140  -0.44433  -0.42603
 Alpha  occ. eigenvalues --   -0.39829  -0.38415  -0.36312  -0.34744  -0.33277
 Alpha  occ. eigenvalues --   -0.32908  -0.31429  -0.30405  -0.30068  -0.28476
 Alpha  occ. eigenvalues --   -0.27021  -0.26681  -0.24937  -0.24150  -0.23029
 Alpha  occ. eigenvalues --   -0.16062  -0.15047  -0.14268   0.04503
 Alpha virt. eigenvalues --    0.07111   0.07727   0.08435   0.09420   0.09883
 Alpha virt. eigenvalues --    0.10314   0.10709   0.11112   0.11510   0.12384
 Alpha virt. eigenvalues --    0.12721   0.13839   0.13876   0.14996   0.15690

  Beta  occ. eigenvalues --  -18.98481 -14.23219 -10.16729 -10.10502 -10.10369
  Beta  occ. eigenvalues --  -10.08625 -10.08460 -10.07186 -10.05963 -10.05737
  Beta  occ. eigenvalues --   -0.93547  -0.85323  -0.71596  -0.66540  -0.61853
  Beta  occ. eigenvalues --   -0.59596  -0.57787  -0.52080  -0.44355  -0.42534
  Beta  occ. eigenvalues --   -0.39775  -0.38373  -0.36283  -0.34711  -0.33240
  Beta  occ. eigenvalues --   -0.32861  -0.31385  -0.30360  -0.30033  -0.28446
  Beta  occ. eigenvalues --   -0.26974  -0.26638  -0.24896  -0.24115  -0.22988
  Beta  occ. eigenvalues --   -0.16012  -0.14978  -0.14251
  Beta virt. eigenvalues --    0.07068   0.07899   0.08464   0.08944   0.09832
  Beta virt. eigenvalues --    0.10655   0.10708   0.11085   0.11610   0.11883
  Beta virt. eigenvalues --    0.12831   0.13001   0.14312   0.14354   0.15170

 Mulliken charges and spin densities:
               1          2
     1  C    2.434599  -3.118602
     2  C   -0.820233   1.431500
     3  C   -0.479867  -0.120320
     4  C   -1.548316   1.788346
     5  C    0.709127  -1.142519
     6  N   -0.163730   0.216132
     7  C    1.645097  -2.265002
     8  C   -0.213459   0.409364
     9  O   -0.380981   0.004253
    10  C    0.414742  -0.910120
    11  H   -0.322802   0.467321
    12  H   -0.284890   0.439406
    13  H   -0.526738   0.693768
    14  H    0.117761  -0.016272
    15  H   -0.330051   0.446564
    16  H   -0.384429   0.606336
    17  H    0.005785   0.165097
    18  H    0.140011   0.015354
    19  H   -0.083433   0.255020
    20  H   -0.460745   0.669415
    21  H   -0.215269   0.378965
    22  H   -0.201076   0.366480
    23  H   -0.051105   0.219513
 Sum of Mulliken charges =  -1.00000   1.00000

 Dipole moment (field-independent basis, Debye):
    X=             -2.2042    Y=             -3.7128    Z=              1.3679  Tot=              4.5293
 Quadrupole moment (field-independent basis, Debye-Ang):
   XX=           -127.5021   YY=           -103.6824   ZZ=            -92.8836
   XY=             -9.1537   XZ=              3.2450   YZ=              3.4359

 Summary of Natural Population Analysis:

                                       Natural Population
                Natural  -----------------------------------------------
    Atom  No    Charge         Core      Valence    Rydberg      Total
 -----------------------------------------------------------------------
      C    1   -0.29906      0.99962     2.29296    0.00648     3.29906
      C    2    0.00188      0.99952     1.98617    0.01243     2.99812
      C    3   -0.19716      0.99948     2.19054    0.00714     3.19716
      C    4   -0.12770      0.99953     2.11582    0.01234     3.12770
      C    5   -0.07066      0.99964     2.05971    0.01131     3.07066
      N    6   -0.26051      0.99964     2.74920    0.01167     3.76051
      C    7   -0.06931      0.99963     2.05946    0.01022     3.06931
      C    8    0.34644      0.99965     1.63181    0.02209     2.65356
      O    9   -0.32598      0.99988     3.32042    0.00569     4.32598
      C   10   -0.33170      0.99963     2.32714    0.00493     3.33170
      H   11    0.10253      0.00000     0.39614    0.00134     0.39747
      H   12    0.10552      0.00000     0.39267    0.00182     0.39448
      H   13    0.10795      0.00000     0.38923    0.00282     0.39205
      H   14    0.09198      0.00000     0.40693    0.00109     0.40802
      H   15    0.09376      0.00000     0.40530    0.00094     0.40624
      H   16    0.11090      0.00000     0.38653    0.00257     0.38910
      H   17    0.09693      0.00000     0.40202    0.00105     0.40307
      H   18    0.09665      0.00000     0.40219    0.00116     0.40335
      H   19    0.09454      0.00000     0.40343    0.00203     0.40546
      H   20    0.10235      0.00000     0.39329    0.00436     0.39765
      H   21    0.11090      0.00000     0.38788    0.00122     0.38910
      H   22    0.11054      0.00000     0.38803    0.00143     0.38946
      H   23    0.10923      0.00000     0.38998    0.00079     0.39077
 =======================================================================
   * Total *   -0.00000      9.99623    27.87684    0.12694    38.00000

 Normal termination of Gaussian 16 at Tue Dec  8 13:29:13 2020.
