 Gaussian 16, Revision A.03,

 -----------------------------------------------------------
 # opt freq B3LYP/6-31G(d) empiricaldispersion=gd3bj scf=xqc
 -----------------------------------------------------------

 -------------------------------
 CID_131102225_JID_3859_neutraal
 -------------------------------
 Symbolic Z-matrix:
 Charge =  0 Multiplicity = 1

 SCF Done:  E(RB3LYP) =  -598.941825741     A.U. after   12 cycles
 SCF Done:  E(RB3LYP) =  -598.945943486     A.U. after   11 cycles
 SCF Done:  E(RB3LYP) =  -598.945328456     A.U. after   11 cycles
 SCF Done:  E(RB3LYP) =  -598.946622646     A.U. after   10 cycles
 SCF Done:  E(RB3LYP) =  -598.946804947     A.U. after   10 cycles
 SCF Done:  E(RB3LYP) =  -598.947048670     A.U. after   10 cycles
 SCF Done:  E(RB3LYP) =  -598.947082732     A.U. after    9 cycles
 SCF Done:  E(RB3LYP) =  -598.947087183     A.U. after    8 cycles
 SCF Done:  E(RB3LYP) =  -598.947088578     A.U. after    8 cycles
 SCF Done:  E(RB3LYP) =  -598.947089305     A.U. after    7 cycles
 SCF Done:  E(RB3LYP) =  -598.947089606     A.U. after    7 cycles
 SCF Done:  E(RB3LYP) =  -598.947089675     A.U. after    7 cycles
 Optimization completed.
    -- Stationary point found.
 Normal termination of Gaussian 16 at Sun Dec 13 12:22:55 2020.

 --------------------------------------------------------------------
 #N Geom=AllCheck Guess=TCheck SCRF=Check GenChk RB3LYP/6-31G(d) Freq
 --------------------------------------------------------------------

 Structure from the checkpoint file:  "JID_3859.chk"
 -------------------------------
 CID_131102225_JID_3859_neutraal
 -------------------------------
 Charge =  0 Multiplicity = 1

 SCF Done:  E(RB3LYP) =  -598.947089675     A.U. after    1 cycles

  Exact polarizability: 134.317  -2.600 110.958  -0.530  -2.701 105.615
 Approx polarizability: 164.237   0.935 155.137   0.589  -4.039 164.385

                      1                      2                      3
                      A                      A                      A
 Frequencies --     51.7611                81.7882                97.8027
 Red. masses --      4.3977                 3.3409                 3.1377
 Frc consts  --      0.0069                 0.0132                 0.0177
 IR Inten    --      0.6684                 1.2973                 0.5931

                      4                      5                      6
                      A                      A                      A
 Frequencies --    116.9979               178.9131               183.4235
 Red. masses --      2.7392                 2.9509                 3.1419
 Frc consts  --      0.0221                 0.0557                 0.0623
 IR Inten    --      0.1603                 1.1139                 5.3910

                      7                      8                      9
                      A                      A                      A
 Frequencies --    216.6103               227.9452               251.6864
 Red. masses --      1.1403                 1.2426                 2.1562
 Frc consts  --      0.0315                 0.0380                 0.0805
 IR Inten    --      6.9146                 3.0253                14.3273

                     10                     11                     12
                      A                      A                      A
 Frequencies --    258.1566               284.0546               286.4468
 Red. masses --      2.7231                 1.4229                 2.1384
 Frc consts  --      0.1069                 0.0676                 0.1034
 IR Inten    --      0.1346                60.2153                10.8640

                     13                     14                     15
                      A                      A                      A
 Frequencies --    314.4862               320.7132               333.9614
 Red. masses --      1.2657                 2.4027                 1.7406
 Frc consts  --      0.0738                 0.1456                 0.1144
 IR Inten    --    151.8069                 3.2381                32.1740

                     16                     17                     18
                      A                      A                      A
 Frequencies --    383.8019               407.5081               422.4793
 Red. masses --      3.0738                 3.4384                 3.9027
 Frc consts  --      0.2668                 0.3364                 0.4104
 IR Inten    --     22.5081                 3.9195                 5.0213

                     19                     20                     21
                      A                      A                      A
 Frequencies --    445.1632               480.1778               507.7056
 Red. masses --      2.7676                 1.8404                 2.7935
 Frc consts  --      0.3231                 0.2500                 0.4243
 IR Inten    --     20.2683                 0.7850                 2.8499

                     22                     23                     24
                      A                      A                      A
 Frequencies --    535.5072               581.0501               636.0404
 Red. masses --      2.1798                 1.7742                 3.7783
 Frc consts  --      0.3683                 0.3529                 0.9006
 IR Inten    --      3.9463                36.8716                22.0915

                     25                     26                     27
                      A                      A                      A
 Frequencies --    672.8292               788.8494               797.7616
 Red. masses --      2.2917                 2.1803                 1.8758
 Frc consts  --      0.6113                 0.7994                 0.7034
 IR Inten    --     56.3720                12.3073                 0.9451

                     28                     29                     30
                      A                      A                      A
 Frequencies --    859.4180               895.4004               907.6055
 Red. masses --      2.1300                 1.8925                 1.5646
 Frc consts  --      0.9269                 0.8940                 0.7593
 IR Inten    --      5.7302                 2.5906                 2.2639

                     31                     32                     33
                      A                      A                      A
 Frequencies --    915.9985               936.6331               955.3170
 Red. masses --      1.7347                 1.8440                 1.7272
 Frc consts  --      0.8575                 0.9531                 0.9287
 IR Inten    --      2.6284                11.5809                 0.6777

                     34                     35                     36
                      A                      A                      A
 Frequencies --    976.2385              1008.9273              1023.6568
 Red. masses --      2.2656                 1.7710                 1.9258
 Frc consts  --      1.2722                 1.0622                 1.1890
 IR Inten    --      1.8552                10.3796                26.2584

                     37                     38                     39
                      A                      A                      A
 Frequencies --   1045.8495              1073.0608              1090.3502
 Red. masses --      1.8081                 2.9332                 1.6794
 Frc consts  --      1.1652                 1.9899                 1.1763
 IR Inten    --      0.8538               120.7165                 2.4016

                     40                     41                     42
                      A                      A                      A
 Frequencies --   1096.9340              1100.9948              1110.8219
 Red. masses --      1.4865                 1.8097                 1.9019
 Frc consts  --      1.0538                 1.2925                 1.3827
 IR Inten    --      8.8970                31.9168                 4.8202

                     43                     44                     45
                      A                      A                      A
 Frequencies --   1133.8114              1154.7825              1162.0093
 Red. masses --      1.8579                 2.2427                 2.3031
 Frc consts  --      1.4072                 1.7621                 1.8322
 IR Inten    --     19.5881                 5.5543                20.5289

                     46                     47                     48
                      A                      A                      A
 Frequencies --   1192.4971              1204.4948              1230.6317
 Red. masses --      2.5022                 2.0079                 1.6824
 Frc consts  --      2.0964                 1.7163                 1.5012
 IR Inten    --      2.7413                44.1300                33.0312

                     49                     50                     51
                      A                      A                      A
 Frequencies --   1257.8589              1294.0626              1299.6871
 Red. masses --      1.4158                 1.2445                 1.3139
 Frc consts  --      1.3198                 1.2279                 1.3076
 IR Inten    --      3.0683                42.7466                 6.0340

                     52                     53                     54
                      A                      A                      A
 Frequencies --   1306.5770              1332.6212              1333.5353
 Red. masses --      1.3208                 1.2951                 1.3340
 Frc consts  --      1.3285                 1.3551                 1.3977
 IR Inten    --     27.3906                 6.0452                 5.6504

                     55                     56                     57
                      A                      A                      A
 Frequencies --   1344.8141              1369.4932              1380.2378
 Red. masses --      1.3984                 1.3554                 1.3810
 Frc consts  --      1.4901                 1.4977                 1.5501
 IR Inten    --      1.7886                 1.3298                 6.9920

                     58                     59                     60
                      A                      A                      A
 Frequencies --   1392.7808              1400.2750              1401.1611
 Red. masses --      1.3368                 1.3991                 1.4102
 Frc consts  --      1.5278                 1.6163                 1.6312
 IR Inten    --      1.7492                 8.6069                 5.7106

                     61                     62                     63
                      A                      A                      A
 Frequencies --   1414.4321              1420.3360              1429.4358
 Red. masses --      1.3523                 1.2262                 1.3190
 Frc consts  --      1.5940                 1.4575                 1.5879
 IR Inten    --      7.3093                 4.6697                24.6000

                     64                     65                     66
                      A                      A                      A
 Frequencies --   1436.1050              1446.4499              1471.1128
 Red. masses --      1.2501                 1.2597                 1.5289
 Frc consts  --      1.5191                 1.5528                 1.9494
 IR Inten    --     16.4214                65.9882                20.2525

                     67                     68                     69
                      A                      A                      A
 Frequencies --   1511.7933              1515.3130              1516.7931
 Red. masses --      1.0916                 1.0810                 1.0654
 Frc consts  --      1.4699                 1.4624                 1.4442
 IR Inten    --      2.0732                 4.6447                 2.6919

                     70                     71                     72
                      A                      A                      A
 Frequencies --   1522.1044              1524.5964              1529.5188
 Red. masses --      1.0878                 1.0878                 1.0525
 Frc consts  --      1.4848                 1.4898                 1.4507
 IR Inten    --      5.0953                 0.5762                 4.3973

                     73                     74                     75
                      A                      A                      A
 Frequencies --   1536.1790              1541.8820              1547.5441
 Red. masses --      1.0567                 1.1099                 1.2093
 Frc consts  --      1.4693                 1.5547                 1.7063
 IR Inten    --      1.1275                 6.0790                12.9660

                     76                     77                     78
                      A                      A                      A
 Frequencies --   2973.5859              2975.4144              3006.3788
 Red. masses --      1.0829                 1.0835                 1.0702
 Frc consts  --      5.6417                 5.6516                 5.6991
 IR Inten    --     68.1252                50.1946                17.5820

                     79                     80                     81
                      A                      A                      A
 Frequencies --   3024.8117              3029.4340              3035.1192
 Red. masses --      1.0668                 1.0712                 1.0695
 Frc consts  --      5.7506                 5.7923                 5.8045
 IR Inten    --     24.6932                17.1622                58.2603

                     82                     83                     84
                      A                      A                      A
 Frequencies --   3041.0339              3050.3018              3058.4018
 Red. masses --      1.0750                 1.0393                 1.0816
 Frc consts  --      5.8571                 5.6973                 5.9610
 IR Inten    --     28.8349                27.9716                43.5206

                     85                     86                     87
                      A                      A                      A
 Frequencies --   3069.0761              3079.5577              3089.2660
 Red. masses --      1.0356                 1.0965                 1.0942
 Frc consts  --      5.7472                 6.1269                 6.1525
 IR Inten    --     15.3737                43.9387                50.5583

                     88                     89                     90
                      A                      A                      A
 Frequencies --   3098.0931              3111.1861              3118.9037
 Red. masses --      1.0993                 1.1001                 1.0947
 Frc consts  --      6.2167                 6.2736                 6.2743
 IR Inten    --     37.7839                44.2711                14.3757

                     91                     92                     93
                      A                      A                      A
 Frequencies --   3138.3069              3144.5243              3146.0183
 Red. masses --      1.1019                 1.1016                 1.1016
 Frc consts  --      6.3943                 6.4177                 6.4237
 IR Inten    --     24.7880                 4.7144                38.4282

                     94                     95                     96
                      A                      A                      A
 Frequencies --   3520.0858              3721.2986              3742.5395
 Red. masses --      1.0734                 1.0657                 1.0661
 Frc consts  --      7.8362                 8.6949                 8.7975
 IR Inten    --      1.0254                 4.8406                 6.1160

 - Thermochemistry -
 -------------------
 Temperature   298.150 Kelvin.  Pressure   1.00000 Atm.
 Atom     1 has atomic number  6 and mass  12.00000

 Molecular mass:   187.15723 amu.
 Principal axes and moments of inertia in atomic units:
                           1         2         3
     Eigenvalues --  1442.859463932.899314267.06662
           X            0.99986  -0.01685  -0.00170
           Y            0.01680   0.99952  -0.02596
           Z            0.00213   0.02593   0.99966
 This molecule is an asymmetric top.
 Rotational symmetry number  1.
 Warning -- assumption of classical behavior for rotation
           may cause significant error
 Rotational temperatures (Kelvin)      0.06003     0.02202     0.02030
 Rotational constants (GHZ):           1.25081     0.45888     0.42295
 Zero-point vibrational energy     816984.2 (Joules/Mol)
                                  195.26391 (Kcal/Mol)
 Warning -- explicit consideration of  23 degrees of freedom as
           vibrations may cause significant error
 Vibrational temperatures:     74.47   117.67   140.72   168.33   257.42
          (Kelvin)            263.91   311.65   327.96   362.12   371.43
                              408.69   412.13   452.48   461.43   480.50
                              552.21   586.31   607.85   640.49   690.87
                              730.48   770.48   836.00   915.12   968.05
                             1134.98  1147.80  1236.51  1288.28  1305.84
                             1317.92  1347.61  1374.49  1404.59  1451.62
                             1472.81  1504.74  1543.90  1568.77  1578.24
                             1584.09  1598.22  1631.30  1661.47  1671.87
                             1715.74  1733.00  1770.60  1809.78  1861.87
                             1869.96  1879.87  1917.34  1918.66  1934.89
                             1970.40  1985.85  2003.90  2014.68  2015.96
                             2035.05  2043.55  2056.64  2066.23  2081.12
                             2116.60  2175.13  2180.20  2182.33  2189.97
                             2193.55  2200.64  2210.22  2218.42  2226.57
                             4278.33  4280.96  4325.51  4352.03  4358.68
                             4366.86  4375.37  4388.70  4400.36  4415.72
                             4430.80  4444.76  4457.46  4476.30  4487.41
                             4515.32  4524.27  4526.42  5064.62  5354.12
                             5384.68

 Zero-point correction=                           0.311173 (Hartree/Particle)
 Thermal correction to Energy=                    0.325617
 Thermal correction to Enthalpy=                  0.326561
 Thermal correction to Gibbs Free Energy=         0.271148
 Sum of electronic and zero-point Energies=           -598.635917
 Sum of electronic and thermal Energies=              -598.621473
 Sum of electronic and thermal Enthalpies=            -598.620529
 Sum of electronic and thermal Free Energies=         -598.675941

                     E (Thermal)             CV                S
                      KCal/Mol        Cal/Mol-Kelvin    Cal/Mol-Kelvin
 Total                  204.328             56.457            116.625
 Electronic               0.000              0.000              0.000
 Translational            0.889              2.981             41.586
 Rotational               0.889              2.981             31.560
 Vibrational            202.550             50.495             43.479
 Vibration     1          0.596              1.977              4.749
 Vibration     2          0.600              1.962              3.847
 Vibration     3          0.603              1.951              3.498
 Vibration     4          0.608              1.935              3.149
 Vibration     5          0.629              1.868              2.340
 Vibration     6          0.631              1.862              2.293
 Vibration     7          0.645              1.816              1.987
 Vibration     8          0.651              1.798              1.895
 Vibration     9          0.664              1.760              1.719
 Vibration    10          0.667              1.749              1.674
 Vibration    11          0.682              1.703              1.509
 Vibration    12          0.684              1.699              1.495
 Vibration    13          0.702              1.646              1.339
 Vibration    14          0.706              1.634              1.306
 Vibration    15          0.715              1.608              1.241
 Vibration    16          0.753              1.505              1.024
 Vibration    17          0.772              1.454              0.935
 Vibration    18          0.785              1.421              0.884
 Vibration    19          0.805              1.372              0.811
 Vibration    20          0.837              1.294              0.710
 Vibration    21          0.863              1.233              0.639
 Vibration    22          0.891              1.171              0.575
 Vibration    23          0.938              1.072              0.483

 Optimization completed.
    -- Stationary point found.
 Normal termination of Gaussian 16 at Sun Dec 13 12:32:43 2020.

 ----------------------------------------------------------------------
 # B3LYP/6-311++G(d,p) empiricaldispersion=gd3bj scf=xqc pop=npa geom=c
 heck
 ----------------------------------------------------------------------

 ---------------------------------------
 CID_131102225_JID_3859_Energie_neutraal
 ---------------------------------------
 Structure from the checkpoint file:  "JID_3859.chk"
 Charge =  0 Multiplicity = 1

 SCF Done:  E(RB3LYP) =  -599.139138072     A.U. after   13 cycles
 Normal termination of Gaussian 16 at Sun Dec 13 12:36:39 2020.

 ----------------------------------------------------------------------
 # B3LYP/6-311++G(d,p) empiricaldispersion=gd3bj scf=xqc pop=npa geom=c
 heck
 ----------------------------------------------------------------------

 -------------------------------------
 CID_131102225_JID_3859_Energie_kation
 -------------------------------------
 Structure from the checkpoint file:  "JID_3859.chk"
 Charge =  1 Multiplicity = 2

 SCF Done:  E(UB3LYP) =  -598.849373222     A.U. after   22 cycles
 Normal termination of Gaussian 16 at Sun Dec 13 12:44:56 2020.
 Gaussian 16:  ES64L-G16RevA.03 25-Dec-2016

 ----------------------------------------------------------------------
 # B3LYP/6-311++G(d,p) empiricaldispersion=gd3bj scf=xqc pop=npa geom=c
 heck
 ----------------------------------------------------------------------

 ------------------------------------
 CID_131102225_JID_3859_Energie_anion
 ------------------------------------
 Structure from the checkpoint file:  "JID_3859.chk"
 Charge = -1 Multiplicity = 2

                         Standard orientation:
 ---------------------------------------------------------------------
 Center     Atomic      Atomic             Coordinates (Angstroms)
 Number     Number       Type             X           Y           Z
 ---------------------------------------------------------------------
      1          6           0        3.110641   -1.598859   -0.668210
      2          6           0        1.894587   -0.873880   -0.071681
      3          6           0        2.362109    0.227841    0.920738
      4          6           0        2.933134    1.468755    0.251190
      5          8           0        1.303393    0.678509    1.776403
      6          7           0        1.027159   -0.489024   -1.179778
      7          6           0       -0.376051   -0.093350   -1.022963
      8          6           0       -0.636117    1.389919   -0.692759
      9          6           0       -2.140260    1.695980   -0.703183
     10          6           0       -2.900952    0.776843    0.262525
     11          6           0       -2.630010   -0.700342   -0.036365
     12          6           0       -1.125534   -0.993725   -0.033679
     13          8           0       -3.333180   -1.563476    0.856688
     14          1           0        3.682315   -0.932775   -1.326229
     15          1           0        2.775831   -2.449331   -1.267091
     16          1           0        3.790017   -1.958568    0.112518
     17          1           0        1.342021   -1.610780    0.527009
     18          1           0        3.149900   -0.223223    1.547288
     19          1           0        2.183593    1.946611   -0.385984
     20          1           0        3.242476    2.192082    1.010917
     21          1           0        3.805306    1.216742   -0.360576
     22          1           0        0.971180   -0.094595    2.258119
     23          1           0        1.506495    0.156159   -1.801600
     24          1           0       -0.830458   -0.275732   -2.011051
     25          1           0       -0.121710    2.021476   -1.430463
     26          1           0       -0.208673    1.616413    0.288840
     27          1           0       -2.537422    1.557010   -1.719359
     28          1           0       -2.317327    2.745657   -0.441318
     29          1           0       -3.980316    0.962386    0.223295
     30          1           0       -2.574585    0.987047    1.293667
     31          1           0       -3.037189   -0.944010   -1.025641
     32          1           0       -0.748509   -0.813931    0.982887
     33          1           0       -0.956201   -2.050139   -0.269515
     34          1           0       -3.037841   -1.340692    1.754332
 ---------------------------------------------------------------------

 SCF Done:  E(UB3LYP) =  -599.126486997     A.U. after   28 cycles

 The electronic state is 2-A.
 Alpha  occ. eigenvalues --  -19.01902 -19.00985 -14.19171 -10.12059 -10.11012
 Alpha  occ. eigenvalues --  -10.09935 -10.09477 -10.07438 -10.06851 -10.06024
 Alpha  occ. eigenvalues --  -10.05795 -10.05576 -10.05490  -0.92151  -0.91229
 Alpha  occ. eigenvalues --   -0.80502  -0.72459  -0.67243  -0.63878  -0.63140
 Alpha  occ. eigenvalues --   -0.60794  -0.53716  -0.51642  -0.50954  -0.48160
 Alpha  occ. eigenvalues --   -0.45544  -0.41595  -0.40785  -0.37006  -0.36635
 Alpha  occ. eigenvalues --   -0.35864  -0.35585  -0.34485  -0.33355  -0.30846
 Alpha  occ. eigenvalues --   -0.30100  -0.29960  -0.29133  -0.28414  -0.27724
 Alpha  occ. eigenvalues --   -0.27280  -0.26652  -0.24828  -0.24466  -0.23872
 Alpha  occ. eigenvalues --   -0.23414  -0.22581  -0.21653  -0.21019  -0.17281
 Alpha  occ. eigenvalues --   -0.17239  -0.11253   0.04594
 Alpha virt. eigenvalues --    0.06577   0.06957   0.08116   0.08684   0.09028
 Alpha virt. eigenvalues --    0.09378   0.10406   0.10784   0.11180   0.11502
 Alpha virt. eigenvalues --    0.12099   0.12283   0.12669   0.13703   0.14300

  Beta  occ. eigenvalues --  -19.01870 -19.00945 -14.19166 -10.12059 -10.10992
  Beta  occ. eigenvalues --  -10.09932 -10.09464 -10.07434 -10.06835 -10.06000
  Beta  occ. eigenvalues --  -10.05790 -10.05547 -10.05464  -0.92088  -0.91144
  Beta  occ. eigenvalues --   -0.80484  -0.72437  -0.67202  -0.63847  -0.63096
  Beta  occ. eigenvalues --   -0.60757  -0.53651  -0.51595  -0.50915  -0.48116
  Beta  occ. eigenvalues --   -0.45482  -0.41517  -0.40723  -0.36965  -0.36609
  Beta  occ. eigenvalues --   -0.35831  -0.35549  -0.34454  -0.33323  -0.30811
  Beta  occ. eigenvalues --   -0.30080  -0.29936  -0.29095  -0.28370  -0.27691
  Beta  occ. eigenvalues --   -0.27248  -0.26616  -0.24796  -0.24438  -0.23836
  Beta  occ. eigenvalues --   -0.23375  -0.22547  -0.21607  -0.20994  -0.17249
  Beta  occ. eigenvalues --   -0.17199  -0.11241
  Beta virt. eigenvalues --    0.06617   0.07445   0.07810   0.08289   0.09276
  Beta virt. eigenvalues --    0.09553   0.09632   0.10617   0.11052   0.11718
  Beta virt. eigenvalues --    0.11997   0.12241   0.12530   0.12892   0.13995

 Mulliken charges and spin densities:
               1          2
     1  C    1.246441  -1.864033
     2  C   -1.301952   0.965316
     3  C    0.102676  -0.154925
     4  C    0.896404  -1.495200
     5  O   -0.111259  -0.040194
     6  N    0.165185  -0.048669
     7  C    0.123569  -0.122724
     8  C   -0.387275   0.178791
     9  C   -0.251814  -0.291477
    10  C   -0.037249  -0.210627
    11  C    0.526376  -1.063978
    12  C   -0.765836   0.573532
    13  O   -0.202694   0.013686
    14  H   -0.120598   0.246823
    15  H    0.099232   0.064297
    16  H   -0.301722   0.446986
    17  H   -0.501582   0.676466
    18  H   -0.408939   0.586192
    19  H   -0.033371   0.214845
    20  H   -0.047001   0.204576
    21  H   -0.356829   0.499274
    22  H   -0.483088   0.760567
    23  H    0.177291   0.025405
    24  H    0.138535   0.021141
    25  H   -0.058247   0.170980
    26  H    0.483784  -0.259945
    27  H    0.130462  -0.012657
    28  H   -0.031857   0.195502
    29  H    0.126283   0.036299
    30  H   -0.127564   0.281395
    31  H    0.164598   0.005433
    32  H    0.307172  -0.204589
    33  H    0.017903   0.163019
    34  H   -0.177037   0.438494
 Sum of Mulliken charges =  -1.00000   1.00000

 Dipole moment (field-independent basis, Debye):
    X=             -3.3667    Y=              2.7342    Z=             -6.2318  Tot=              7.5925
 Quadrupole moment (field-independent basis, Debye-Ang):
   XX=           -151.8616   YY=           -121.5172   ZZ=           -123.2765
   XY=             -4.2432   XZ=              2.7758   YZ=              3.9672

 Summary of Natural Population Analysis:

                                       Natural Population
                Natural  -----------------------------------------------
    Atom  No    Charge         Core      Valence    Rydberg      Total
 -----------------------------------------------------------------------
      C    1   -0.28425      0.99964     2.27805    0.00656     3.28425
      C    2   -0.02347      0.99958     2.00927    0.01462     3.02347
      C    3    0.05886      0.99954     1.92689    0.01471     2.94114
      C    4   -0.29728      0.99963     2.29029    0.00735     3.29728
      O    5   -0.37993      0.99989     3.37248    0.00755     4.37993
      N    6   -0.34626      0.99972     2.83525    0.01129     3.84626
      C    7   -0.00037      0.99957     1.98987    0.01093     3.00037
      C    8   -0.20462      0.99960     2.19704    0.00798     3.20462
      C    9   -0.18968      0.99963     2.18193    0.00812     3.18968
      C   10   -0.20186      0.99961     2.19293    0.00932     3.20186
      C   11    0.06859      0.99953     1.91833    0.01354     2.93141
      C   12   -0.20884      0.99959     2.19877    0.01048     3.20884
      O   13   -0.37197      0.99990     3.36548    0.00659     4.37197
      H   14    0.09454      0.00000     0.40435    0.00111     0.40546
      H   15    0.10255      0.00000     0.39632    0.00112     0.39745
      H   16    0.10131      0.00000     0.39749    0.00121     0.39869
      H   17    0.09687      0.00000     0.40048    0.00265     0.40313
      H   18    0.07971      0.00000     0.41790    0.00239     0.42029
      H   19    0.09826      0.00000     0.40044    0.00130     0.40174
      H   20    0.10525      0.00000     0.39380    0.00094     0.39475
      H   21    0.10058      0.00000     0.39821    0.00121     0.39942
      H   22    0.23678      0.00000     0.25245    0.01077     0.26322
      H   23    0.17307      0.00000     0.32467    0.00226     0.32693
      H   24    0.08343      0.00000     0.41489    0.00168     0.41657
      H   25    0.09268      0.00000     0.40626    0.00106     0.40732
      H   26    0.11481      0.00000     0.38332    0.00187     0.38519
      H   27    0.08897      0.00000     0.40986    0.00117     0.41103
      H   28    0.09903      0.00000     0.40012    0.00085     0.40097
      H   29    0.09947      0.00000     0.39963    0.00091     0.40053
      H   30    0.09763      0.00000     0.40089    0.00148     0.40237
      H   31    0.08058      0.00000     0.41792    0.00150     0.41942
      H   32    0.10024      0.00000     0.39705    0.00271     0.39976
      H   33    0.10602      0.00000     0.39268    0.00130     0.39398
      H   34    0.22928      0.00000     0.26614    0.00457     0.27072
 =======================================================================
   * Total *   -0.00000     12.99543    38.83145    0.17312    52.00000

 Normal termination of Gaussian 16 at Sun Dec 13 12:55:23 2020.
