 Gaussian 16, Revision A.03,

 -----------------------------------------------------------
 # opt freq B3LYP/6-31G(d) empiricaldispersion=gd3bj scf=xqc
 -----------------------------------------------------------

 -------------------------------
 CID_146510921_JID_2244_neutraal
 -------------------------------
 Symbolic Z-matrix:
 Charge =  0 Multiplicity = 1

 SCF Done:  E(RB3LYP) =  -538.511945536     A.U. after   13 cycles
 SCF Done:  E(RB3LYP) =  -538.516413759     A.U. after   11 cycles
 SCF Done:  E(RB3LYP) =  -538.516924004     A.U. after   11 cycles
 SCF Done:  E(RB3LYP) =  -538.517091416     A.U. after   11 cycles
 SCF Done:  E(RB3LYP) =  -538.517205910     A.U. after   10 cycles
 SCF Done:  E(RB3LYP) =  -538.517246813     A.U. after    9 cycles
 SCF Done:  E(RB3LYP) =  -538.517258047     A.U. after    9 cycles
 SCF Done:  E(RB3LYP) =  -538.517266055     A.U. after    9 cycles
 SCF Done:  E(RB3LYP) =  -538.517271780     A.U. after    8 cycles
 SCF Done:  E(RB3LYP) =  -538.517272451     A.U. after    7 cycles
 SCF Done:  E(RB3LYP) =  -538.517272758     A.U. after    7 cycles
 Optimization completed.
    -- Stationary point found.
 Normal termination of Gaussian 16 at Wed Dec  9 16:56:38 2020.

 --------------------------------------------------------------------
 #N Geom=AllCheck Guess=TCheck SCRF=Check GenChk RB3LYP/6-31G(d) Freq
 --------------------------------------------------------------------

 Structure from the checkpoint file:  "JID_2244.chk"
 -------------------------------
 CID_146510921_JID_2244_neutraal
 -------------------------------
 Charge =  0 Multiplicity = 1

 SCF Done:  E(RB3LYP) =  -538.517272758     A.U. after    1 cycles

  Exact polarizability: 138.289   3.790 106.471   6.343   6.275  87.617
 Approx polarizability: 166.412  12.968 164.628   9.090  11.431 133.393

                      1                      2                      3
                      A                      A                      A
 Frequencies --     20.0901                93.5164               104.4179
 Red. masses --      4.0276                 3.9883                 3.2662
 Frc consts  --      0.0010                 0.0206                 0.0210
 IR Inten    --      0.0602                 2.9661                 1.7106

                      4                      5                      6
                      A                      A                      A
 Frequencies --    144.6701               175.4039               209.8213
 Red. masses --      2.7127                 2.8462                 1.9187
 Frc consts  --      0.0335                 0.0516                 0.0498
 IR Inten    --      2.9791                 8.0768                 6.0881

                      7                      8                      9
                      A                      A                      A
 Frequencies --    234.3901               249.9874               258.3478
 Red. masses --      2.3249                 2.3712                 2.2132
 Frc consts  --      0.0753                 0.0873                 0.0870
 IR Inten    --      0.9109                 9.0062                 0.4551

                     10                     11                     12
                      A                      A                      A
 Frequencies --    277.2844               302.6407               320.6520
 Red. masses --      1.4044                 3.4800                 2.1978
 Frc consts  --      0.0636                 0.1878                 0.1331
 IR Inten    --      1.9320                 0.7862                 0.4699

                     13                     14                     15
                      A                      A                      A
 Frequencies --    348.0676               385.2420               435.0097
 Red. masses --      1.2277                 2.7135                 1.8524
 Frc consts  --      0.0876                 0.2373                 0.2065
 IR Inten    --     98.6997                10.3313                 4.1256

                     16                     17                     18
                      A                      A                      A
 Frequencies --    460.1919               494.6323               540.7296
 Red. masses --      2.1107                 2.2126                 1.9580
 Frc consts  --      0.2634                 0.3189                 0.3373
 IR Inten    --     50.8971                14.9928                76.9361

                     19                     20                     21
                      A                      A                      A
 Frequencies --    555.8935               597.3305               663.2461
 Red. masses --      2.1648                 2.1653                 2.2703
 Frc consts  --      0.3941                 0.4552                 0.5884
 IR Inten    --     14.2128                15.5060                 9.6998

                     22                     23                     24
                      A                      A                      A
 Frequencies --    720.5167               783.9625               809.9236
 Red. masses --      2.7175                 2.4942                 1.4631
 Frc consts  --      0.8312                 0.9032                 0.5655
 IR Inten    --      2.1531                 5.5434                22.0339

                     25                     26                     27
                      A                      A                      A
 Frequencies --    859.5744               894.9614               898.0715
 Red. masses --      2.4536                 2.5156                 1.8958
 Frc consts  --      1.0681                 1.1871                 0.9009
 IR Inten    --      6.4437                10.6743                 8.0994

                     28                     29                     30
                      A                      A                      A
 Frequencies --    942.7427               989.2877              1016.0265
 Red. masses --      2.2096                 2.0580                 1.9864
 Frc consts  --      1.1570                 1.1867                 1.2082
 IR Inten    --      8.3005                14.3201                 7.9814

                     31                     32                     33
                      A                      A                      A
 Frequencies --   1051.2428              1066.6725              1074.4441
 Red. masses --      2.0820                 2.2690                 2.1872
 Frc consts  --      1.3556                 1.5211                 1.4876
 IR Inten    --      5.6620                13.8170                 6.4514

                     34                     35                     36
                      A                      A                      A
 Frequencies --   1092.4436              1103.4278              1119.0837
 Red. masses --      3.1967                 2.3432                 2.2452
 Frc consts  --      2.2478                 1.6809                 1.6566
 IR Inten    --     54.9432                 6.0540                 2.7412

                     37                     38                     39
                      A                      A                      A
 Frequencies --   1158.4007              1171.3949              1187.8123
 Red. masses --      1.3504                 1.8658                 1.6512
 Frc consts  --      1.0677                 1.5084                 1.3726
 IR Inten    --     17.7507                43.9572                16.1387

                     40                     41                     42
                      A                      A                      A
 Frequencies --   1208.1953              1229.0299              1244.6761
 Red. masses --      1.6404                 1.3228                 1.1729
 Frc consts  --      1.4109                 1.1772                 1.0705
 IR Inten    --      4.5799                40.4417                 0.7701

                     43                     44                     45
                      A                      A                      A
 Frequencies --   1259.7871              1266.9994              1307.7993
 Red. masses --      1.4266                 1.8644                 1.3347
 Frc consts  --      1.3340                 1.7634                 1.3450
 IR Inten    --      7.1120                55.0975                18.7633

                     46                     47                     48
                      A                      A                      A
 Frequencies --   1355.0766              1369.1250              1382.4573
 Red. masses --      1.4829                 1.4856                 1.3518
 Frc consts  --      1.6043                 1.6407                 1.5221
 IR Inten    --     15.8721                12.4273                21.6021

                     49                     50                     51
                      A                      A                      A
 Frequencies --   1392.6452              1405.5845              1411.9305
 Red. masses --      1.3413                 1.2518                 1.3533
 Frc consts  --      1.5327                 1.4571                 1.5896
 IR Inten    --     12.7317                 6.0245                29.8063

                     52                     53                     54
                      A                      A                      A
 Frequencies --   1417.5951              1419.9067              1438.4620
 Red. masses --      1.4942                 1.4341                 1.3165
 Frc consts  --      1.7691                 1.7035                 1.6049
 IR Inten    --     10.8633                18.1191                19.6993

                     55                     56                     57
                      A                      A                      A
 Frequencies --   1443.0562              1484.4774              1497.6475
 Red. masses --      1.3739                 1.1886                 1.0943
 Frc consts  --      1.6856                 1.5433                 1.4461
 IR Inten    --     17.9335                 2.2848                 5.2625

                     58                     59                     60
                      A                      A                      A
 Frequencies --   1501.8843              1507.8969              1515.5105
 Red. masses --      1.1050                 1.0797                 1.0936
 Frc consts  --      1.4685                 1.4464                 1.4798
 IR Inten    --      9.7466                11.7758                 5.5617

                     61                     62                     63
                      A                      A                      A
 Frequencies --   1525.0766              1532.1844              1534.0755
 Red. masses --      1.0909                 1.0866                 1.3071
 Frc consts  --      1.4949                 1.5029                 1.8124
 IR Inten    --      5.8377                 6.4771                20.8774

                     64                     65                     66
                      A                      A                      A
 Frequencies --   1550.8858              1555.8630              1738.1653
 Red. masses --      1.0945                 1.1004                 5.6943
 Frc consts  --      1.5511                 1.5694                10.1361
 IR Inten    --      6.2030                59.2619                59.9350

                     67                     68                     69
                      A                      A                      A
 Frequencies --   2976.1686              2983.8494              2989.3189
 Red. masses --      1.0709                 1.0715                 1.0556
 Frc consts  --      5.5887                 5.6208                 5.5578
 IR Inten    --     45.0348               106.7306                56.2351

                     70                     71                     72
                      A                      A                      A
 Frequencies --   3001.6717              3010.4430              3023.0064
 Red. masses --      1.0684                 1.0679                 1.0704
 Frc consts  --      5.6716                 5.7020                 5.7632
 IR Inten    --     40.4920                59.5916                18.8676

                     73                     74                     75
                      A                      A                      A
 Frequencies --   3034.0094              3036.3694              3049.2201
 Red. masses --      1.0749                 1.0801                 1.0830
 Frc consts  --      5.8300                 5.8672                 5.9330
 IR Inten    --     15.4516                80.3144                57.4396

                     76                     77                     78
                      A                      A                      A
 Frequencies --   3076.6455              3078.0187              3080.1861
 Red. masses --      1.0978                 1.0956                 1.0822
 Frc consts  --      6.1225                 6.1155                 6.0494
 IR Inten    --      7.6999                59.7019                35.8902

                     79                     80                     81
                      A                      A                      A
 Frequencies --   3085.2668              3089.3517              3135.7929
 Red. masses --      1.0952                 1.0984                 1.1003
 Frc consts  --      6.1421                 6.1765                 6.3746
 IR Inten    --     72.1631                48.8567                27.3777

                     82                     83                     84
                      A                      A                      A
 Frequencies --   3185.3952              3573.3462              3761.7967
 Red. masses --      1.0870                 1.0758                 1.0659
 Frc consts  --      6.4985                 8.0937                 8.8868
 IR Inten    --     26.9218                 6.0754                20.0193

 - Thermochemistry -
 -------------------
 Temperature   298.150 Kelvin.  Pressure   1.00000 Atm.
 Atom     1 has atomic number  6 and mass  12.00000

 Molecular mass:   170.14191 amu.
 Principal axes and moments of inertia in atomic units:
                           1         2         3
     Eigenvalues --   988.694013652.888513782.30367
           X            0.99995  -0.00526   0.00824
           Y            0.00448   0.99583   0.09108
           Z           -0.00869  -0.09104   0.99581
 This molecule is an asymmetric top.
 Rotational symmetry number  1.
 Warning -- assumption of classical behavior for rotation
           may cause significant error
 Rotational temperatures (Kelvin)      0.08760     0.02371     0.02290
 Rotational constants (GHZ):           1.82538     0.49406     0.47715
 Zero-point vibrational energy     714633.6 (Joules/Mol)
                                  170.80152 (Kcal/Mol)
 Warning -- explicit consideration of  20 degrees of freedom as
           vibrations may cause significant error
 Vibrational temperatures:     28.91   134.55   150.23   208.15   252.37
          (Kelvin)            301.89   337.24   359.68   371.70   398.95
                              435.43   461.35   500.79   554.28   625.88
                              662.11   711.67   777.99   799.81   859.43
                              954.26  1036.66  1127.95  1165.30  1236.74
                             1287.65  1292.12  1356.40  1423.36  1461.84
                             1512.50  1534.70  1545.89  1571.78  1587.59
                             1610.11  1666.68  1685.38  1709.00  1738.32
                             1768.30  1790.81  1812.55  1822.93  1881.63
                             1949.65  1969.87  1989.05  2003.71  2022.32
                             2031.45  2039.60  2042.93  2069.63  2076.24
                             2135.83  2154.78  2160.88  2169.53  2180.48
                             2194.25  2204.47  2207.19  2231.38  2238.54
                             2500.83  4282.04  4293.09  4300.96  4318.74
                             4331.36  4349.43  4365.26  4368.66  4387.15
                             4426.61  4428.58  4431.70  4439.01  4444.89
                             4511.71  4583.07  5141.25  5412.39

 Zero-point correction=                           0.272190 (Hartree/Particle)
 Thermal correction to Energy=                    0.285017
 Thermal correction to Enthalpy=                  0.285961
 Thermal correction to Gibbs Free Energy=         0.233028
 Sum of electronic and zero-point Energies=           -538.245083
 Sum of electronic and thermal Energies=              -538.232256
 Sum of electronic and thermal Enthalpies=            -538.231312
 Sum of electronic and thermal Free Energies=         -538.284244

                     E (Thermal)             CV                S
                      KCal/Mol        Cal/Mol-Kelvin    Cal/Mol-Kelvin
 Total                  178.851             49.195            111.405
 Electronic               0.000              0.000              0.000
 Translational            0.889              2.981             41.302
 Rotational               0.889              2.981             30.991
 Vibrational            177.073             43.234             39.112
 Vibration     1          0.593              1.986              6.625
 Vibration     2          0.603              1.954              3.585
 Vibration     3          0.605              1.946              3.370
 Vibration     4          0.616              1.908              2.741
 Vibration     5          0.627              1.873              2.377
 Vibration     6          0.642              1.826              2.045
 Vibration     7          0.654              1.788              1.845
 Vibration     8          0.663              1.763              1.731
 Vibration     9          0.667              1.749              1.673
 Vibration    10          0.678              1.715              1.550
 Vibration    11          0.694              1.669              1.402
 Vibration    12          0.706              1.634              1.307
 Vibration    13          0.726              1.579              1.175
 Vibration    14          0.754              1.502              1.019
 Vibration    15          0.796              1.394              0.842
 Vibration    16          0.818              1.338              0.766
 Vibration    17          0.850              1.262              0.672
 Vibration    18          0.896              1.160              0.564
 Vibration    19          0.911              1.127              0.532
 Vibration    20          0.955              1.037              0.454

                           ! Non-Optimized Parameters !
 Normal termination of Gaussian 16 at Wed Dec  9 17:04:45 2020.

 ----------------------------------------------------------------------
 # B3LYP/6-311++G(d,p) empiricaldispersion=gd3bj scf=xqc pop=npa geom=c
 heck
 ----------------------------------------------------------------------

 ---------------------------------------
 CID_146510921_JID_2244_Energie_neutraal
 ---------------------------------------
 Structure from the checkpoint file:  "JID_2244.chk"
 Charge =  0 Multiplicity = 1

 SCF Done:  E(RB3LYP) =  -538.681897012     A.U. after   14 cycles
 Normal termination of Gaussian 16 at Wed Dec  9 17:08:40 2020.

 ----------------------------------------------------------------------
 # B3LYP/6-311++G(d,p) empiricaldispersion=gd3bj scf=xqc pop=npa geom=c
 heck
 ----------------------------------------------------------------------

 -------------------------------------
 CID_146510921_JID_2244_Energie_kation
 -------------------------------------
 Structure from the checkpoint file:  "JID_2244.chk"
 Charge =  1 Multiplicity = 2

 SCF Done:  E(UB3LYP) =  -538.418186725     A.U. after   21 cycles
 Normal termination of Gaussian 16 at Wed Dec  9 17:16:54 2020.
 Gaussian 16:  ES64L-G16RevA.03 25-Dec-2016

 ----------------------------------------------------------------------
 # B3LYP/6-311++G(d,p) empiricaldispersion=gd3bj scf=xqc pop=npa geom=c
 heck
 ----------------------------------------------------------------------

 ------------------------------------
 CID_146510921_JID_2244_Energie_anion
 ------------------------------------
 Structure from the checkpoint file:  "JID_2244.chk"
 Charge = -1 Multiplicity = 2

                         Standard orientation:
 ---------------------------------------------------------------------
 Center     Atomic      Atomic             Coordinates (Angstroms)
 Number     Number       Type             X           Y           Z
 ---------------------------------------------------------------------
      1          6           0        4.120835   -0.573124    0.417067
      2          7           0        3.105847    0.459073    0.481726
      3          6           0        1.807305    0.202262    0.022309
      4          6           0        1.356457   -1.043631   -0.229846
      5          6           0       -0.015652   -1.430606   -0.724334
      6          6           0       -0.765019   -0.326249   -1.494715
      7          7           0       -1.328366    0.766416   -0.710436
      8          6           0       -0.486008    1.322543    0.340165
      9          6           0        0.978388    1.471514   -0.079785
     10          6           0       -2.742045    0.653389   -0.374186
     11          6           0       -3.196210   -0.578695    0.421838
     12          8           0       -2.626041   -0.675382    1.722472
     13          1           0        4.217826   -1.024219   -0.584739
     14          1           0        3.883223   -1.376912    1.123070
     15          1           0        5.082674   -0.143932    0.709539
     16          1           0        3.444626    1.373633    0.209979
     17          1           0        2.041824   -1.874862   -0.091143
     18          1           0       -0.649804   -1.816269    0.091667
     19          1           0        0.104067   -2.284815   -1.405923
     20          1           0       -0.067204    0.081249   -2.239242
     21          1           0       -1.589472   -0.773371   -2.060862
     22          1           0       -0.504956    0.746693    1.280583
     23          1           0       -0.887732    2.313971    0.587222
     24          1           0        1.432913    2.209925    0.591677
     25          1           0        1.027142    1.897566   -1.091240
     26          1           0       -3.018804    1.551523    0.191004
     27          1           0       -3.324083    0.669953   -1.308807
     28          1           0       -4.280147   -0.517226    0.574239
     29          1           0       -3.004705   -1.494170   -0.159816
     30          1           0       -1.689725   -0.898524    1.612908
 ---------------------------------------------------------------------

 SCF Done:  E(UB3LYP) =  -538.667269179     A.U. after   32 cycles

 The electronic state is 2-A.
 Alpha  occ. eigenvalues --  -19.03107 -14.21206 -14.20125 -10.12066 -10.09830
 Alpha  occ. eigenvalues --  -10.09801 -10.09573 -10.09142 -10.08608 -10.07250
 Alpha  occ. eigenvalues --  -10.07070 -10.04310  -0.93222  -0.82831  -0.81906
 Alpha  occ. eigenvalues --   -0.69266  -0.67138  -0.64187  -0.58964  -0.58184
 Alpha  occ. eigenvalues --   -0.54185  -0.52524  -0.46337  -0.43235  -0.42453
 Alpha  occ. eigenvalues --   -0.40858  -0.38895  -0.37297  -0.36336  -0.35785
 Alpha  occ. eigenvalues --   -0.33437  -0.32169  -0.31796  -0.31150  -0.29969
 Alpha  occ. eigenvalues --   -0.29253  -0.28593  -0.27345  -0.26066  -0.25192
 Alpha  occ. eigenvalues --   -0.24937  -0.24291  -0.22504  -0.19429  -0.19049
 Alpha  occ. eigenvalues --   -0.10449  -0.09453   0.04471
 Alpha virt. eigenvalues --    0.06100   0.07184   0.07939   0.08184   0.08760
 Alpha virt. eigenvalues --    0.09503   0.10252   0.10678   0.11101   0.11378
 Alpha virt. eigenvalues --    0.11825   0.12714   0.13596   0.13762   0.14318

  Beta  occ. eigenvalues --  -19.03100 -14.21177 -14.20127 -10.12049 -10.09830
  Beta  occ. eigenvalues --  -10.09786 -10.09562 -10.09121 -10.08564 -10.07229
  Beta  occ. eigenvalues --  -10.07054 -10.04297  -0.93206  -0.82809  -0.81874
  Beta  occ. eigenvalues --   -0.69237  -0.67107  -0.64152  -0.58903  -0.58142
  Beta  occ. eigenvalues --   -0.54117  -0.52477  -0.46289  -0.43196  -0.42417
  Beta  occ. eigenvalues --   -0.40817  -0.38859  -0.37249  -0.36291  -0.35753
  Beta  occ. eigenvalues --   -0.33403  -0.32135  -0.31765  -0.31108  -0.29941
  Beta  occ. eigenvalues --   -0.29210  -0.28563  -0.27296  -0.26037  -0.25161
  Beta  occ. eigenvalues --   -0.24907  -0.24272  -0.22477  -0.19408  -0.19014
  Beta  occ. eigenvalues --   -0.10432  -0.09425
  Beta virt. eigenvalues --    0.06585   0.07344   0.07758   0.08443   0.08665
  Beta virt. eigenvalues --    0.09297   0.10099   0.10499   0.11133   0.11491
  Beta virt. eigenvalues --    0.11551   0.12239   0.13213   0.13732   0.13976

 Mulliken charges and spin densities:
               1          2
     1  C    1.014355  -1.419338
     2  N   -0.306298   0.243417
     3  C   -1.175419   1.005557
     4  C    1.172233  -1.009211
     5  C    0.743957  -0.950378
     6  C    0.091796  -0.582142
     7  N    0.028209   0.093613
     8  C   -0.534604   0.024131
     9  C    0.278123  -0.809340
    10  C   -0.301517   0.120897
    11  C    0.358884  -0.751358
    12  O   -0.273581   0.032609
    13  H   -0.232306   0.378026
    14  H   -0.191125   0.338018
    15  H   -0.841731   0.999740
    16  H   -0.274873   0.532971
    17  H    0.153659   0.027223
    18  H   -0.006607   0.096388
    19  H   -0.241970   0.406353
    20  H    0.087666   0.069313
    21  H   -0.188207   0.362990
    22  H    0.003400   0.081988
    23  H   -0.081113   0.230113
    24  H    0.022595   0.127786
    25  H   -0.214325   0.420656
    26  H    0.102228   0.033460
    27  H   -0.317186   0.469064
    28  H   -0.118673   0.273326
    29  H    0.001167   0.151387
    30  H    0.241262   0.002741
 Sum of Mulliken charges =  -1.00000   1.00000

 Dipole moment (field-independent basis, Debye):
    X=             -5.5441    Y=             -0.5058    Z=              0.5211  Tot=              5.5915
 Quadrupole moment (field-independent basis, Debye-Ang):
   XX=           -167.6958   YY=           -110.1819   ZZ=           -112.6420
   XY=             -6.0335   XZ=             -3.5219   YZ=             -1.3387

 Summary of Natural Population Analysis:

                                       Natural Population
                Natural  -----------------------------------------------
    Atom  No    Charge         Core      Valence    Rydberg      Total
 -----------------------------------------------------------------------
      C    1   -0.18081      0.99966     2.17171    0.00945     3.18081
      N    2   -0.31558      0.99969     2.80287    0.01302     3.81558
      C    3    0.09757      0.99947     1.89054    0.01242     2.90243
      C    4   -0.15946      0.99948     2.14990    0.01009     3.15946
      C    5   -0.20764      0.99962     2.19890    0.00912     3.20764
      C    6   -0.08494      0.99960     2.07350    0.01184     3.08494
      N    7   -0.28833      0.99972     2.77396    0.01465     3.78833
      C    8   -0.07551      0.99960     2.06470    0.01120     3.07551
      C    9   -0.21343      0.99958     2.20391    0.00994     3.21343
      C   10   -0.09211      0.99960     2.08068    0.01182     3.09211
      C   11   -0.02186      0.99960     2.00942    0.01284     3.02186
      O   12   -0.37098      0.99990     3.36427    0.00681     4.37098
      H   13    0.08705      0.00000     0.41095    0.00200     0.41295
      H   14    0.09198      0.00000     0.40646    0.00156     0.40802
      H   15    0.10090      0.00000     0.39673    0.00238     0.39910
      H   16    0.18483      0.00000     0.30966    0.00551     0.31517
      H   17    0.09896      0.00000     0.39967    0.00136     0.40104
      H   18    0.08485      0.00000     0.41304    0.00212     0.41515
      H   19    0.10260      0.00000     0.39591    0.00148     0.39740
      H   20    0.09488      0.00000     0.40358    0.00154     0.40512
      H   21    0.09751      0.00000     0.40101    0.00148     0.40249
      H   22    0.07936      0.00000     0.41899    0.00165     0.42064
      H   23    0.09479      0.00000     0.40384    0.00137     0.40521
      H   24    0.10712      0.00000     0.39139    0.00149     0.39288
      H   25    0.10744      0.00000     0.39095    0.00161     0.39256
      H   26    0.09509      0.00000     0.40370    0.00121     0.40491
      H   27    0.09453      0.00000     0.40428    0.00119     0.40547
      H   28    0.08467      0.00000     0.41396    0.00137     0.41533
      H   29    0.07704      0.00000     0.42147    0.00149     0.42296
      H   30    0.22945      0.00000     0.26745    0.00310     0.27055
 =======================================================================
   * Total *    0.00000     11.99551    34.83739    0.16709    47.00000

 Normal termination of Gaussian 16 at Wed Dec  9 17:28:59 2020.
