 Gaussian 16, Revision A.03,

 -----------------------------------------------------------
 # opt freq B3LYP/6-31G(d) empiricaldispersion=gd3bj scf=xqc
 -----------------------------------------------------------

 -------------------------------
 CID_153796797_JID_9833_neutraal
 -------------------------------
 Symbolic Z-matrix:
 Charge =  0 Multiplicity = 1

 SCF Done:  E(RB3LYP) =  -1297.73700794     A.U. after   14 cycles
 SCF Done:  E(RB3LYP) =  -1297.74446034     A.U. after   12 cycles
 SCF Done:  E(RB3LYP) =  -1297.74635187     A.U. after   12 cycles
 SCF Done:  E(RB3LYP) =  -1297.74741978     A.U. after   12 cycles
 SCF Done:  E(RB3LYP) =  -1297.74809633     A.U. after   12 cycles
 SCF Done:  E(RB3LYP) =  -1297.74871194     A.U. after   12 cycles
 SCF Done:  E(RB3LYP) =  -1297.74907593     A.U. after   12 cycles
 SCF Done:  E(RB3LYP) =  -1297.74937623     A.U. after   12 cycles
 SCF Done:  E(RB3LYP) =  -1297.74962614     A.U. after   12 cycles
 SCF Done:  E(RB3LYP) =  -1297.74981536     A.U. after   11 cycles
 SCF Done:  E(RB3LYP) =  -1297.75010578     A.U. after    8 cycles
 SCF Done:  E(RB3LYP) =  -1297.75010599     A.U. after    7 cycles
 SCF Done:  E(RB3LYP) =  -1297.75010619     A.U. after    7 cycles
 SCF Done:  E(RB3LYP) =  -1297.75010621     A.U. after    6 cycles
 SCF Done:  E(RB3LYP) =  -1297.75010624     A.U. after    7 cycles
 Optimization completed.
    -- Stationary point found.
 Normal termination of Gaussian 16 at Sat Dec 12 10:21:32 2020.

 --------------------------------------------------------------------
 #N Geom=AllCheck Guess=TCheck SCRF=Check GenChk RB3LYP/6-31G(d) Freq
 --------------------------------------------------------------------

 Structure from the checkpoint file:  "JID_9833.chk"
 -------------------------------
 CID_153796797_JID_9833_neutraal
 -------------------------------
 Charge =  0 Multiplicity = 1

 SCF Done:  E(RB3LYP) =  -1297.75010624     A.U. after    1 cycles

  Exact polarizability: 201.464   4.078 172.741  10.372  -8.986 127.072
 Approx polarizability: 290.640   8.702 266.786  15.702 -26.014 184.233

                      1                      2                      3
                      A                      A                      A
 Frequencies --     20.1751                39.2460                45.1055
 Red. masses --      4.5900                 2.7324                 4.4802
 Frc consts  --      0.0011                 0.0025                 0.0054
 IR Inten    --      0.9618                 3.7891                 0.0423

                      4                      5                      6
                      A                      A                      A
 Frequencies --     54.1573                69.6970                80.2465
 Red. masses --      5.8790                 3.2705                 2.9108
 Frc consts  --      0.0102                 0.0094                 0.0110
 IR Inten    --      6.3352                 1.8369                 4.3203

                      7                      8                      9
                      A                      A                      A
 Frequencies --     95.5518               113.8865               132.7249
 Red. masses --      2.8947                 3.7882                 3.1403
 Frc consts  --      0.0156                 0.0289                 0.0326
 IR Inten    --      0.3626                 4.5380                 0.1244

                     10                     11                     12
                      A                      A                      A
 Frequencies --    152.5666               165.8544               168.9049
 Red. masses --      1.3818                 1.2185                 1.9718
 Frc consts  --      0.0190                 0.0197                 0.0331
 IR Inten    --      0.1028                 3.6050                 8.5370

                     13                     14                     15
                      A                      A                      A
 Frequencies --    178.7888               187.8390               208.6500
 Red. masses --      1.9132                 2.0193                 1.9699
 Frc consts  --      0.0360                 0.0420                 0.0505
 IR Inten    --      9.7011                16.2477                 2.6345

                     16                     17                     18
                      A                      A                      A
 Frequencies --    215.9429               234.1514               255.2032
 Red. masses --      1.7874                 3.5317                 1.9410
 Frc consts  --      0.0491                 0.1141                 0.0745
 IR Inten    --      2.6195                10.1657                 1.8400

                     19                     20                     21
                      A                      A                      A
 Frequencies --    275.9050               282.6781               293.1561
 Red. masses --      3.1128                 2.7400                 2.0850
 Frc consts  --      0.1396                 0.1290                 0.1056
 IR Inten    --     15.2710                 8.3677                 2.8362

                     22                     23                     24
                      A                      A                      A
 Frequencies --    301.9390               317.9800               336.4857
 Red. masses --      3.7004                 4.3448                 4.4486
 Frc consts  --      0.1988                 0.2588                 0.2968
 IR Inten    --      4.7989                 4.7142                 2.8983

                     25                     26                     27
                      A                      A                      A
 Frequencies --    375.0763               394.2859               441.4552
 Red. masses --      4.3164                 4.3245                 5.1892
 Frc consts  --      0.3578                 0.3961                 0.5958
 IR Inten    --      3.8226                 2.7271                 8.3736

                     28                     29                     30
                      A                      A                      A
 Frequencies --    456.6853               462.6963               521.6547
 Red. masses --      7.7477                 4.2899                 5.7567
 Frc consts  --      0.9520                 0.5411                 0.9230
 IR Inten    --     15.3874                 6.8287                 3.0184

                     31                     32                     33
                      A                      A                      A
 Frequencies --    537.1372               541.1758               591.3931
 Red. masses --      4.7886                 5.4236                 4.8276
 Frc consts  --      0.8140                 0.9359                 0.9948
 IR Inten    --     19.2091                50.6680                 8.6376

                     34                     35                     36
                      A                      A                      A
 Frequencies --    634.7916               649.9449               675.7517
 Red. masses --      4.0255                 5.1548                 3.5479
 Frc consts  --      0.9557                 1.2830                 0.9545
 IR Inten    --      3.5464                18.5113               125.4109

                     37                     38                     39
                      A                      A                      A
 Frequencies --    695.2937               750.6371               759.9702
 Red. masses --      3.3464                 5.0951                 2.2606
 Frc consts  --      0.9531                 1.6915                 0.7692
 IR Inten    --      2.9872                 2.8519                38.1660

                     40                     41                     42
                      A                      A                      A
 Frequencies --    785.2712               831.7716               841.0286
 Red. masses --      3.7765                 1.4651                 1.5032
 Frc consts  --      1.3721                 0.5972                 0.6264
 IR Inten    --     14.3658                 8.4774                 2.9690

                     43                     44                     45
                      A                      A                      A
 Frequencies --    873.2341               895.7403               926.1828
 Red. masses --      1.4398                 2.1937                 2.7777
 Frc consts  --      0.6469                 1.0370                 1.4039
 IR Inten    --      4.2018                95.2550                20.4023

                     46                     47                     48
                      A                      A                      A
 Frequencies --    961.8639               986.6577              1045.8521
 Red. masses --      5.8864                 2.7248                 6.8258
 Frc consts  --      3.2087                 1.5629                 4.3989
 IR Inten    --     21.4042                 0.1901                61.1631

                     49                     50                     51
                      A                      A                      A
 Frequencies --   1058.1989              1078.2398              1097.2393
 Red. masses --      2.9516                 3.7195                 1.7597
 Frc consts  --      1.9474                 2.5478                 1.2482
 IR Inten    --     28.9028                41.8679                44.3364

                     52                     53                     54
                      A                      A                      A
 Frequencies --   1117.2298              1122.3056              1137.9215
 Red. masses --      1.9233                 2.2454                 2.6691
 Frc consts  --      1.4144                 1.6663                 2.0363
 IR Inten    --     73.4961                63.0993                21.7591

                     55                     56                     57
                      A                      A                      A
 Frequencies --   1157.7756              1181.8484              1184.7809
 Red. masses --      3.6267                 1.2605                 1.2550
 Frc consts  --      2.8642                 1.0374                 1.0379
 IR Inten    --    268.4125                 2.5995                 3.6654

                     58                     59                     60
                      A                      A                      A
 Frequencies --   1186.8109              1190.6982              1218.0872
 Red. masses --      1.2732                 2.1031                 1.4295
 Frc consts  --      1.0566                 1.7568                 1.2496
 IR Inten    --      0.7693                32.0761                 6.4137

                     61                     62                     63
                      A                      A                      A
 Frequencies --   1224.0710              1232.7966              1262.1307
 Red. masses --      1.4018                 1.5020                 1.4024
 Frc consts  --      1.2375                 1.3450                 1.3163
 IR Inten    --      3.9574                39.8534                46.9768

                     64                     65                     66
                      A                      A                      A
 Frequencies --   1271.8374              1276.5272              1291.1022
 Red. masses --      2.9225                 1.4037                 1.5515
 Frc consts  --      2.7852                 1.3477                 1.5238
 IR Inten    --     86.1992                22.8163                27.7127

                     67                     68                     69
                      A                      A                      A
 Frequencies --   1332.4673              1339.4367              1373.2581
 Red. masses --      8.2282                 2.8928                 1.8702
 Frc consts  --      8.6073                 3.0578                 2.0780
 IR Inten    --    242.2396                 6.4655                 6.0897

                     70                     71                     72
                      A                      A                      A
 Frequencies --   1387.9862              1393.5928              1441.8251
 Red. masses --      3.2309                 1.6485                 1.2350
 Frc consts  --      3.6673                 1.8863                 1.5126
 IR Inten    --    121.6551                14.2546                 2.7627

                     73                     74                     75
                      A                      A                      A
 Frequencies --   1467.6587              1485.9588              1504.1420
 Red. masses --      1.7890                 1.2786                 1.2846
 Frc consts  --      2.2705                 1.6634                 1.7123
 IR Inten    --    101.5619                29.3082                 5.2975

                     76                     77                     78
                      A                      A                      A
 Frequencies --   1511.2138              1514.6751              1519.1018
 Red. masses --      1.4215                 1.1111                 1.0976
 Frc consts  --      1.9127                 1.5019                 1.4923
 IR Inten    --     16.1995                16.5787                 0.5322

                     79                     80                     81
                      A                      A                      A
 Frequencies --   1521.6692              1527.4215              1531.4275
 Red. masses --      1.0477                 1.0440                 1.0657
 Frc consts  --      1.4293                 1.4351                 1.4726
 IR Inten    --      6.0351                 6.9241                 2.9105

                     82                     83                     84
                      A                      A                      A
 Frequencies --   1531.9317              1534.7718              1543.1484
 Red. masses --      1.0532                 1.1250                 1.1178
 Frc consts  --      1.4563                 1.5613                 1.5683
 IR Inten    --      2.3641                52.4486                11.6644

                     85                     86                     87
                      A                      A                      A
 Frequencies --   1543.9896              1552.0628              1615.7056
 Red. masses --      1.0818                 2.3591                 1.0989
 Frc consts  --      1.5194                 3.3483                 1.6902
 IR Inten    --      0.7472                86.2696                53.7390

                     88                     89                     90
                      A                      A                      A
 Frequencies --   1639.8465              1655.2354              3031.9972
 Red. masses --      7.1683                 5.9356                 1.0343
 Frc consts  --     11.3573                 9.5815                 5.6022
 IR Inten    --    114.2820                25.8404                49.4777

                     91                     92                     93
                      A                      A                      A
 Frequencies --   3038.0457              3042.1708              3053.3547
 Red. masses --      1.0397                 1.0317                 1.0370
 Frc consts  --      5.6537                 5.6258                 5.6963
 IR Inten    --     68.5212                50.6198                26.2177

                     94                     95                     96
                      A                      A                      A
 Frequencies --   3068.3425              3082.9795              3093.9910
 Red. masses --      1.0827                 1.0622                 1.1069
 Frc consts  --      6.0059                 5.9486                 6.2428
 IR Inten    --      3.3601                 7.2725                33.4057

                     97                     98                     99
                      A                      A                      A
 Frequencies --   3112.2630              3112.5294              3122.7283
 Red. masses --      1.1063                 1.1000                 1.0941
 Frc consts  --      6.3137                 6.2789                 6.2859
 IR Inten    --     27.3855                 9.9728                34.2091

                    100                    101                    102
                      A                      A                      A
 Frequencies --   3125.8970              3138.3698              3154.6202
 Red. masses --      1.1032                 1.1029                 1.1037
 Frc consts  --      6.3512                 6.4002                 6.4715
 IR Inten    --     22.2126                37.1696                33.6399

                    103                    104                    105
                      A                      A                      A
 Frequencies --   3160.1301              3163.7350              3236.4005
 Red. masses --      1.1071                 1.1006                 1.0897
 Frc consts  --      6.5141                 6.4906                 6.7246
 IR Inten    --     21.1723                25.1182                 3.2655

                    106                    107                    108
                      A                      A                      A
 Frequencies --   3237.8132              3497.2431              3609.6518
 Red. masses --      1.0905                 1.0467                 1.0980
 Frc consts  --      6.7355                 7.5426                 8.4294
 IR Inten    --      0.7516                31.2129                29.8919

 - Thermochemistry -
 -------------------
 Temperature   298.150 Kelvin.  Pressure   1.00000 Atm.
 Atom     1 has atomic number  6 and mass  12.00000

 Molecular mass:   289.09839 amu.
 Principal axes and moments of inertia in atomic units:
                           1         2         3
     Eigenvalues --  3741.836467943.298369247.19429
           X            0.99971   0.01624   0.01782
           Y           -0.01638   0.99984   0.00781
           Z           -0.01769  -0.00810   0.99981
 This molecule is an asymmetric top.
 Rotational symmetry number  1.
 Warning -- assumption of classical behavior for rotation
           may cause significant error
 Rotational temperatures (Kelvin)      0.02315     0.01090     0.00937
 Rotational constants (GHZ):           0.48231     0.22720     0.19517
 Zero-point vibrational energy     817664.2 (Joules/Mol)
                                  195.42643 (Kcal/Mol)
 Warning -- explicit consideration of  33 degrees of freedom as
           vibrations may cause significant error
 Vibrational temperatures:     29.03    56.47    64.90    77.92   100.28
          (Kelvin)            115.46   137.48   163.86   190.96   219.51
                              238.63   243.02   257.24   270.26   300.20
                              310.69   336.89   367.18   396.97   406.71
                              421.79   434.42   457.50   484.13   539.65
                              567.29   635.16   657.07   665.72   750.54
                              772.82   778.63   850.88   913.32   935.13
                              972.26  1000.37  1080.00  1093.43  1129.83
                             1196.73  1210.05  1256.39  1288.77  1332.57
                             1383.91  1419.58  1504.75  1522.51  1551.35
                             1578.68  1607.44  1614.75  1637.22  1665.78
                             1700.42  1704.64  1707.56  1713.15  1752.56
                             1761.17  1773.72  1815.92  1829.89  1836.64
                             1857.61  1917.12  1927.15  1975.81  1997.00
                             2005.07  2074.46  2111.63  2137.96  2164.12
                             2174.30  2179.28  2185.65  2189.34  2197.62
                             2203.38  2204.11  2208.19  2220.25  2221.46
                             2233.07  2324.64  2359.37  2381.51  4362.37
                             4371.07  4377.01  4393.10  4414.66  4435.72
                             4451.56  4477.85  4478.24  4492.91  4497.47
                             4515.41  4538.79  4546.72  4551.91  4656.46
                             4658.49  5031.75  5193.48

 Zero-point correction=                           0.311432 (Hartree/Particle)
 Thermal correction to Energy=                    0.332861
 Thermal correction to Enthalpy=                  0.333805
 Thermal correction to Gibbs Free Energy=         0.260015
 Sum of electronic and zero-point Energies=          -1297.438674
 Sum of electronic and thermal Energies=             -1297.417245
 Sum of electronic and thermal Enthalpies=           -1297.416301
 Sum of electronic and thermal Free Energies=        -1297.490091

                     E (Thermal)             CV                S
                      KCal/Mol        Cal/Mol-Kelvin    Cal/Mol-Kelvin
 Total                  208.874             77.220            155.305
 Electronic               0.000              0.000              0.000
 Translational            0.889              2.981             42.882
 Rotational               0.889              2.981             33.974
 Vibrational            207.096             71.258             78.449
 Vibration     1          0.593              1.986              6.617
 Vibration     2          0.594              1.981              5.297
 Vibration     3          0.595              1.979              5.021
 Vibration     4          0.596              1.976              4.660
 Vibration     5          0.598              1.969              4.162
 Vibration     6          0.600              1.963              3.885
 Vibration     7          0.603              1.952              3.543
 Vibration     8          0.607              1.938              3.202
 Vibration     9          0.613              1.921              2.906
 Vibration    10          0.619              1.900              2.640
 Vibration    11          0.624              1.884              2.482
 Vibration    12          0.625              1.881              2.448
 Vibration    13          0.629              1.868              2.341
 Vibration    14          0.633              1.857              2.249
 Vibration    15          0.642              1.827              2.055
 Vibration    16          0.645              1.817              1.993
 Vibration    17          0.654              1.789              1.847
 Vibration    18          0.666              1.754              1.694
 Vibration    19          0.678              1.718              1.559
 Vibration    20          0.682              1.706              1.517
 Vibration    21          0.688              1.686              1.456
 Vibration    22          0.694              1.670              1.406
 Vibration    23          0.704              1.639              1.320
 Vibration    24          0.717              1.603              1.229
 Vibration    25          0.746              1.523              1.059
 Vibration    26          0.761              1.482              0.984
 Vibration    27          0.801              1.380              0.822
 Vibration    28          0.815              1.346              0.776
 Vibration    29          0.820              1.333              0.758
 Vibration    30          0.877              1.202              0.606
 Vibration    31          0.892              1.168              0.571
 Vibration    32          0.896              1.159              0.563
 Vibration    33          0.949              1.050              0.465

                           ! Non-Optimized Parameters !
 Normal termination of Gaussian 16 at Sat Dec 12 10:43:06 2020.

 ----------------------------------------------------------------------
 # B3LYP/6-311++G(d,p) empiricaldispersion=gd3bj scf=xqc pop=npa geom=c
 heck
 ----------------------------------------------------------------------

 ---------------------------------------
 CID_153796797_JID_9833_Energie_neutraal
 ---------------------------------------
 Structure from the checkpoint file:  "JID_9833.chk"
 Charge =  0 Multiplicity = 1

 SCF Done:  E(RB3LYP) =  -1298.04189066     A.U. after   16 cycles
 Normal termination of Gaussian 16 at Sat Dec 12 10:53:36 2020.

 ----------------------------------------------------------------------
 # B3LYP/6-311++G(d,p) empiricaldispersion=gd3bj scf=xqc pop=npa geom=c
 heck
 ----------------------------------------------------------------------

 -------------------------------------
 CID_153796797_JID_9833_Energie_kation
 -------------------------------------
 Structure from the checkpoint file:  "JID_9833.chk"
 Charge =  1 Multiplicity = 2

 SCF Done:  E(UB3LYP) =  -1297.74534816     A.U. after   28 cycles
 Normal termination of Gaussian 16 at Sat Dec 12 11:20:32 2020.
 Gaussian 16:  ES64L-G16RevA.03 25-Dec-2016

 ----------------------------------------------------------------------
 # B3LYP/6-311++G(d,p) empiricaldispersion=gd3bj scf=xqc pop=npa geom=c
 heck
 ----------------------------------------------------------------------

 ------------------------------------
 CID_153796797_JID_9833_Energie_anion
 ------------------------------------
 Structure from the checkpoint file:  "JID_9833.chk"
 Charge = -1 Multiplicity = 2

                         Standard orientation:
 ---------------------------------------------------------------------
 Center     Atomic      Atomic             Coordinates (Angstroms)
 Number     Number       Type             X           Y           Z
 ---------------------------------------------------------------------
      1          6           0        2.106732    1.768825    2.581900
      2          6           0        2.658832    1.340142    1.219668
      3          6           0        2.011694    0.041935    0.727224
      4          6           0        0.519111    0.073781    0.499156
      5          6           0       -0.115003    1.206077   -0.013288
      6          6           0       -1.491685    1.190031   -0.251327
      7          6           0       -2.247272    0.045790    0.025865
      8          6           0       -1.604781   -1.100340    0.534850
      9          6           0       -0.230107   -1.077735    0.774272
     10          8           0       -2.410799   -2.177614    0.743354
     11          6           0       -1.801677   -3.377977    1.196102
     12          8           0       -3.603990    0.044527   -0.182578
     13          6           0       -3.992729   -0.540886   -1.428625
     14          8           0       -2.071227    2.298831   -0.816315
     15          6           0       -3.006653    2.988747    0.019076
     16         16           0        2.849961   -0.554670   -0.797036
     17          8           0        4.303113   -0.439468   -0.621447
     18          8           0        2.237384   -1.836459   -1.167685
     19          7           0        2.427038    0.645474   -1.922629
     20          1           0        1.031919    1.968084    2.532467
     21          1           0        2.607277    2.679259    2.927415
     22          1           0        2.269720    0.990216    3.336453
     23          1           0        2.504862    2.129407    0.477007
     24          1           0        3.738432    1.176557    1.283764
     25          1           0        2.251149   -0.767921    1.427120
     26          1           0        0.435236    2.106770   -0.255602
     27          1           0        0.279199   -1.958578    1.143773
     28          1           0       -1.043676   -3.734461    0.487348
     29          1           0       -1.339863   -3.244346    2.182734
     30          1           0       -2.607203   -4.109993    1.270277
     31          1           0       -3.551935    0.010090   -2.268237
     32          1           0       -3.692633   -1.593411   -1.474366
     33          1           0       -5.081506   -0.468668   -1.473673
     34          1           0       -3.854533    2.348273    0.275672
     35          1           0       -2.516117    3.339876    0.936450
     36          1           0       -3.349657    3.848911   -0.559907
     37          1           0        3.234540    0.816217   -2.518791
     38          1           0        1.621524    0.351237   -2.470800
 ---------------------------------------------------------------------

 SCF Done:  E(UB3LYP) =  -1298.03153213     A.U. after   33 cycles
 SCF Done:  E(UB3LYP) =  -1298.03241613     a.u. after   10 cycles

 The electronic state is 2-A.
 Alpha  occ. eigenvalues --  -88.96771 -19.07054 -19.05369 -19.05363 -19.02730
 Alpha  occ. eigenvalues --  -19.02515 -14.25000 -10.15077 -10.14139 -10.13764
 Alpha  occ. eigenvalues --  -10.13634 -10.13072 -10.12869 -10.12735 -10.10380
 Alpha  occ. eigenvalues --  -10.09145 -10.08567 -10.08223 -10.07689  -8.03039
 Alpha  occ. eigenvalues --   -5.99336  -5.99280  -5.99075  -1.02604  -0.99261
 Alpha  occ. eigenvalues --   -0.97544  -0.95701  -0.91731  -0.81903  -0.77807
 Alpha  occ. eigenvalues --   -0.73112  -0.67441  -0.67133  -0.63617  -0.62501
 Alpha  occ. eigenvalues --   -0.60806  -0.58658  -0.54516  -0.53151  -0.51187
 Alpha  occ. eigenvalues --   -0.49140  -0.45290  -0.44314  -0.43253  -0.42701
 Alpha  occ. eigenvalues --   -0.41292  -0.40551  -0.40391  -0.39244  -0.38354
 Alpha  occ. eigenvalues --   -0.37788  -0.36758  -0.36271  -0.35952  -0.35267
 Alpha  occ. eigenvalues --   -0.34622  -0.33651  -0.32603  -0.31152  -0.30142
 Alpha  occ. eigenvalues --   -0.29780  -0.29247  -0.27439  -0.27098  -0.27012
 Alpha  occ. eigenvalues --   -0.26249  -0.25744  -0.24892  -0.24067  -0.23535
 Alpha  occ. eigenvalues --   -0.22338  -0.21210  -0.20626  -0.20075  -0.18674
 Alpha  occ. eigenvalues --   -0.14883  -0.13803   0.03803
 Alpha virt. eigenvalues --    0.05383   0.05932   0.06181   0.06980   0.07383
 Alpha virt. eigenvalues --    0.07963   0.08866   0.08961   0.09109   0.09839
 Alpha virt. eigenvalues --    0.10046   0.10436   0.10653   0.11173   0.11417

  Beta  occ. eigenvalues --  -88.96766 -19.07048 -19.05370 -19.05364 -19.02722
  Beta  occ. eigenvalues --  -19.02503 -14.24939 -10.15079 -10.14110 -10.13753
  Beta  occ. eigenvalues --  -10.13599 -10.13058 -10.12844 -10.12709 -10.10365
  Beta  occ. eigenvalues --  -10.09136 -10.08549 -10.08220 -10.07665  -8.03033
  Beta  occ. eigenvalues --   -5.99327  -5.99276  -5.99072  -1.02582  -0.99250
  Beta  occ. eigenvalues --   -0.97531  -0.95692  -0.91711  -0.81798  -0.77774
  Beta  occ. eigenvalues --   -0.73081  -0.67411  -0.67093  -0.63572  -0.62455
  Beta  occ. eigenvalues --   -0.60764  -0.58615  -0.54458  -0.53115  -0.51137
  Beta  occ. eigenvalues --   -0.49092  -0.45261  -0.44251  -0.43229  -0.42666
  Beta  occ. eigenvalues --   -0.41262  -0.40521  -0.40369  -0.39210  -0.38331
  Beta  occ. eigenvalues --   -0.37753  -0.36728  -0.36247  -0.35925  -0.35243
  Beta  occ. eigenvalues --   -0.34597  -0.33618  -0.32574  -0.31119  -0.30114
  Beta  occ. eigenvalues --   -0.29747  -0.29205  -0.27411  -0.27072  -0.26977
  Beta  occ. eigenvalues --   -0.26219  -0.25719  -0.24867  -0.24030  -0.23506
  Beta  occ. eigenvalues --   -0.22306  -0.21190  -0.20602  -0.20022  -0.18658
  Beta  occ. eigenvalues --   -0.14791  -0.13759
  Beta virt. eigenvalues --    0.05706   0.05914   0.06584   0.06763   0.07417
  Beta virt. eigenvalues --    0.07693   0.08418   0.09061   0.09197   0.09269
  Beta virt. eigenvalues --    0.10137   0.10239   0.10685   0.10811   0.11386

 Mulliken charges and spin densities:
               1          2
     1  C    0.054536  -0.759947
     2  C   -0.941752   0.801624
     3  C   -0.404619   0.118526
     4  C    0.845219   0.208772
     5  C   -0.871636   0.417133
     6  C    1.072566  -1.016903
     7  C    0.384480  -0.480543
     8  C   -1.903354   0.543516
     9  C    0.242344  -0.008198
    10  O   -0.201966   0.040443
    11  C    0.486085  -0.845830
    12  O   -0.152719   0.017957
    13  C    0.291660  -0.584165
    14  O   -0.119567   0.019429
    15  C    0.309187  -0.541769
    16  S    1.339608  -1.148905
    17  O   -0.208596   0.022173
    18  O   -0.137682   0.005484
    19  N   -0.554919   0.077430
    20  H    0.119227   0.030730
    21  H   -0.187174   0.317739
    22  H   -0.129466   0.274556
    23  H    0.083854   0.085929
    24  H    0.060991   0.131802
    25  H   -0.072915   0.374937
    26  H    0.138284   0.095785
    27  H    0.380922  -0.159846
    28  H   -0.023576   0.198076
    29  H   -0.327890   0.487727
    30  H   -0.272772   0.443923
    31  H   -0.047566   0.212120
    32  H    0.028022   0.143604
    33  H   -0.053216   0.199615
    34  H    0.059167   0.116320
    35  H   -0.101023   0.226952
    36  H   -0.072954   0.222544
    37  H   -0.088599   0.411683
    38  H   -0.022190   0.299577
 Sum of Mulliken charges =  -1.00000   1.00000

 Dipole moment (field-independent basis, Debye):
    X=             -1.4135    Y=              1.4242    Z=              0.0748  Tot=              2.0080
 Quadrupole moment (field-independent basis, Debye-Ang):
   XX=           -195.7102   YY=           -171.6784   ZZ=           -165.0547
   XY=              0.9258   XZ=              3.8385   YZ=              3.2829

 Summary of Natural Population Analysis:

                                       Natural Population
                Natural  -----------------------------------------------
    Atom  No    Charge         Core      Valence    Rydberg      Total
 -----------------------------------------------------------------------
      C    1   -0.28429      0.99966     2.28000    0.00463     3.28429
      C    2   -0.20111      0.99961     2.19306    0.00844     3.20111
      C    3   -0.19255      0.99950     2.17526    0.01779     3.19255
      C    4   -0.02739      0.99950     2.01462    0.01326     3.02739
      C    5   -0.12565      0.99946     2.11704    0.00915     3.12565
      C    6    0.14983      0.99933     1.83693    0.01390     2.85017
      C    7    0.11820      0.99930     1.86897    0.01353     2.88180
      C    8    0.15333      0.99936     1.83491    0.01240     2.84667
      C    9   -0.13166      0.99948     2.12260    0.00958     3.13166
      O   10   -0.26930      0.99986     3.25925    0.01020     4.26930
      C   11   -0.09972      0.99960     2.09207    0.00806     3.09972
      O   12   -0.28874      0.99986     3.27845    0.01042     4.28874
      C   13   -0.09483      0.99959     2.08730    0.00794     3.09483
      O   14   -0.28801      0.99986     3.27770    0.01044     4.28801
      C   15   -0.09670      0.99959     2.08926    0.00786     3.09670
      S   16    1.08689      4.99931     1.81571    0.09810     6.91311
      O   17   -0.46773      0.99991     3.46233    0.00550     4.46773
      O   18   -0.46101      0.99991     3.45557    0.00553     4.46101
      N   19   -0.51751      0.99978     3.00708    0.01065     4.01751
      H   20    0.10276      0.00000     0.39604    0.00120     0.39724
      H   21    0.10025      0.00000     0.39874    0.00102     0.39975
      H   22    0.09770      0.00000     0.40098    0.00132     0.40230
      H   23    0.10413      0.00000     0.39415    0.00172     0.39587
      H   24    0.11001      0.00000     0.38875    0.00123     0.38999
      H   25    0.11784      0.00000     0.38006    0.00210     0.38216
      H   26    0.11118      0.00000     0.38629    0.00253     0.38882
      H   27    0.11005      0.00000     0.38824    0.00170     0.38995
      H   28    0.08727      0.00000     0.41111    0.00162     0.41273
      H   29    0.08640      0.00000     0.41147    0.00212     0.41360
      H   30    0.09381      0.00000     0.40497    0.00122     0.40619
      H   31    0.08412      0.00000     0.41418    0.00171     0.41588
      H   32    0.08700      0.00000     0.41109    0.00191     0.41300
      H   33    0.08778      0.00000     0.41086    0.00136     0.41222
      H   34    0.09171      0.00000     0.40646    0.00183     0.40829
      H   35    0.08082      0.00000     0.41745    0.00173     0.41918
      H   36    0.08776      0.00000     0.41087    0.00137     0.41224
      H   37    0.19882      0.00000     0.29780    0.00337     0.30118
      H   38    0.19852      0.00000     0.29884    0.00264     0.30148
 =======================================================================
   * Total *   -0.00000     22.99247    53.69644    0.31109    77.00000

 Normal termination of Gaussian 16 at Sat Dec 12 16:29:34 2020.
