 Gaussian 16, Revision A.03,

 -----------------------------------------------------------
 # opt freq B3LYP/6-31G(d) empiricaldispersion=gd3bj scf=xqc
 -----------------------------------------------------------

 -------------------------------
 CID_152464300_JID_2645_neutraal
 -------------------------------
 Symbolic Z-matrix:
 Charge =  0 Multiplicity = 1

 SCF Done:  E(RB3LYP) =  -939.544092179     A.U. after   14 cycles
 SCF Done:  E(RB3LYP) =  -939.547383149     A.U. after   12 cycles
 SCF Done:  E(RB3LYP) =  -939.547076287     A.U. after   13 cycles
 SCF Done:  E(RB3LYP) =  -939.548108657     A.U. after   11 cycles
 SCF Done:  E(RB3LYP) =  -939.548106724     A.U. after   12 cycles
 SCF Done:  E(RB3LYP) =  -939.547935263     A.U. after   12 cycles
 SCF Done:  E(RB3LYP) =  -939.547712845     A.U. after   12 cycles
 SCF Done:  E(RB3LYP) =  -939.548327153     A.U. after   10 cycles
 SCF Done:  E(RB3LYP) =  -939.548745662     A.U. after   12 cycles
 SCF Done:  E(RB3LYP) =  -939.548918897     A.U. after   12 cycles
 SCF Done:  E(RB3LYP) =  -939.549056870     A.U. after    8 cycles
 SCF Done:  E(RB3LYP) =  -939.549057205     A.U. after    8 cycles
 SCF Done:  E(RB3LYP) =  -939.549057344     A.U. after    8 cycles
 SCF Done:  E(RB3LYP) =  -939.549057746     A.U. after    8 cycles
 SCF Done:  E(RB3LYP) =  -939.549058149     A.U. after    9 cycles
 Optimization completed.
    -- Stationary point found.
 Normal termination of Gaussian 16 at Wed Dec  9 18:03:20 2020.

 --------------------------------------------------------------------
 #N Geom=AllCheck Guess=TCheck SCRF=Check GenChk RB3LYP/6-31G(d) Freq
 --------------------------------------------------------------------

 Structure from the checkpoint file:  "JID_2645.chk"
 -------------------------------
 CID_152464300_JID_2645_neutraal
 -------------------------------
 Charge =  0 Multiplicity = 1

 SCF Done:  E(RB3LYP) =  -939.549058149     A.U. after    1 cycles

  Exact polarizability: 116.065   2.282 109.087  -1.477   0.284  99.257
 Approx polarizability: 157.529   1.303 154.123  -5.750  -2.597 156.692

                      1                      2                      3
                      A                      A                      A
 Frequencies --     28.9948                89.5052                98.5319
 Red. masses --      6.3328                 3.0831                 2.4742
 Frc consts  --      0.0031                 0.0146                 0.0142
 IR Inten    --      1.2376                 6.5884                14.7096

                      4                      5                      6
                      A                      A                      A
 Frequencies --    124.4926               140.8645               167.6744
 Red. masses --      1.9327                 3.0310                 2.9127
 Frc consts  --      0.0176                 0.0354                 0.0482
 IR Inten    --     64.4629                 4.5963                 1.1108

                      7                      8                      9
                      A                      A                      A
 Frequencies --    210.1445               220.5005               235.4829
 Red. masses --      2.1380                 2.0162                 1.5322
 Frc consts  --      0.0556                 0.0578                 0.0501
 IR Inten    --      8.8507                 0.3510                13.7774

                     10                     11                     12
                      A                      A                      A
 Frequencies --    246.8164               268.6773               287.6690
 Red. masses --      1.4853                 1.5362                 1.6286
 Frc consts  --      0.0533                 0.0653                 0.0794
 IR Inten    --      8.7848                 2.2787                 1.7930

                     13                     14                     15
                      A                      A                      A
 Frequencies --    310.9048               337.7008               352.1939
 Red. masses --      1.9016                 1.1502                 2.4941
 Frc consts  --      0.1083                 0.0773                 0.1823
 IR Inten    --      0.4635                 0.8529                 0.4540

                     16                     17                     18
                      A                      A                      A
 Frequencies --    357.8454               385.8957               389.1691
 Red. masses --      2.3323                 2.2974                 2.5293
 Frc consts  --      0.1760                 0.2016                 0.2257
 IR Inten    --      0.7844                 5.2688                 0.3373

                     19                     20                     21
                      A                      A                      A
 Frequencies --    404.5212               452.9793               464.7614
 Red. masses --      3.5080                 2.4783                 5.6555
 Frc consts  --      0.3382                 0.2996                 0.7197
 IR Inten    --     12.5037                 1.2476                15.3674

                     22                     23                     24
                      A                      A                      A
 Frequencies --    491.8836               509.0958               636.3193
 Red. masses --      3.9687                 2.8985                 3.5470
 Frc consts  --      0.5657                 0.4426                 0.8462
 IR Inten    --     33.0367                10.3584                35.6996

                     25                     26                     27
                      A                      A                      A
 Frequencies --    664.0377               722.2427               791.9143
 Red. masses --      4.2539                 3.2254                 4.1960
 Frc consts  --      1.1052                 0.9913                 1.5504
 IR Inten    --     12.6588                26.6627               138.6571

                     28                     29                     30
                      A                      A                      A
 Frequencies --    812.0312               852.0907               877.9315
 Red. masses --      1.7757                 1.8574                 2.0882
 Frc consts  --      0.6899                 0.7946                 0.9483
 IR Inten    --      7.3843                 1.2597                23.0598

                     31                     32                     33
                      A                      A                      A
 Frequencies --    942.7503               955.0603               975.4646
 Red. masses --      1.7938                 1.7236                 1.6839
 Frc consts  --      0.9393                 0.9263                 0.9440
 IR Inten    --      5.6241                 1.0279                 8.5972

                     34                     35                     36
                      A                      A                      A
 Frequencies --    980.2700              1012.9336              1050.1834
 Red. masses --      1.2733                 1.8577                 1.5130
 Frc consts  --      0.7209                 1.1230                 0.9832
 IR Inten    --      1.1889                 2.6721                 0.7164

                     37                     38                     39
                      A                      A                      A
 Frequencies --   1059.6903              1077.9876              1116.0944
 Red. masses --      1.5314                 1.7744                 2.7384
 Frc consts  --      1.0132                 1.2148                 2.0098
 IR Inten    --      0.5873                 0.4329                43.3616

                     40                     41                     42
                      A                      A                      A
 Frequencies --   1128.0640              1155.5033              1184.2589
 Red. masses --      1.5699                 2.0016                 1.9563
 Frc consts  --      1.1770                 1.5746                 1.6165
 IR Inten    --      2.8909                 4.7402               180.7989

                     43                     44                     45
                      A                      A                      A
 Frequencies --   1229.7747              1249.2694              1265.1087
 Red. masses --      1.8599                 1.6088                 2.0268
 Frc consts  --      1.6573                 1.4793                 1.9112
 IR Inten    --      4.2688                19.4911                 6.9460

                     46                     47                     48
                      A                      A                      A
 Frequencies --   1286.8365              1304.3122              1334.2469
 Red. masses --      1.7604                 1.8674                 1.5613
 Frc consts  --      1.7176                 1.8718                 1.6376
 IR Inten    --      7.0283                30.1201                34.0535

                     49                     50                     51
                      A                      A                      A
 Frequencies --   1355.1442              1370.2782              1405.4114
 Red. masses --      1.4393                 2.4552                 1.2955
 Frc consts  --      1.5573                 2.7161                 1.5076
 IR Inten    --     30.9844               146.8142                 1.9512

                     52                     53                     54
                      A                      A                      A
 Frequencies --   1408.9956              1430.3292              1432.7415
 Red. masses --      1.4469                 1.2310                 1.2306
 Frc consts  --      1.6924                 1.4839                 1.4883
 IR Inten    --      0.8041                 5.0226                 5.2203

                     55                     56                     57
                      A                      A                      A
 Frequencies --   1443.4935              1464.6328              1481.5141
 Red. masses --      1.2440                 1.2237                 1.0789
 Frc consts  --      1.5273                 1.5466                 1.3953
 IR Inten    --      2.8035                 8.7180                17.3294

                     58                     59                     60
                      A                      A                      A
 Frequencies --   1512.8364              1519.1426              1525.4919
 Red. masses --      1.0567                 1.0497                 1.0441
 Frc consts  --      1.4249                 1.4272                 1.4315
 IR Inten    --      0.2221                 0.0645                 0.2520

                     61                     62                     63
                      A                      A                      A
 Frequencies --   1527.7592              1533.3848              1544.4348
 Red. masses --      1.0475                 1.0636                 1.0533
 Frc consts  --      1.4405                 1.4735                 1.4802
 IR Inten    --      2.6462                 6.1791                 3.0730

                     64                     65                     66
                      A                      A                      A
 Frequencies --   1546.7320              1548.7192              1559.9852
 Red. masses --      1.0475                 1.0591                 1.0545
 Frc consts  --      1.4765                 1.4966                 1.5120
 IR Inten    --      2.4464                 4.9973                 9.0010

                     67                     68                     69
                      A                      A                      A
 Frequencies --   2990.1708              3039.5548              3045.0790
 Red. masses --      1.0824                 1.0389                 1.0374
 Frc consts  --      5.7020                 5.6554                 5.6676
 IR Inten    --     15.8695                20.2626                30.2615

                     70                     71                     72
                      A                      A                      A
 Frequencies --   3047.6546              3058.4987              3071.5430
 Red. masses --      1.0397                 1.0416                 1.0644
 Frc consts  --      5.6896                 5.7406                 5.9165
 IR Inten    --     28.5496                16.0591                27.9968

                     73                     74                     75
                      A                      A                      A
 Frequencies --   3102.7876              3104.0366              3107.5732
 Red. masses --      1.0990                 1.0925                 1.0661
 Frc consts  --      6.2337                 6.2020                 6.0659
 IR Inten    --      6.0395                 8.6802                 4.5060

                     76                     77                     78
                      A                      A                      A
 Frequencies --   3110.4187              3111.8770              3119.6941
 Red. masses --      1.1002                 1.1002                 1.0992
 Frc consts  --      6.2711                 6.2770                 6.3033
 IR Inten    --     45.6090                13.0767                76.2015

                     79                     80                     81
                      A                      A                      A
 Frequencies --   3120.4702              3134.3612              3137.1254
 Red. masses --      1.0988                 1.1013                 1.1005
 Frc consts  --      6.3041                 6.3744                 6.3809
 IR Inten    --     24.1029                34.4933                25.9317

                     82                     83                     84
                      A                      A                      A
 Frequencies --   3156.0679              3169.1259              3701.7584
 Red. masses --      1.1038                 1.0982                 1.0660
 Frc consts  --      6.4779                 6.4983                 8.6064
 IR Inten    --      0.4876                 3.6180               101.6364

 - Thermochemistry -
 -------------------
 Temperature   298.150 Kelvin.  Pressure   1.00000 Atm.
 Atom     1 has atomic number  6 and mass  12.00000

 Molecular mass:   194.09767 amu.
 Principal axes and moments of inertia in atomic units:
                           1         2         3
     Eigenvalues --  1649.553672856.418793605.57306
           X            0.99949   0.03178   0.00202
           Y           -0.03178   0.99949   0.00217
           Z           -0.00195  -0.00223   1.00000
 This molecule is an asymmetric top.
 Rotational symmetry number  1.
 Warning -- assumption of classical behavior for rotation
           may cause significant error
 Rotational temperatures (Kelvin)      0.05251     0.03032     0.02402
 Rotational constants (GHZ):           1.09408     0.63182     0.50054
 Zero-point vibrational energy     688926.4 (Joules/Mol)
                                  164.65737 (Kcal/Mol)
 Warning -- explicit consideration of  23 degrees of freedom as
           vibrations may cause significant error
 Vibrational temperatures:     41.72   128.78   141.77   179.12   202.67
          (Kelvin)            241.25   302.35   317.25   338.81   355.11
                              386.57   413.89   447.32   485.88   506.73
                              514.86   555.22   559.93   582.02   651.74
                              668.69   707.71   732.48   915.52   955.40
                             1039.15  1139.39  1168.33  1225.97  1263.15
                             1356.41  1374.12  1403.48  1410.39  1457.39
                             1510.98  1524.66  1550.98  1605.81  1623.03
                             1662.51  1703.88  1769.37  1797.42  1820.21
                             1851.47  1876.61  1919.68  1949.75  1971.52
                             2022.07  2027.23  2057.92  2061.40  2076.87
                             2107.28  2131.57  2176.63  2185.71  2194.84
                             2198.10  2206.20  2222.10  2225.40  2228.26
                             2244.47  4302.19  4373.24  4381.19  4384.90
                             4400.50  4419.27  4464.22  4466.02  4471.10
                             4475.20  4477.30  4488.54  4489.66  4509.65
                             4513.62  4540.88  4559.67  5326.00

 Zero-point correction=                           0.262398 (Hartree/Particle)
 Thermal correction to Energy=                    0.277137
 Thermal correction to Enthalpy=                  0.278081
 Thermal correction to Gibbs Free Energy=         0.221668
 Sum of electronic and zero-point Energies=           -939.286660
 Sum of electronic and thermal Energies=              -939.271921
 Sum of electronic and thermal Enthalpies=            -939.270977
 Sum of electronic and thermal Free Energies=         -939.327390

                     E (Thermal)             CV                S
                      KCal/Mol        Cal/Mol-Kelvin    Cal/Mol-Kelvin
 Total                  173.906             55.655            118.732
 Electronic               0.000              0.000              0.000
 Translational            0.889              2.981             41.695
 Rotational               0.889              2.981             31.208
 Vibrational            172.129             49.693             45.829
 Vibration     1          0.593              1.984              5.897
 Vibration     2          0.602              1.957              3.671
 Vibration     3          0.604              1.950              3.483
 Vibration     4          0.610              1.928              3.029
 Vibration     5          0.615              1.912              2.792
 Vibration     6          0.624              1.882              2.461
 Vibration     7          0.642              1.825              2.042
 Vibration     8          0.647              1.810              1.955
 Vibration     9          0.655              1.786              1.837
 Vibration    10          0.661              1.768              1.753
 Vibration    11          0.673              1.731              1.605
 Vibration    12          0.685              1.697              1.488
 Vibration    13          0.700              1.653              1.358
 Vibration    14          0.718              1.600              1.223
 Vibration    15          0.729              1.571              1.156
 Vibration    16          0.733              1.559              1.131
 Vibration    17          0.755              1.500              1.016
 Vibration    18          0.757              1.493              1.003
 Vibration    19          0.770              1.460              0.946
 Vibration    20          0.812              1.354              0.787
 Vibration    21          0.822              1.328              0.752
 Vibration    22          0.848              1.268              0.679
 Vibration    23          0.864              1.230              0.636

                           ! Non-Optimized Parameters !
 Normal termination of Gaussian 16 at Wed Dec  9 18:12:51 2020.

 ----------------------------------------------------------------------
 # B3LYP/6-311++G(d,p) empiricaldispersion=gd3bj scf=xqc pop=npa geom=c
 heck
 ----------------------------------------------------------------------

 ---------------------------------------
 CID_152464300_JID_2645_Energie_neutraal
 ---------------------------------------
 Structure from the checkpoint file:  "JID_2645.chk"
 Charge =  0 Multiplicity = 1

 SCF Done:  E(RB3LYP) =  -939.741195418     A.U. after   15 cycles
 Normal termination of Gaussian 16 at Wed Dec  9 18:17:20 2020.

 ----------------------------------------------------------------------
 # B3LYP/6-311++G(d,p) empiricaldispersion=gd3bj scf=xqc pop=npa geom=c
 heck
 ----------------------------------------------------------------------

 -------------------------------------
 CID_152464300_JID_2645_Energie_kation
 -------------------------------------
 Structure from the checkpoint file:  "JID_2645.chk"
 Charge =  1 Multiplicity = 2

 SCF Done:  E(UB3LYP) =  -939.365455269     A.U. after   33 cycles
 SCF Done:  E(UB3LYP) =  -939.365455270     a.u. after    2 cycles
 Normal termination of Gaussian 16 at Wed Dec  9 18:36:25 2020.
 Gaussian 16:  ES64L-G16RevA.03 25-Dec-2016

 ----------------------------------------------------------------------
 # B3LYP/6-311++G(d,p) empiricaldispersion=gd3bj scf=xqc pop=npa geom=c
 heck
 ----------------------------------------------------------------------

 ------------------------------------
 CID_152464300_JID_2645_Energie_anion
 ------------------------------------
 Structure from the checkpoint file:  "JID_2645.chk"
 Charge = -1 Multiplicity = 2

                         Standard orientation:
 ---------------------------------------------------------------------
 Center     Atomic      Atomic             Coordinates (Angstroms)
 Number     Number       Type             X           Y           Z
 ---------------------------------------------------------------------
      1          6           0       -0.189367    3.027638   -0.221584
      2          6           0       -0.835594    1.786611    0.400603
      3          6           0       -0.903800    0.567238   -0.539465
      4          6           0        0.474720    0.147322   -1.090165
      5         16           0        1.804779   -0.472825   -0.030441
      6          8           0        1.367408   -1.524653    0.892418
      7          8           0        2.955392   -0.692859   -0.897144
      8          8           0        2.105161    0.859631    0.900394
      9          6           0       -1.847712   -0.574987   -0.014426
     10          6           0       -3.302083   -0.140237   -0.292872
     11          6           0       -1.599727   -1.892889   -0.769848
     12          6           0       -1.701313   -0.831489    1.497615
     13          1           0        0.882730    2.888998   -0.390064
     14          1           0       -0.301631    3.891946    0.441702
     15          1           0       -0.658932    3.282995   -1.180012
     16          1           0       -0.302923    1.524242    1.318963
     17          1           0       -1.858877    2.036815    0.700766
     18          1           0       -1.384301    0.925241   -1.464173
     19          1           0        0.381320   -0.653347   -1.827330
     20          1           0        0.949774    0.990563   -1.597868
     21          1           0        2.140642    0.542488    1.822495
     22          1           0       -3.484745   -0.032964   -1.369104
     23          1           0       -4.002558   -0.889503    0.092347
     24          1           0       -3.546312    0.813718    0.186924
     25          1           0       -0.623553   -2.322155   -0.527301
     26          1           0       -2.360761   -2.629713   -0.490192
     27          1           0       -1.665076   -1.754196   -1.856890
     28          1           0       -0.682356   -1.117960    1.762932
     29          1           0       -1.986829    0.046803    2.085686
     30          1           0       -2.366519   -1.650982    1.793689
 ---------------------------------------------------------------------

 SCF Done:  E(UB3LYP) =  -939.732448189     A.U. after   27 cycles

 The electronic state is 2-A.
 Alpha  occ. eigenvalues --  -88.97942 -19.07236 -19.02987 -19.02739 -10.11783
 Alpha  occ. eigenvalues --  -10.09214 -10.08937 -10.06523 -10.05887 -10.05846
 Alpha  occ. eigenvalues --  -10.05684 -10.04896  -8.04076  -6.00478  -6.00275
 Alpha  occ. eigenvalues --   -6.00079  -1.04957  -0.94079  -0.92141  -0.74761
 Alpha  occ. eigenvalues --   -0.69175  -0.65992  -0.58887  -0.58668  -0.58343
 Alpha  occ. eigenvalues --   -0.53791  -0.49393  -0.45549  -0.42938  -0.39932
 Alpha  occ. eigenvalues --   -0.38906  -0.38247  -0.36606  -0.35185  -0.34422
 Alpha  occ. eigenvalues --   -0.34309  -0.32024  -0.30544  -0.30148  -0.28996
 Alpha  occ. eigenvalues --   -0.27732  -0.27574  -0.26982  -0.26745  -0.25692
 Alpha  occ. eigenvalues --   -0.24700  -0.24122  -0.23652  -0.22787  -0.21800
 Alpha  occ. eigenvalues --   -0.21296  -0.20892  -0.20235   0.04187
 Alpha virt. eigenvalues --    0.06552   0.07474   0.07696   0.09166   0.09694
 Alpha virt. eigenvalues --    0.09793   0.10647   0.11137   0.12208   0.12416
 Alpha virt. eigenvalues --    0.12875   0.13266   0.13578   0.14385   0.14653

  Beta  occ. eigenvalues --  -88.97933 -19.07157 -19.02964 -19.02726 -10.11748
  Beta  occ. eigenvalues --  -10.09198 -10.08935 -10.06501 -10.05859 -10.05821
  Beta  occ. eigenvalues --  -10.05651 -10.04874  -8.04065  -6.00461  -6.00268
  Beta  occ. eigenvalues --   -6.00072  -1.04881  -0.93929  -0.92094  -0.74728
  Beta  occ. eigenvalues --   -0.69132  -0.65935  -0.58836  -0.58609  -0.58289
  Beta  occ. eigenvalues --   -0.53695  -0.49303  -0.45495  -0.42890  -0.39881
  Beta  occ. eigenvalues --   -0.38868  -0.38208  -0.36562  -0.35130  -0.34392
  Beta  occ. eigenvalues --   -0.34276  -0.31990  -0.30500  -0.30110  -0.28962
  Beta  occ. eigenvalues --   -0.27687  -0.27528  -0.26945  -0.26709  -0.25636
  Beta  occ. eigenvalues --   -0.24654  -0.24077  -0.23604  -0.22747  -0.21757
  Beta  occ. eigenvalues --   -0.21262  -0.20848  -0.20199
  Beta virt. eigenvalues --    0.06567   0.07786   0.08192   0.08396   0.09607
  Beta virt. eigenvalues --    0.10096   0.10195   0.11035   0.11502   0.12450
  Beta virt. eigenvalues --    0.12668   0.13133   0.13520   0.13932   0.14687

 Mulliken charges and spin densities:
               1          2
     1  C    1.297156  -2.050761
     2  C   -0.989800   0.935202
     3  C    1.776527  -1.497024
     4  C   -1.463208   0.394083
     5  S    0.959319  -0.824775
     6  O   -0.191452   0.002726
     7  O   -0.140072   0.060643
     8  O   -0.111691  -0.037761
     9  C   -0.789995   1.629672
    10  C    0.633909  -1.245422
    11  C    0.214024  -0.881270
    12  C   -0.234352  -0.574975
    13  H    0.037617   0.124211
    14  H   -0.274839   0.418549
    15  H   -0.230152   0.367359
    16  H   -0.144051   0.268405
    17  H    0.092394   0.065908
    18  H   -0.246070   0.476974
    19  H   -0.022079   0.265058
    20  H   -0.114497   0.392969
    21  H   -0.322609   0.621859
    22  H   -0.201209   0.339863
    23  H   -0.025524   0.168664
    24  H   -0.167322   0.296180
    25  H    0.040869   0.105668
    26  H    0.085558   0.059140
    27  H   -0.196741   0.345252
    28  H    0.031465   0.175536
    29  H   -0.255045   0.411939
    30  H   -0.048127   0.186125
 Sum of Mulliken charges =  -1.00000   1.00000

 Dipole moment (field-independent basis, Debye):
    X=             -0.3740    Y=             -1.8273    Z=             -0.4575  Tot=              1.9205
 Quadrupole moment (field-independent basis, Debye-Ang):
   XX=           -138.7810   YY=           -126.5322   ZZ=           -124.3373
   XY=              3.5085   XZ=             -4.0682   YZ=             -1.5472

 Summary of Natural Population Analysis:

                                       Natural Population
                Natural  -----------------------------------------------
    Atom  No    Charge         Core      Valence    Rydberg      Total
 -----------------------------------------------------------------------
      C    1   -0.28439      0.99966     2.28012    0.00460     3.28439
      C    2   -0.19370      0.99961     2.18478    0.00931     3.19370
      C    3   -0.11198      0.99954     2.09706    0.01538     3.11198
      C    4   -0.28912      0.99952     2.27602    0.01357     3.28912
      S    5    1.12137      4.99933     1.77997    0.09933     6.87863
      O    6   -0.46033      0.99990     3.45457    0.00586     4.46033
      O    7   -0.45236      0.99990     3.44698    0.00548     4.45236
      O    8   -0.43805      0.99992     3.43109    0.00704     4.43805
      C    9   -0.04356      0.99958     2.03083    0.01315     3.04356
      C   10   -0.28316      0.99962     2.27571    0.00782     3.28316
      C   11   -0.29117      0.99962     2.28378    0.00777     3.29117
      C   12   -0.29323      0.99961     2.28578    0.00784     3.29323
      H   13    0.09987      0.00000     0.39861    0.00152     0.40013
      H   14    0.10132      0.00000     0.39764    0.00104     0.39868
      H   15    0.09450      0.00000     0.40414    0.00136     0.40550
      H   16    0.10254      0.00000     0.39554    0.00192     0.39746
      H   17    0.09943      0.00000     0.39901    0.00157     0.40057
      H   18    0.10559      0.00000     0.39192    0.00249     0.39441
      H   19    0.12414      0.00000     0.37455    0.00131     0.37586
      H   20    0.12385      0.00000     0.37498    0.00117     0.37615
      H   21    0.25347      0.00000     0.23583    0.01069     0.24653
      H   22    0.09954      0.00000     0.39921    0.00125     0.40046
      H   23    0.09844      0.00000     0.40068    0.00088     0.40156
      H   24    0.10045      0.00000     0.39836    0.00119     0.39955
      H   25    0.10668      0.00000     0.39208    0.00124     0.39332
      H   26    0.10045      0.00000     0.39874    0.00081     0.39955
      H   27    0.09852      0.00000     0.40049    0.00100     0.40148
      H   28    0.11419      0.00000     0.38443    0.00138     0.38581
      H   29    0.09978      0.00000     0.39910    0.00112     0.40022
      H   30    0.09693      0.00000     0.40224    0.00083     0.40307
 =======================================================================
   * Total *   -0.00000     15.99583    36.77423    0.22994    53.00000

 Normal termination of Gaussian 16 at Wed Dec  9 18:44:17 2020.
