 Gaussian 16, Revision A.03,

 -----------------------------------------------------------
 # opt freq B3LYP/6-31G(d) empiricaldispersion=gd3bj scf=xqc
 -----------------------------------------------------------

 -------------------------------
 CID_142906611_JID_6385_neutraal
 -------------------------------
 Symbolic Z-matrix:
 Charge =  0 Multiplicity = 1

 SCF Done:  E(RB3LYP) =  -1015.35560553     A.U. after   15 cycles
 SCF Done:  E(RB3LYP) =  -1015.35966933     A.U. after   13 cycles
 SCF Done:  E(RB3LYP) =  -1015.36092486     A.U. after   13 cycles
 SCF Done:  E(RB3LYP) =  -1015.36207076     A.U. after   13 cycles
 SCF Done:  E(RB3LYP) =  -1015.36261645     A.U. after   12 cycles
 SCF Done:  E(RB3LYP) =  -1015.36291712     A.U. after   12 cycles
 SCF Done:  E(RB3LYP) =  -1015.36300636     A.U. after   11 cycles
 SCF Done:  E(RB3LYP) =  -1015.36302984     A.U. after   11 cycles
 SCF Done:  E(RB3LYP) =  -1015.36303553     A.U. after   10 cycles
 SCF Done:  E(RB3LYP) =  -1015.36303793     A.U. after    9 cycles
 SCF Done:  E(RB3LYP) =  -1015.36303868     A.U. after    9 cycles
 SCF Done:  E(RB3LYP) =  -1015.36303894     A.U. after    8 cycles
 SCF Done:  E(RB3LYP) =  -1015.36303897     A.U. after    7 cycles
 Optimization completed.
    -- Stationary point found.
 Normal termination of Gaussian 16 at Thu Dec 10 22:31:13 2020.

 --------------------------------------------------------------------
 #N Geom=AllCheck Guess=TCheck SCRF=Check GenChk RB3LYP/6-31G(d) Freq
 --------------------------------------------------------------------

 Structure from the checkpoint file:  "JID_6385.chk"
 -------------------------------
 CID_142906611_JID_6385_neutraal
 -------------------------------
 Charge =  0 Multiplicity = 1

 SCF Done:  E(RB3LYP) =  -1015.36303897     A.U. after    1 cycles

  Exact polarizability: 208.554  15.085 203.520  -4.342  -1.887  91.488
 Approx polarizability: 293.921  42.134 358.347 -12.358   6.509 151.663

                      1                      2                      3
                      A                      A                      A
 Frequencies --     37.0997                53.2488                60.8218
 Red. masses --      4.4083                 3.1304                 4.3019
 Frc consts  --      0.0036                 0.0052                 0.0094
 IR Inten    --      0.7227                 4.2259                 0.3578

                      4                      5                      6
                      A                      A                      A
 Frequencies --     93.5297               118.0604               153.6248
 Red. masses --      3.9471                 2.9710                 1.6158
 Frc consts  --      0.0203                 0.0244                 0.0225
 IR Inten    --      0.7531                 0.3897                 1.4916

                      7                      8                      9
                      A                      A                      A
 Frequencies --    161.4336               194.0642               227.0956
 Red. masses --      1.9660                 2.6247                 3.7500
 Frc consts  --      0.0302                 0.0582                 0.1139
 IR Inten    --      2.1015                 2.5300                 0.4251

                     10                     11                     12
                      A                      A                      A
 Frequencies --    242.3085               259.4621               283.2180
 Red. masses --      4.0601                 5.2580                 4.9829
 Frc consts  --      0.1405                 0.2086                 0.2355
 IR Inten    --      1.1700                 1.9732                 1.6765

                     13                     14                     15
                      A                      A                      A
 Frequencies --    315.1660               321.2914               388.6716
 Red. masses --      5.4824                 2.5468                 4.9003
 Frc consts  --      0.3208                 0.1549                 0.4362
 IR Inten    --      3.1336                 1.4853                 1.7875

                     16                     17                     18
                      A                      A                      A
 Frequencies --    431.6179               443.6470               469.0718
 Red. masses --      3.1625                 3.4731                 3.0936
 Frc consts  --      0.3471                 0.4028                 0.4010
 IR Inten    --      0.2443                 0.2530                 8.2726

                     19                     20                     21
                      A                      A                      A
 Frequencies --    513.7692               534.1345               545.3082
 Red. masses --      3.5310                 4.5416                 4.2792
 Frc consts  --      0.5491                 0.7634                 0.7497
 IR Inten    --      1.3066                 3.8617                 1.0589

                     22                     23                     24
                      A                      A                      A
 Frequencies --    579.6923               615.3099               661.2667
 Red. masses --      3.5037                 3.7077                 3.4382
 Frc consts  --      0.6937                 0.8271                 0.8858
 IR Inten    --      1.6252                19.5395                13.4365

                     25                     26                     27
                      A                      A                      A
 Frequencies --    694.3262               711.4082               725.5328
 Red. masses --      4.4789                 5.5467                 3.2370
 Frc consts  --      1.2722                 1.6540                 1.0039
 IR Inten    --      3.3453                 1.3766                 4.4846

                     28                     29                     30
                      A                      A                      A
 Frequencies --    753.8766               776.4370               820.0322
 Red. masses --      1.9656                 1.9818                 3.4511
 Frc consts  --      0.6582                 0.7039                 1.3673
 IR Inten    --     25.6703                18.3148                 5.1464

                     31                     32                     33
                      A                      A                      A
 Frequencies --    835.8797               887.5473               913.7627
 Red. masses --      4.8510                 1.4141                 2.3517
 Frc consts  --      1.9970                 0.6563                 1.1569
 IR Inten    --      4.0125                 0.5487                39.0791

                     34                     35                     36
                      A                      A                      A
 Frequencies --    940.8044               944.4044               969.7665
 Red. masses --      2.1559                 1.3801                 1.3827
 Frc consts  --      1.1243                 0.7252                 0.7661
 IR Inten    --      3.5683                28.5747                 1.6849

                     37                     38                     39
                      A                      A                      A
 Frequencies --    984.8204               993.0427               996.1096
 Red. masses --      1.2635                 2.2898                 1.3228
 Frc consts  --      0.7220                 1.3304                 0.7733
 IR Inten    --      5.8716                11.7078                 0.1297

                     40                     41                     42
                      A                      A                      A
 Frequencies --   1005.9423              1034.5100              1054.0423
 Red. masses --      1.3786                 1.1204                 2.6144
 Frc consts  --      0.8219                 0.7065                 1.7113
 IR Inten    --     10.6254                14.5269                12.7355

                     43                     44                     45
                      A                      A                      A
 Frequencies --   1074.0377              1090.9519              1108.7349
 Red. masses --      2.1268                 2.3953                 2.6942
 Frc consts  --      1.4455                 1.6797                 1.9513
 IR Inten    --     10.6135                 1.7367                 7.1631

                     46                     47                     48
                      A                      A                      A
 Frequencies --   1136.7267              1199.2556              1203.7204
 Red. masses --      2.1195                 1.0913                 1.4114
 Frc consts  --      1.6136                 0.9248                 1.2049
 IR Inten    --     11.5437                 1.8241                 9.7452

                     49                     50                     51
                      A                      A                      A
 Frequencies --   1222.2835              1227.8873              1255.1451
 Red. masses --      2.1792                 2.2582                 1.2882
 Frc consts  --      1.9182                 2.0060                 1.1957
 IR Inten    --      8.0765                30.9852                 1.2583

                     52                     53                     54
                      A                      A                      A
 Frequencies --   1314.6249              1328.5734              1355.7212
 Red. masses --      1.3716                 3.6593                 1.4302
 Frc consts  --      1.3966                 3.8055                 1.5488
 IR Inten    --     12.2705               179.8593                10.2642

                     55                     56                     57
                      A                      A                      A
 Frequencies --   1359.4382              1373.7462              1388.3805
 Red. masses --      3.7290                 1.5789                 1.1850
 Frc consts  --      4.0604                 1.7556                 1.3458
 IR Inten    --     15.5590                 8.1440                 4.6372

                     58                     59                     60
                      A                      A                      A
 Frequencies --   1403.7636              1460.8657              1488.3538
 Red. masses --      1.5178                 1.2536                 2.2118
 Frc consts  --      1.7622                 1.5763                 2.8867
 IR Inten    --      5.5742                14.4093                10.7310

                     61                     62                     63
                      A                      A                      A
 Frequencies --   1494.8031              1500.8391              1512.1251
 Red. masses --      1.0805                 1.1095                 1.0534
 Frc consts  --      1.4225                 1.4725                 1.4191
 IR Inten    --      8.1536                 5.2362                20.4265

                     64                     65                     66
                      A                      A                      A
 Frequencies --   1530.5869              1537.4021              1626.8512
 Red. masses --      1.5742                 1.3970                 6.1837
 Frc consts  --      2.1728                 1.9455                 9.6426
 IR Inten    --      5.9527                12.7824                 7.6226

                     67                     68                     69
                      A                      A                      A
 Frequencies --   1637.1092              1658.4735              1698.2956
 Red. masses --      7.4349                 5.5838                 4.4224
 Frc consts  --     11.7404                 9.0490                 7.5151
 IR Inten    --     24.4239                33.4151                 3.1295

                     70                     71                     72
                      A                      A                      A
 Frequencies --   1744.8409              3025.6958              3054.5676
 Red. masses --     11.9618                 1.0653                 1.0712
 Frc consts  --     21.4564                 5.7460                 5.8887
 IR Inten    --    154.3576                14.1257                10.5219

                     73                     74                     75
                      A                      A                      A
 Frequencies --   3068.7458              3070.9323              3125.5339
 Red. masses --      1.0317                 1.0940                 1.0931
 Frc consts  --      5.7245                 6.0785                 6.2915
 IR Inten    --     29.2667                28.9534                22.0395

                     76                     77                     78
                      A                      A                      A
 Frequencies --   3154.1586              3160.2930              3172.7283
 Red. masses --      1.1072                 1.1046                 1.0726
 Frc consts  --      6.4900                 6.4999                 6.3617
 IR Inten    --     11.8710                 6.5814                 1.3485

                     79                     80                     81
                      A                      A                      A
 Frequencies --   3175.5140              3185.1395              3194.2984
 Red. masses --      1.0874                 1.0769                 1.0891
 Frc consts  --      6.4605                 6.4372                 6.5476
 IR Inten    --      7.5601                14.3282                12.9956

                     82                     83                     84
                      A                      A                      A
 Frequencies --   3209.1810              3230.6340              3275.1151
 Red. masses --      1.0949                 1.0927                 1.1138
 Frc consts  --      6.6437                 6.7192                 7.0387
 IR Inten    --     26.1979                 6.5061                 6.7948

 - Thermochemistry -
 -------------------
 Temperature   298.150 Kelvin.  Pressure   1.00000 Atm.
 Atom     1 has atomic number  6 and mass  12.00000

 Molecular mass:   230.07654 amu.
 Principal axes and moments of inertia in atomic units:
                           1         2         3
     Eigenvalues --  2384.491074954.123996726.80490
           X            0.99993   0.01172   0.00296
           Y           -0.01169   0.99987  -0.01092
           Z           -0.00308   0.01089   0.99994
 This molecule is an asymmetric top.
 Rotational symmetry number  1.
 Warning -- assumption of classical behavior for rotation
           may cause significant error
 Rotational temperatures (Kelvin)      0.03632     0.01748     0.01288
 Rotational constants (GHZ):           0.75687     0.36429     0.26829
 Zero-point vibrational energy     638693.6 (Joules/Mol)
                                  152.65144 (Kcal/Mol)
 Warning -- explicit consideration of  23 degrees of freedom as
           vibrations may cause significant error
 Vibrational temperatures:     53.38    76.61    87.51   134.57   169.86
          (Kelvin)            221.03   232.27   279.22   326.74   348.63
                              373.31   407.49   453.45   462.27   559.21
                              621.00   638.31   674.89   739.20   768.50
                              784.58   834.05   885.29   951.42   998.98
                             1023.56  1043.88  1084.66  1117.12  1179.84
                             1202.64  1276.98  1314.70  1353.61  1358.79
                             1395.28  1416.94  1428.77  1433.18  1447.33
                             1488.43  1516.53  1545.30  1569.64  1595.22
                             1635.50  1725.46  1731.89  1758.59  1766.66
                             1805.87  1891.45  1911.52  1950.58  1955.93
                             1976.51  1997.57  2019.70  2101.86  2141.41
                             2150.69  2159.37  2175.61  2202.17  2211.98
                             2340.68  2355.43  2386.17  2443.47  2510.44
                             4353.30  4394.84  4415.24  4418.39  4496.95
                             4538.13  4546.96  4564.85  4568.86  4582.71
                             4595.88  4617.30  4648.16  4712.16

 Zero-point correction=                           0.243266 (Hartree/Particle)
 Thermal correction to Energy=                    0.258167
 Thermal correction to Enthalpy=                  0.259111
 Thermal correction to Gibbs Free Energy=         0.200638
 Sum of electronic and zero-point Energies=          -1015.119773
 Sum of electronic and thermal Energies=             -1015.104872
 Sum of electronic and thermal Enthalpies=           -1015.103928
 Sum of electronic and thermal Free Energies=        -1015.162401

                     E (Thermal)             CV                S
                      KCal/Mol        Cal/Mol-Kelvin    Cal/Mol-Kelvin
 Total                  162.002             57.035            123.067
 Electronic               0.000              0.000              0.000
 Translational            0.889              2.981             42.202
 Rotational               0.889              2.981             32.741
 Vibrational            160.225             51.073             48.125
 Vibration     1          0.594              1.982              5.408
 Vibration     2          0.596              1.976              4.693
 Vibration     3          0.597              1.973              4.430
 Vibration     4          0.603              1.954              3.585
 Vibration     5          0.608              1.934              3.132
 Vibration     6          0.619              1.899              2.627
 Vibration     7          0.622              1.890              2.533
 Vibration     8          0.635              1.848              2.189
 Vibration     9          0.651              1.800              1.902
 Vibration    10          0.659              1.775              1.786
 Vibration    11          0.668              1.747              1.665
 Vibration    12          0.682              1.705              1.514
 Vibration    13          0.703              1.645              1.335
 Vibration    14          0.707              1.633              1.304
 Vibration    15          0.757              1.494              1.005
 Vibration    16          0.793              1.401              0.853
 Vibration    17          0.803              1.375              0.815
 Vibration    18          0.826              1.319              0.740
 Vibration    19          0.869              1.219              0.625
 Vibration    20          0.889              1.175              0.578
 Vibration    21          0.900              1.150              0.554
 Vibration    22          0.936              1.075              0.486
 Vibration    23          0.975              0.999              0.424

                           ! Non-Optimized Parameters !
 Normal termination of Gaussian 16 at Thu Dec 10 22:41:25 2020.

 ----------------------------------------------------------------------
 # B3LYP/6-311++G(d,p) empiricaldispersion=gd3bj scf=xqc pop=npa geom=c
 heck
 ----------------------------------------------------------------------

 ---------------------------------------
 CID_142906611_JID_6385_Energie_neutraal
 ---------------------------------------
 Structure from the checkpoint file:  "JID_6385.chk"
 Charge =  0 Multiplicity = 1

 SCF Done:  E(RB3LYP) =  -1015.55191248     A.U. after   17 cycles
 Normal termination of Gaussian 16 at Thu Dec 10 22:45:58 2020.

 ----------------------------------------------------------------------
 # B3LYP/6-311++G(d,p) empiricaldispersion=gd3bj scf=xqc pop=npa geom=c
 heck
 ----------------------------------------------------------------------

 -------------------------------------
 CID_142906611_JID_6385_Energie_kation
 -------------------------------------
 Structure from the checkpoint file:  "JID_6385.chk"
 Charge =  1 Multiplicity = 2

 SCF Done:  E(UB3LYP) =  -1015.26936150     A.U. after   29 cycles
 Normal termination of Gaussian 16 at Thu Dec 10 22:57:26 2020.
 Gaussian 16:  ES64L-G16RevA.03 25-Dec-2016

 ----------------------------------------------------------------------
 # B3LYP/6-311++G(d,p) empiricaldispersion=gd3bj scf=xqc pop=npa geom=c
 heck
 ----------------------------------------------------------------------

 ------------------------------------
 CID_142906611_JID_6385_Energie_anion
 ------------------------------------
 Structure from the checkpoint file:  "JID_6385.chk"
 Charge = -1 Multiplicity = 2

                         Standard orientation:
 ---------------------------------------------------------------------
 Center     Atomic      Atomic             Coordinates (Angstroms)
 Number     Number       Type             X           Y           Z
 ---------------------------------------------------------------------
      1          6           0       -3.366759   -2.060603   -0.625917
      2         16           0       -3.285363   -0.359861    0.045531
      3          6           0       -1.545461   -0.166920    0.376282
      4          6           0       -0.907993    0.988283    0.064331
      5          6           0        0.496851    1.208561    0.565778
      6          8           0        0.760874    2.239995    1.170018
      7          6           0        1.606399    0.259785    0.202400
      8          6           0        2.864073    0.876602    0.060928
      9          6           0        3.982486    0.161407   -0.341718
     10          6           0        3.863218   -1.206826   -0.593131
     11          6           0        2.632951   -1.832984   -0.423746
     12          6           0        1.488246   -1.126915   -0.028309
     13          6           0        0.222298   -1.934388    0.178336
     14          6           0       -0.825095   -1.287364    1.091296
     15          6           0       -1.518535    2.065858   -0.722398
     16          6           0       -1.087969    3.328696   -0.846948
     17          1           0       -4.420664   -2.241958   -0.851295
     18          1           0       -3.032163   -2.808089    0.097319
     19          1           0       -2.784917   -2.146310   -1.546925
     20          1           0        2.928657    1.938827    0.267909
     21          1           0        4.938707    0.662796   -0.458082
     22          1           0        4.727520   -1.786527   -0.905021
     23          1           0        2.551794   -2.905239   -0.586516
     24          1           0       -0.238128   -2.146295   -0.797514
     25          1           0        0.509347   -2.907795    0.594536
     26          1           0       -0.338802   -0.906035    1.998089
     27          1           0       -1.536697   -2.044220    1.427529
     28          1           0       -2.405878    1.760246   -1.272039
     29          1           0       -1.612437    4.018503   -1.501677
     30          1           0       -0.235778    3.710748   -0.298057
 ---------------------------------------------------------------------

 SCF Done:  E(UB3LYP) =  -1015.57346956     A.U. after   28 cycles

 The electronic state is 2-A.
 Alpha  occ. eigenvalues --  -88.72700 -18.92960 -10.08831 -10.07850 -10.05831
 Alpha  occ. eigenvalues --  -10.05624 -10.05397 -10.05155 -10.04428 -10.04416
 Alpha  occ. eigenvalues --  -10.04200 -10.04130 -10.03814 -10.03662 -10.03374
 Alpha  occ. eigenvalues --  -10.02365  -7.81265  -5.77667  -5.77262  -5.76674
 Alpha  occ. eigenvalues --   -0.87243  -0.73329  -0.71206  -0.66405  -0.65561
 Alpha  occ. eigenvalues --   -0.62235  -0.61647  -0.59075  -0.54137  -0.52226
 Alpha  occ. eigenvalues --   -0.48519  -0.46305  -0.44445  -0.42518  -0.39110
 Alpha  occ. eigenvalues --   -0.36484  -0.35156  -0.34802  -0.32708  -0.32407
 Alpha  occ. eigenvalues --   -0.31914  -0.30293  -0.29994  -0.29201  -0.28490
 Alpha  occ. eigenvalues --   -0.27127  -0.26599  -0.25281  -0.24569  -0.24142
 Alpha  occ. eigenvalues --   -0.23338  -0.21899  -0.21313  -0.20604  -0.19613
 Alpha  occ. eigenvalues --   -0.17259  -0.13450  -0.12516  -0.12152  -0.08935
 Alpha  occ. eigenvalues --   -0.08473   0.03195
 Alpha virt. eigenvalues --    0.07050   0.08268   0.09145   0.09383   0.09912
 Alpha virt. eigenvalues --    0.10049   0.10512   0.11134   0.11642   0.11961
 Alpha virt. eigenvalues --    0.12841   0.13134   0.14270   0.14550   0.14624

  Beta  occ. eigenvalues --  -88.72698 -18.92454 -10.08774 -10.07550 -10.05602
  Beta  occ. eigenvalues --  -10.05499 -10.05409 -10.05021 -10.04472 -10.04469
  Beta  occ. eigenvalues --  -10.04125 -10.04002 -10.03803 -10.03665 -10.03247
  Beta  occ. eigenvalues --  -10.02297  -7.81261  -5.77673  -5.77267  -5.76653
  Beta  occ. eigenvalues --   -0.86324  -0.73087  -0.70896  -0.66265  -0.65405
  Beta  occ. eigenvalues --   -0.61989  -0.61367  -0.58893  -0.53851  -0.52105
  Beta  occ. eigenvalues --   -0.48124  -0.46078  -0.44251  -0.42101  -0.38986
  Beta  occ. eigenvalues --   -0.36255  -0.34966  -0.34633  -0.32618  -0.32278
  Beta  occ. eigenvalues --   -0.31746  -0.30158  -0.29778  -0.28982  -0.28348
  Beta  occ. eigenvalues --   -0.26704  -0.26265  -0.24894  -0.24421  -0.23441
  Beta  occ. eigenvalues --   -0.23207  -0.21668  -0.20576  -0.19993  -0.19190
  Beta  occ. eigenvalues --   -0.16607  -0.13068  -0.11868  -0.11212  -0.08503
  Beta  occ. eigenvalues --   -0.07690
  Beta virt. eigenvalues --    0.06845   0.08222   0.08924   0.09135   0.09868
  Beta virt. eigenvalues --    0.09983   0.10445   0.10610   0.11295   0.11669
  Beta virt. eigenvalues --    0.11968   0.12802   0.13123   0.14245   0.14508

 Mulliken charges and spin densities:
               1          2
     1  C   -0.520057  -0.123487
     2  S   -0.374939   0.075108
     3  C   -0.010969   0.177691
     4  C    0.964099   0.003602
     5  C   -1.188752   0.143692
     6  O   -0.324269   0.181199
     7  C    0.469190   0.124815
     8  C    0.114043   0.136106
     9  C   -0.573530  -0.039641
    10  C   -0.347168   0.143402
    11  C    0.149927  -0.126895
    12  C   -0.720439   0.030902
    13  C   -0.120224  -0.050953
    14  C    0.228016   0.053012
    15  C    0.026419  -0.014755
    16  C   -0.481346   0.075310
    17  H    0.072469   0.070180
    18  H    0.107285   0.021303
    19  H    0.144817   0.031434
    20  H    0.175697  -0.005682
    21  H    0.111554   0.004162
    22  H    0.109687  -0.013257
    23  H    0.108712   0.013664
    24  H    0.109918  -0.003438
    25  H    0.126136   0.021785
    26  H    0.167831   0.010319
    27  H    0.090659   0.061623
    28  H    0.125450   0.000742
    29  H    0.091416  -0.001404
    30  H    0.168366  -0.000539
 Sum of Mulliken charges =  -1.00000   1.00000

 Dipole moment (field-independent basis, Debye):
    X=             -0.9793    Y=             -4.9139    Z=             -1.7246  Tot=              5.2991
 Quadrupole moment (field-independent basis, Debye-Ang):
   XX=           -138.2040   YY=           -126.1228   ZZ=           -117.0644
   XY=              2.6563   XZ=              0.8182   YZ=             -4.1847

 Summary of Natural Population Analysis:

                                       Natural Population
                Natural  -----------------------------------------------
    Atom  No    Charge         Core      Valence    Rydberg      Total
 -----------------------------------------------------------------------
      C    1   -0.34846      0.99962     2.34225    0.00659     3.34846
      S    2    0.10529      4.99953     2.87381    0.02138     7.89471
      C    3   -0.00885      0.99936     1.99722    0.01226     3.00885
      C    4   -0.07535      0.99935     2.06268    0.01332     3.07535
      C    5    0.30914      0.99957     1.67095    0.02034     2.69086
      O    6   -0.24794      0.99988     3.24198    0.00608     4.24794
      C    7   -0.05763      0.99944     2.04768    0.01051     3.05763
      C    8   -0.05398      0.99954     2.04576    0.00869     3.05398
      C    9   -0.12933      0.99957     2.12063    0.00913     3.12933
      C   10   -0.06620      0.99957     2.05710    0.00953     3.06620
      C   11   -0.12148      0.99953     2.11347    0.00848     3.12148
      C   12    0.02111      0.99948     1.97169    0.00771     2.97889
      C   13   -0.18849      0.99960     2.17989    0.00900     3.18849
      C   14   -0.21121      0.99959     2.20106    0.01056     3.21121
      C   15   -0.10102      0.99955     2.09199    0.00948     3.10102
      C   16   -0.18292      0.99959     2.17641    0.00692     3.18292
      H   17    0.10099      0.00000     0.39747    0.00154     0.39901
      H   18    0.09604      0.00000     0.40173    0.00223     0.40396
      H   19    0.09915      0.00000     0.39918    0.00167     0.40085
      H   20    0.10657      0.00000     0.39186    0.00157     0.39343
      H   21    0.09196      0.00000     0.40703    0.00102     0.40804
      H   22    0.08823      0.00000     0.41070    0.00106     0.41177
      H   23    0.08997      0.00000     0.40868    0.00135     0.41003
      H   24    0.10042      0.00000     0.39823    0.00136     0.39958
      H   25    0.09491      0.00000     0.40343    0.00166     0.40509
      H   26    0.11018      0.00000     0.38854    0.00128     0.38982
      H   27    0.09809      0.00000     0.40059    0.00132     0.40191
      H   28    0.09612      0.00000     0.40240    0.00147     0.40388
      H   29    0.08068      0.00000     0.41825    0.00107     0.41932
      H   30    0.10401      0.00000     0.39478    0.00121     0.39599
 =======================================================================
   * Total *    0.00000     19.99277    40.81745    0.18978    61.00000

 Normal termination of Gaussian 16 at Thu Dec 10 23:08:11 2020.
