 Gaussian 16, Revision A.03,

 -----------------------------------------------------------
 # opt freq B3LYP/6-31G(d) empiricaldispersion=gd3bj scf=xqc
 -----------------------------------------------------------

 ------------------------------
 CID_141059015_JID_937_neutraal
 ------------------------------
 Symbolic Z-matrix:
 Charge =  0 Multiplicity = 1

 SCF Done:  E(RB3LYP) =  -513.210736213     A.U. after   15 cycles
 SCF Done:  E(RB3LYP) =  -513.219977834     A.U. after   13 cycles
 SCF Done:  E(RB3LYP) =  -513.221020789     A.U. after   13 cycles
 SCF Done:  E(RB3LYP) =  -513.221230492     A.U. after   12 cycles
 SCF Done:  E(RB3LYP) =  -513.221213132     A.U. after   12 cycles
 SCF Done:  E(RB3LYP) =  -513.221264242     A.U. after   11 cycles
 SCF Done:  E(RB3LYP) =  -513.221275539     A.U. after   10 cycles
 SCF Done:  E(RB3LYP) =  -513.221276794     A.U. after    9 cycles
 SCF Done:  E(RB3LYP) =  -513.221277418     A.U. after    9 cycles
 SCF Done:  E(RB3LYP) =  -513.221277880     A.U. after   10 cycles
 SCF Done:  E(RB3LYP) =  -513.221278443     A.U. after   10 cycles
 SCF Done:  E(RB3LYP) =  -513.221278925     A.U. after   10 cycles
 SCF Done:  E(RB3LYP) =  -513.221279424     A.U. after   10 cycles
 SCF Done:  E(RB3LYP) =  -513.221279562     A.U. after    9 cycles
 Optimization completed.
    -- Stationary point found.
 Normal termination of Gaussian 16 at Tue Dec  8 13:46:19 2020.

 --------------------------------------------------------------------
 #N Geom=AllCheck Guess=TCheck SCRF=Check GenChk RB3LYP/6-31G(d) Freq
 --------------------------------------------------------------------

 Structure from the checkpoint file:  "JID_937.chk"
 ------------------------------
 CID_141059015_JID_937_neutraal
 ------------------------------
 Charge =  0 Multiplicity = 1

 SCF Done:  E(RB3LYP) =  -513.221279562     A.U. after    1 cycles

  Exact polarizability: 107.720  -6.496  77.209   3.664   0.938  45.780
 Approx polarizability: 156.365 -10.969 134.905   8.219   5.195  68.295

                      1                      2                      3
                      A                      A                      A
 Frequencies --     17.7437                61.8197               115.8198
 Red. masses --      4.2253                 5.3315                 4.6096
 Frc consts  --      0.0008                 0.0120                 0.0364
 IR Inten    --      0.7630                 0.9838                 0.7936

                      4                      5                      6
                      A                      A                      A
 Frequencies --    138.8829               194.3247               238.6057
 Red. masses --      4.1047                 4.7080                 1.6140
 Frc consts  --      0.0466                 0.1047                 0.0541
 IR Inten    --      1.3848                 8.2778                38.0293

                      7                      8                      9
                      A                      A                      A
 Frequencies --    277.9190               282.4320               325.3633
 Red. masses --      3.5056                 4.9013                 1.9147
 Frc consts  --      0.1595                 0.2303                 0.1194
 IR Inten    --     13.3406                 5.6777                32.8538

                     10                     11                     12
                      A                      A                      A
 Frequencies --    360.1200               470.5846               582.9399
 Red. masses --      6.2628                 2.5668                11.9943
 Frc consts  --      0.4785                 0.3349                 2.4014
 IR Inten    --      1.5326                14.7761                 0.3593

                     13                     14                     15
                      A                      A                      A
 Frequencies --    635.7149               681.7478               790.5915
 Red. masses --      3.3364                 5.0371                 8.7885
 Frc consts  --      0.7944                 1.3794                 3.2365
 IR Inten    --      9.2700                13.5592                 0.2497

                     16                     17                     18
                      A                      A                      A
 Frequencies --    790.9747               859.1695               866.7938
 Red. masses --     10.2260                 2.1285                 1.3864
 Frc consts  --      3.7695                 0.9257                 0.6137
 IR Inten    --      0.3060                22.4597                24.8697

                     19                     20                     21
                      A                      A                      A
 Frequencies --    877.6962               917.4559               927.0602
 Red. masses --      1.6113                 2.9038                 1.8753
 Frc consts  --      0.7313                 1.4401                 0.9496
 IR Inten    --    136.9104                17.4941                24.1003

                     22                     23                     24
                      A                      A                      A
 Frequencies --    999.9226              1048.1264              1108.0280
 Red. masses --      2.9480                 5.8509                 2.2442
 Frc consts  --      1.7366                 3.7870                 1.6234
 IR Inten    --    114.3161                96.3750                11.1658

                     25                     26                     27
                      A                      A                      A
 Frequencies --   1143.5681              1206.0897              1217.8136
 Red. masses --      1.7275                 1.4559                 2.1219
 Frc consts  --      1.3311                 1.2478                 1.8542
 IR Inten    --      5.6391                 2.8290                15.4156

                     28                     29                     30
                      A                      A                      A
 Frequencies --   1275.7316              1328.0046              1364.1564
 Red. masses --      1.1172                 7.6242                 1.1606
 Frc consts  --      1.0713                 7.9222                 1.2725
 IR Inten    --      6.1069               192.7240                 7.1143

                     31                     32                     33
                      A                      A                      A
 Frequencies --   1410.6761              1463.7669              1512.0625
 Red. masses --      1.2849                 1.5554                 1.1064
 Frc consts  --      1.5065                 1.9635                 1.4904
 IR Inten    --     85.6033                19.3125                50.8611

                     34                     35                     36
                      A                      A                      A
 Frequencies --   1526.5019              1651.8342              1698.4988
 Red. masses --      1.0899                 6.8443                 1.1087
 Frc consts  --      1.4964                11.0030                 1.8846
 IR Inten    --      2.3335               620.1895                30.8285

                     37                     38                     39
                      A                      A                      A
 Frequencies --   1880.7054              1895.9352              2973.7085
 Red. masses --     12.9050                12.6459                 1.0730
 Frc consts  --     26.8936                26.7823                 5.5905
 IR Inten    --    246.1201               233.1469                69.8686

                     40                     41                     42
                      A                      A                      A
 Frequencies --   3083.5005              3096.5628              3160.7813
 Red. masses --      1.0828                 1.0649                 1.1100
 Frc consts  --      6.0660                 6.0163                 6.5335
 IR Inten    --      9.0550                27.9155                13.9830

                     43                     44                     45
                      A                      A                      A
 Frequencies --   3279.3030              3483.4143              3567.9338
 Red. masses --      1.1003                 1.0498                 1.0926
 Frc consts  --      6.9714                 7.5054                 8.1951
 IR Inten    --      0.7802                 0.2354                 0.1286

 - Thermochemistry -
 -------------------
 Temperature   298.150 Kelvin.  Pressure   1.00000 Atm.
 Atom     1 has atomic number  6 and mass  12.00000

 Molecular mass:   141.04259 amu.
 Principal axes and moments of inertia in atomic units:
                           1         2         3
     Eigenvalues --   511.918472772.452603126.79271
           X            0.99999  -0.00420  -0.00005
           Y            0.00420   0.99984  -0.01760
           Z            0.00012   0.01760   0.99985
 This molecule is an asymmetric top.
 Rotational symmetry number  1.
 Warning -- assumption of classical behavior for rotation
           may cause significant error
 Rotational temperatures (Kelvin)      0.16919     0.03124     0.02770
 Rotational constants (GHZ):           3.52545     0.65095     0.57719
 Zero-point vibrational energy     339681.9 (Joules/Mol)
                                   81.18593 (Kcal/Mol)
 Warning -- explicit consideration of  12 degrees of freedom as
           vibrations may cause significant error
 Vibrational temperatures:     25.53    88.94   166.64   199.82   279.59
          (Kelvin)            343.30   399.86   406.36   468.13   518.13
                              677.07   838.72   914.65   980.88  1137.48
                             1138.04  1236.15  1247.12  1262.81  1320.01
                             1333.83  1438.67  1508.02  1594.21  1645.34
                             1735.29  1752.16  1835.49  1910.70  1962.72
                             2029.65  2106.03  2175.52  2196.30  2376.62
                             2443.76  2705.92  2727.83  4278.50  4436.47
                             4455.26  4547.66  4718.19  5011.86  5133.46

 Zero-point correction=                           0.129378 (Hartree/Particle)
 Thermal correction to Energy=                    0.139322
 Thermal correction to Enthalpy=                  0.140266
 Thermal correction to Gibbs Free Energy=         0.092303
 Sum of electronic and zero-point Energies=           -513.091902
 Sum of electronic and thermal Energies=              -513.081957
 Sum of electronic and thermal Enthalpies=            -513.081013
 Sum of electronic and thermal Free Energies=         -513.128977

                     E (Thermal)             CV                S
                      KCal/Mol        Cal/Mol-Kelvin    Cal/Mol-Kelvin
 Total                   87.426             34.591            100.948
 Electronic               0.000              0.000              0.000
 Translational            0.889              2.981             40.743
 Rotational               0.889              2.981             29.874
 Vibrational             85.649             28.629             30.331
 Vibration     1          0.593              1.986              6.872
 Vibration     2          0.597              1.973              4.398
 Vibration     3          0.608              1.936              3.169
 Vibration     4          0.614              1.914              2.819
 Vibration     5          0.635              1.848              2.186
 Vibration     6          0.657              1.781              1.813
 Vibration     7          0.679              1.714              1.546
 Vibration     8          0.681              1.706              1.519
 Vibration     9          0.709              1.625              1.283
 Vibration    10          0.735              1.554              1.122
 Vibration    11          0.828              1.315              0.736
 Vibration    12          0.940              1.068              0.480

 Optimization completed.
    -- Stationary point found.
 Normal termination of Gaussian 16 at Tue Dec  8 13:50:03 2020.

 ----------------------------------------------------------------------
 # B3LYP/6-311++G(d,p) empiricaldispersion=gd3bj scf=xqc pop=npa geom=c
 heck
 ----------------------------------------------------------------------

 --------------------------------------
 CID_141059015_JID_937_Energie_neutraal
 --------------------------------------
 Structure from the checkpoint file:  "JID_937.chk"
 Charge =  0 Multiplicity = 1

 SCF Done:  E(RB3LYP) =  -513.381835940     A.U. after   14 cycles
 Normal termination of Gaussian 16 at Tue Dec  8 13:52:28 2020.

 ----------------------------------------------------------------------
 # B3LYP/6-311++G(d,p) empiricaldispersion=gd3bj scf=xqc pop=npa geom=c
 heck
 ----------------------------------------------------------------------

 ------------------------------------
 CID_141059015_JID_937_Energie_kation
 ------------------------------------
 Structure from the checkpoint file:  "JID_937.chk"
 Charge =  1 Multiplicity = 2

 SCF Done:  E(UB3LYP) =  -513.055170472     A.U. after   25 cycles
 Normal termination of Gaussian 16 at Tue Dec  8 13:57:49 2020.
 Gaussian 16:  ES64L-G16RevA.03 25-Dec-2016

 ----------------------------------------------------------------------
 # B3LYP/6-311++G(d,p) empiricaldispersion=gd3bj scf=xqc pop=npa geom=c
 heck
 ----------------------------------------------------------------------

 -----------------------------------
 CID_141059015_JID_937_Energie_anion
 -----------------------------------
 Structure from the checkpoint file:  "JID_937.chk"
 Charge = -1 Multiplicity = 2

                         Standard orientation:
 ---------------------------------------------------------------------
 Center     Atomic      Atomic             Coordinates (Angstroms)
 Number     Number       Type             X           Y           Z
 ---------------------------------------------------------------------
      1          6           0        1.478788   -1.360052   -0.190608
      2          6           0        0.453751   -0.447949   -0.194246
      3          6           0        1.376456    0.734703    0.073576
      4          8           0        1.232083    1.920402    0.206975
      5          6           0        2.527826   -0.339183    0.073295
      6          8           0        3.722788   -0.325505    0.220314
      7          8           0       -0.840942   -0.572021   -0.373833
      8          6           0       -1.635067    0.655991   -0.297239
      9          6           0       -3.086608    0.234678   -0.360018
     10          7           0       -3.434734   -0.535888    0.831926
     11          1           0        1.512103   -2.432012   -0.330526
     12          1           0       -1.411685    1.158337    0.645866
     13          1           0       -1.357389    1.298897   -1.137036
     14          1           0       -3.690848    1.149446   -0.375595
     15          1           0       -3.259567   -0.285750   -1.318648
     16          1           0       -4.424606   -0.771214    0.817307
     17          1           0       -2.927182   -1.418614    0.818939
 ---------------------------------------------------------------------

 SCF Done:  E(UB3LYP) =  -513.394773177     A.U. after   32 cycles

 The electronic state is 2-A.
 Alpha  occ. eigenvalues --  -19.05192 -18.96820 -18.94876 -14.19382 -10.11730
 Alpha  occ. eigenvalues --  -10.11067 -10.10467 -10.09815 -10.08732 -10.02617
 Alpha  occ. eigenvalues --   -0.96762  -0.90261  -0.88531  -0.78693  -0.71090
 Alpha  occ. eigenvalues --   -0.64095  -0.52628  -0.47548  -0.46352  -0.40042
 Alpha  occ. eigenvalues --   -0.38836  -0.37170  -0.34495  -0.32795  -0.32734
 Alpha  occ. eigenvalues --   -0.29965  -0.28764  -0.28451  -0.27691  -0.25856
 Alpha  occ. eigenvalues --   -0.23740  -0.23552  -0.22458  -0.15578  -0.14833
 Alpha  occ. eigenvalues --   -0.12571  -0.07743   0.04298
 Alpha virt. eigenvalues --    0.06070   0.08697   0.09626   0.10587   0.10987
 Alpha virt. eigenvalues --    0.11877   0.12911   0.14023   0.14927   0.15821
 Alpha virt. eigenvalues --    0.16880   0.17028   0.17960   0.19240   0.19808

  Beta  occ. eigenvalues --  -19.05176 -18.96844 -18.94420 -14.19345 -10.11730
  Beta  occ. eigenvalues --  -10.11117 -10.10385 -10.09802 -10.08428 -10.02182
  Beta  occ. eigenvalues --   -0.96694  -0.90212  -0.87791  -0.78628  -0.70536
  Beta  occ. eigenvalues --   -0.64009  -0.52553  -0.46573  -0.46135  -0.39944
  Beta  occ. eigenvalues --   -0.38756  -0.37081  -0.34351  -0.32469  -0.32125
  Beta  occ. eigenvalues --   -0.29857  -0.28652  -0.27735  -0.27453  -0.25751
  Beta  occ. eigenvalues --   -0.23481  -0.23423  -0.20744  -0.15303  -0.14779
  Beta  occ. eigenvalues --   -0.10753  -0.07438
  Beta virt. eigenvalues --    0.06862   0.08950   0.09786   0.10636   0.10861
  Beta virt. eigenvalues --    0.11536   0.11924   0.13242   0.13976   0.14944
  Beta virt. eigenvalues --    0.15802   0.16861   0.17036   0.18102   0.19359

 Mulliken charges and spin densities:
               1          2
     1  C   -0.441509   0.437514
     2  C    0.485819   0.004248
     3  C    0.095572   0.174332
     4  O   -0.436797   0.149793
     5  C   -0.104345  -0.050428
     6  O   -0.392407  -0.005901
     7  O   -0.177716   0.015836
     8  C   -0.406699   0.338162
     9  C    0.464242  -1.003006
    10  N   -0.356464  -0.008485
    11  H    0.100326  -0.010120
    12  H    0.205817   0.003006
    13  H    0.180129  -0.002697
    14  H   -0.087961   0.243876
    15  H   -0.063449   0.190653
    16  H   -0.159707   0.390171
    17  H    0.095150   0.133048
 Sum of Mulliken charges =  -1.00000   1.00000

 Dipole moment (field-independent basis, Debye):
    X=             -3.3699    Y=             -0.9269    Z=             -2.0173  Tot=              4.0354
 Quadrupole moment (field-independent basis, Debye-Ang):
   XX=           -121.4464   YY=            -76.4047   ZZ=            -69.3108
   XY=             -6.0961   XZ=              2.7309   YZ=             -1.0095

 Summary of Natural Population Analysis:

                                       Natural Population
                Natural  -----------------------------------------------
    Atom  No    Charge         Core      Valence    Rydberg      Total
 -----------------------------------------------------------------------
      C    1   -0.06394      0.99948     2.05451    0.00995     3.06394
      C    2    0.16178      0.99939     1.82250    0.01633     2.83822
      C    3    0.24881      0.99960     1.72656    0.02503     2.75119
      O    4   -0.25234      0.99987     3.24510    0.00738     4.25234
      C    5    0.22207      0.99965     1.75333    0.02495     2.77793
      O    6   -0.31099      0.99986     3.30280    0.00833     4.31099
      O    7   -0.27034      0.99983     3.26039    0.01012     4.27034
      C    8   -0.01494      0.99956     2.00205    0.01333     3.01494
      C    9   -0.10232      0.99964     2.08951    0.01318     3.10232
      N   10   -0.42371      0.99977     2.91259    0.01135     3.92371
      H   11    0.08951      0.00000     0.40935    0.00114     0.41049
      H   12    0.09834      0.00000     0.40011    0.00154     0.40166
      H   13    0.09102      0.00000     0.40783    0.00115     0.40898
      H   14    0.09301      0.00000     0.40597    0.00103     0.40699
      H   15    0.08072      0.00000     0.41750    0.00178     0.41928
      H   16    0.17550      0.00000     0.32140    0.00311     0.32450
      H   17    0.17783      0.00000     0.31977    0.00239     0.32217
 =======================================================================
   * Total *    0.00000      9.99666    26.85125    0.15209    37.00000

 Normal termination of Gaussian 16 at Tue Dec  8 14:06:11 2020.
