 Gaussian 16, Revision A.03,

 -----------------------------------------------------------
 # opt freq B3LYP/6-31G(d) empiricaldispersion=gd3bj scf=xqc
 -----------------------------------------------------------

 ----------------------------
 CID_5365282_JID_378_neutraal
 ----------------------------
 Symbolic Z-matrix:
 Charge =  0 Multiplicity = 1

 SCF Done:  E(RB3LYP) =  -427.820080248     A.U. after   13 cycles
 SCF Done:  E(RB3LYP) =  -427.822034355     A.U. after   12 cycles
 SCF Done:  E(RB3LYP) =  -427.822159076     A.U. after   10 cycles
 SCF Done:  E(RB3LYP) =  -427.822223894     A.U. after   10 cycles
 SCF Done:  E(RB3LYP) =  -427.822243230     A.U. after    9 cycles
 SCF Done:  E(RB3LYP) =  -427.822253881     A.U. after   10 cycles
 SCF Done:  E(RB3LYP) =  -427.822256033     A.U. after    9 cycles
 SCF Done:  E(RB3LYP) =  -427.822257860     A.U. after    9 cycles
 SCF Done:  E(RB3LYP) =  -427.822258461     A.U. after    8 cycles
 SCF Done:  E(RB3LYP) =  -427.822258711     A.U. after    7 cycles
 SCF Done:  E(RB3LYP) =  -427.822258833     A.U. after    7 cycles
 Optimization completed.
    -- Stationary point found.

 1\1\GINC-NODE308\FOpt\RB3LYP\6-31G(d)\C9H16O1\VSC10255\08-Dec-2020\0\\
 # opt freq B3LYP/6-31G(d) empiricaldispersion=gd3bj scf=xqc\\CID_53652
 82_JID_378_neutraal\\0,1\C,1.0740209135,0.0089702841,0.0742734364\O,0.
 3989467896,0.9336102136,-0.7479955761\C,1.1916068074,2.0391742939,-1.1
 994835888\C,1.4234123671,3.0258931736,-0.0475758482\C,2.3072189391,4.2
 429050013,-0.346394918\C,1.7919590119,5.2072505377,-1.4417895182\C,0.3
 26720076,5.5592156262,-1.3174038903\C,-0.737101098,4.7905077429,-1.583
 1495834\C,-0.840750937,3.377863252,-2.1064675536\C,0.4409710982,2.5918

 Normal termination of Gaussian 16 at Tue Dec  8 10:29:26 2020.

 --------------------------------------------------------------------
 #N Geom=AllCheck Guess=TCheck SCRF=Check GenChk RB3LYP/6-31G(d) Freq
 --------------------------------------------------------------------

 Structure from the checkpoint file:  "JID_378.chk"
 ----------------------------
 CID_5365282_JID_378_neutraal
 ----------------------------
 Charge =  0 Multiplicity = 1

 SCF Done:  E(RB3LYP) =  -427.822258833     A.U. after    1 cycles

  Exact polarizability: 105.795   5.119  99.867   2.183  -3.648  78.193
 Approx polarizability: 132.240  12.932 145.946   1.035  -8.860 117.588

                      1                      2                      3
                      A                      A                      A
 Frequencies --     45.0104                74.3196               164.2738
 Red. masses --      2.6042                 1.9643                 2.2996
 Frc consts  --      0.0031                 0.0064                 0.0366
 IR Inten    --      0.4960                 2.0904                 0.9408

                      4                      5                      6
                      A                      A                      A
 Frequencies --    202.8688               216.0475               246.2755
 Red. masses --      1.4085                 2.8779                 2.9713
 Frc consts  --      0.0342                 0.0791                 0.1062
 IR Inten    --      1.3807                 0.5822                 0.6488

                      7                      8                      9
                      A                      A                      A
 Frequencies --    257.8111               297.7518               351.9837
 Red. masses --      2.2682                 3.2831                 2.4580
 Frc consts  --      0.0888                 0.1715                 0.1794
 IR Inten    --      0.4189                 1.7485                 1.9910

                     10                     11                     12
                      A                      A                      A
 Frequencies --    364.9003               449.3019               472.7233
 Red. masses --      2.4233                 2.9319                 2.1959
 Frc consts  --      0.1901                 0.3487                 0.2891
 IR Inten    --      2.2112                 3.1414                 3.9970

                     13                     14                     15
                      A                      A                      A
 Frequencies --    542.3090               587.9392               670.4338
 Red. masses --      2.0157                 2.5671                 1.6738
 Frc consts  --      0.3493                 0.5228                 0.4433
 IR Inten    --      4.1820                 0.6172                 9.7294

                     16                     17                     18
                      A                      A                      A
 Frequencies --    721.8276               789.5573               815.1497
 Red. masses --      1.6500                 2.8546                 1.8197
 Frc consts  --      0.5065                 1.0485                 0.7124
 IR Inten    --     12.4751                 3.1798                 5.1188

                     19                     20                     21
                      A                      A                      A
 Frequencies --    829.7568               861.2078               887.9619
 Red. masses --      2.3400                 2.6691                 2.3925
 Frc consts  --      0.9492                 1.1664                 1.1115
 IR Inten    --      2.1932                 3.4045                 8.0061

                     22                     23                     24
                      A                      A                      A
 Frequencies --    928.0319               992.3552              1004.7913
 Red. masses --      1.9383                 2.2200                 1.7515
 Frc consts  --      0.9835                 1.2880                 1.0419
 IR Inten    --      6.3664                 6.3447                 1.7620

                     25                     26                     27
                      A                      A                      A
 Frequencies --   1006.4481              1033.0792              1078.7918
 Red. masses --      1.2393                 1.9675                 2.1704
 Frc consts  --      0.7396                 1.2372                 1.4882
 IR Inten    --      2.1712                 1.7938                 5.1410

                     28                     29                     30
                      A                      A                      A
 Frequencies --   1103.9911              1122.8142              1128.2077
 Red. masses --      2.6821                 2.0548                 2.0474
 Frc consts  --      1.9260                 1.5263                 1.5355
 IR Inten    --      0.1656                13.0971                23.1902

                     31                     32                     33
                      A                      A                      A
 Frequencies --   1153.6599              1187.8248              1200.4296
 Red. masses --      4.3147                 1.2558                 1.1888
 Frc consts  --      3.3834                 1.0439                 1.0093
 IR Inten    --    140.7944                 1.7369                 3.0764

                     34                     35                     36
                      A                      A                      A
 Frequencies --   1209.5685              1227.3116              1255.5920
 Red. masses --      1.3143                 1.3219                 1.3693
 Frc consts  --      1.1329                 1.1732                 1.2719
 IR Inten    --     17.3177                 7.2828                12.3464

                     37                     38                     39
                      A                      A                      A
 Frequencies --   1294.6624              1307.8585              1325.7795
 Red. masses --      1.2103                 1.1402                 1.0968
 Frc consts  --      1.1953                 1.1491                 1.1358
 IR Inten    --     10.1597                 4.5088                 4.0390

                     40                     41                     42
                      A                      A                      A
 Frequencies --   1348.4077              1377.3697              1394.3745
 Red. masses --      1.3673                 1.2247                 1.3418
 Frc consts  --      1.4647                 1.3689                 1.5371
 IR Inten    --      2.1376                18.6419                 0.7465

                     43                     44                     45
                      A                      A                      A
 Frequencies --   1403.7524              1408.4761              1423.1010
 Red. masses --      1.4974                 1.4335                 1.5675
 Frc consts  --      1.7385                 1.6755                 1.8704
 IR Inten    --      8.6535                 6.1941                 5.6344

                     46                     47                     48
                      A                      A                      A
 Frequencies --   1430.6322              1452.6551              1501.2171
 Red. masses --      1.3937                 1.4171                 1.1247
 Frc consts  --      1.6806                 1.7618                 1.4934
 IR Inten    --      6.4580                 3.0860                 2.0143

                     49                     50                     51
                      A                      A                      A
 Frequencies --   1504.0964              1507.9168              1516.7526
 Red. masses --      1.0875                 1.0940                 1.0907
 Frc consts  --      1.4496                 1.4656                 1.4784
 IR Inten    --      5.2167                 3.8238                 3.4873

                     52                     53                     54
                      A                      A                      A
 Frequencies --   1521.1961              1526.5410              1542.1443
 Red. masses --      1.0778                 1.0944                 1.0561
 Frc consts  --      1.4695                 1.5026                 1.4798
 IR Inten    --      4.5304                 2.3298                12.0772

                     55                     56                     57
                      A                      A                      A
 Frequencies --   1553.0611              1741.8430              2957.5954
 Red. masses --      1.0856                 6.5019                 1.0825
 Frc consts  --      1.5428                11.6227                 5.5791
 IR Inten    --      8.4317                 3.3336                43.5614

                     58                     59                     60
                      A                      A                      A
 Frequencies --   2991.7485              3014.1509              3028.4710
 Red. masses --      1.0408                 1.0653                 1.0621
 Frc consts  --      5.4886                 5.7025                 5.7391
 IR Inten    --     70.0740                32.2409                36.7846

                     61                     62                     63
                      A                      A                      A
 Frequencies --   3039.8193              3040.8751              3057.5753
 Red. masses --      1.0975                 1.0947                 1.0763
 Frc consts  --      5.9754                 5.9639                 5.9281
 IR Inten    --     45.4511                13.1862                30.5516

                     64                     65                     66
                      A                      A                      A
 Frequencies --   3063.1598              3066.3398              3073.4773
 Red. masses --      1.0716                 1.0865                 1.0719
 Frc consts  --      5.9240                 6.0192                 5.9659
 IR Inten    --     45.2869                60.5584                17.4445

                     67                     68                     69
                      A                      A                      A
 Frequencies --   3102.8481              3106.4152              3123.3054
 Red. masses --      1.0977                 1.0978                 1.0847
 Frc consts  --      6.2264                 6.2418                 6.2345
 IR Inten    --     33.3310                33.9491                19.5315

                     70                     71                     72
                      A                      A                      A
 Frequencies --   3127.4340              3137.9613              3154.8011
 Red. masses --      1.0968                 1.0900                 1.0930
 Frc consts  --      6.3206                 6.3238                 6.4096
 IR Inten    --     39.1744                29.5042                57.2383

 - Thermochemistry -
 -------------------
 Temperature   298.150 Kelvin.  Pressure   1.00000 Atm.
 Atom     1 has atomic number  6 and mass  12.00000

 Molecular mass:   140.12012 amu.
 Principal axes and moments of inertia in atomic units:
                           1         2         3
     Eigenvalues --   848.363531866.477552356.46684
           X            0.99997  -0.00804  -0.00168
           Y            0.00804   0.99997   0.00003
           Z            0.00168  -0.00004   1.00000
 This molecule is an asymmetric top.
 Rotational symmetry number  1.
 Warning -- assumption of classical behavior for rotation
           may cause significant error
 Rotational temperatures (Kelvin)      0.10210     0.04641     0.03676
 Rotational constants (GHZ):           2.12732     0.96692     0.76587
 Zero-point vibrational energy     625946.7 (Joules/Mol)
                                  149.60486 (Kcal/Mol)
 Warning -- explicit consideration of  14 degrees of freedom as
           vibrations may cause significant error
 Vibrational temperatures:     64.76   106.93   236.35   291.88   310.84
          (Kelvin)            354.34   370.93   428.40   506.43   525.01
                              646.45   680.14   780.26   845.91   964.60
                             1038.55  1136.00  1172.82  1193.83  1239.09
                             1277.58  1335.23  1427.78  1445.67  1448.05
                             1486.37  1552.14  1588.40  1615.48  1623.24
                             1659.86  1709.01  1727.15  1740.30  1765.83
                             1806.52  1862.73  1881.72  1907.50  1940.06
                             1981.73  2006.19  2019.69  2026.48  2047.52
                             2058.36  2090.05  2159.92  2164.06  2169.56
                             2182.27  2188.66  2196.35  2218.80  2234.51
                             2506.12  4255.32  4304.46  4336.69  4357.29
                             4373.62  4375.14  4399.17  4407.20  4411.78
                             4422.05  4464.31  4469.44  4493.74  4499.68
                             4514.83  4539.06

 Zero-point correction=                           0.238411 (Hartree/Particle)
 Thermal correction to Energy=                    0.248640
 Thermal correction to Enthalpy=                  0.249584
 Thermal correction to Gibbs Free Energy=         0.202746
 Sum of electronic and zero-point Energies=           -427.583848
 Sum of electronic and thermal Energies=              -427.573619
 Sum of electronic and thermal Enthalpies=            -427.572675
 Sum of electronic and thermal Free Energies=         -427.619513

                     E (Thermal)             CV                S
                      KCal/Mol        Cal/Mol-Kelvin    Cal/Mol-Kelvin
 Total                  156.024             39.385             98.579
 Electronic               0.000              0.000              0.000
 Translational            0.889              2.981             40.724
 Rotational               0.889              2.981             29.702
 Vibrational            154.246             33.424             28.153
 Vibration     1          0.595              1.979              5.025
 Vibration     2          0.599              1.966              4.036
 Vibration     3          0.623              1.886              2.500
 Vibration     4          0.639              1.836              2.107
 Vibration     5          0.645              1.817              1.992
 Vibration     6          0.661              1.769              1.757
 Vibration     7          0.667              1.750              1.677
 Vibration     8          0.691              1.678              1.430
 Vibration     9          0.729              1.571              1.157
 Vibration    10          0.738              1.544              1.101
 Vibration    11          0.808              1.362              0.798
 Vibration    12          0.830              1.311              0.730
 Vibration    13          0.897              1.157              0.560
 Vibration    14          0.945              1.058              0.471

 Optimization completed.
    -- Stationary point found.

 1\1\GINC-NODE308\Freq\RB3LYP\6-31G(d)\C9H16O1\VSC10255\08-Dec-2020\0\\
 #N Geom=AllCheck Guess=TCheck SCRF=Check GenChk RB3LYP/6-31G(d) Freq\\
 CID_5365282_JID_378_neutraal\\0,1\C,1.0740209135,0.0089702841,0.074273
 4364\O,0.3989467896,0.9336102136,-0.7479955761\C,1.1916068074,2.039174
 2939,-1.1994835888\C,1.4234123671,3.0258931736,-0.0475758482\C,2.30721
 89391,4.2429050013,-0.346394918\C,1.7919590119,5.2072505377,-1.4417895
 182\C,0.326720076,5.5592156262,-1.3174038903\C,-0.737101098,4.79050774
 29,-1.5831495834\C,-0.840750937,3.377863252,-2.1064675536\C,0.44097109

 Normal termination of Gaussian 16 at Tue Dec  8 10:34:14 2020.

 ----------------------------------------------------------------------
 # B3LYP/6-311++G(d,p) empiricaldispersion=gd3bj scf=xqc pop=npa geom=c
 heck
 ----------------------------------------------------------------------

 ------------------------------------
 CID_5365282_JID_378_Energie_neutraal
 ------------------------------------
 Structure from the checkpoint file:  "JID_378.chk"
 Charge =  0 Multiplicity = 1

 SCF Done:  E(RB3LYP) =  -427.943884503     A.U. after   13 cycles
 Normal termination of Gaussian 16 at Tue Dec  8 10:37:59 2020.

 ----------------------------------------------------------------------
 # B3LYP/6-311++G(d,p) empiricaldispersion=gd3bj scf=xqc pop=npa geom=c
 heck
 ----------------------------------------------------------------------

 ----------------------------------
 CID_5365282_JID_378_Energie_kation
 ----------------------------------
 Structure from the checkpoint file:  "JID_378.chk"
 Charge =  1 Multiplicity = 2

 SCF Done:  E(UB3LYP) =  -427.628246892     A.U. after   23 cycles
 Normal termination of Gaussian 16 at Tue Dec  8 10:46:12 2020.
 Gaussian 16:  ES64L-G16RevA.03 25-Dec-2016

 ---------------------------------
 CID_5365282_JID_378_Energie_anion
 ---------------------------------
 Structure from the checkpoint file:  "JID_378.chk"
 Charge = -1 Multiplicity = 2

                         Standard orientation:
 ---------------------------------------------------------------------
 Center     Atomic      Atomic             Coordinates (Angstroms)
 Number     Number       Type             X           Y           Z
 ---------------------------------------------------------------------
      1          6           0        3.283426   -0.304278   -0.334474
      2          8           0        2.156094    0.521882   -0.151740
      3          6           0        1.035093   -0.108682    0.480848
      4          6           0        0.345204   -1.064343   -0.501499
      5          6           0       -0.844290   -1.869062    0.036141
      6          6           0       -2.059591   -1.045053    0.525422
      7          6           0       -2.474923    0.063636   -0.415101
      8          6           0       -1.858535    1.229541   -0.647438
      9          6           0       -0.606734    1.831096   -0.054738
     10          6           0        0.176664    1.049151    1.009880
     11          1           0        4.097946    0.341529   -0.674247
     12          1           0        3.124603   -1.088087   -1.089700
     13          1           0        3.584924   -0.790076    0.608066
     14          1           0        1.403369   -0.686858    1.347376
     15          1           0        0.033038   -0.486212   -1.377159
     16          1           0        1.092713   -1.783584   -0.857315
     17          1           0       -1.176994   -2.535363   -0.770036
     18          1           0       -0.514465   -2.522606    0.855852
     19          1           0       -2.902852   -1.733271    0.655976
     20          1           0       -1.853597   -0.647485    1.522484
     21          1           0       -3.373651   -0.133554   -0.998910
     22          1           0       -2.324314    1.881323   -1.388846
     23          1           0        0.081967    2.076171   -0.876422
     24          1           0       -0.886604    2.805420    0.373737
     25          1           0       -0.491067    0.695585    1.798094
     26          1           0        0.878334    1.739986    1.490720
 ---------------------------------------------------------------------

 SCF Done:  E(UB3LYP) =  -427.925953402     A.U. after   31 cycles

 The electronic state is 2-A.
 Alpha  occ. eigenvalues --  -19.01367 -10.11116 -10.10154 -10.06740 -10.06262
 Alpha  occ. eigenvalues --  -10.05996 -10.05911 -10.05859 -10.05823 -10.05119
 Alpha  occ. eigenvalues --   -0.92627  -0.71905  -0.66870  -0.66488  -0.59095
 Alpha  occ. eigenvalues --   -0.58170  -0.54691  -0.48424  -0.46257  -0.41459
 Alpha  occ. eigenvalues --   -0.38992  -0.37445  -0.36319  -0.35138  -0.33449
 Alpha  occ. eigenvalues --   -0.31665  -0.31111  -0.30748  -0.29383  -0.26615
 Alpha  occ. eigenvalues --   -0.25525  -0.24753  -0.24100  -0.23175  -0.22059
 Alpha  occ. eigenvalues --   -0.20000  -0.19921  -0.15010  -0.13926   0.04868
 Alpha virt. eigenvalues --    0.06907   0.07515   0.08082   0.09350   0.09710
 Alpha virt. eigenvalues --    0.10248   0.10465   0.10770   0.11595   0.12294
 Alpha virt. eigenvalues --    0.12614   0.12990   0.13900   0.14243   0.14924

  Beta  occ. eigenvalues --  -19.01353 -10.11104 -10.10113 -10.06731 -10.06246
  Beta  occ. eigenvalues --  -10.05985 -10.05891 -10.05844 -10.05795 -10.05106
  Beta  occ. eigenvalues --   -0.92602  -0.71871  -0.66833  -0.66450  -0.59042
  Beta  occ. eigenvalues --   -0.58127  -0.54623  -0.48366  -0.46203  -0.41414
  Beta  occ. eigenvalues --   -0.38941  -0.37389  -0.36281  -0.35104  -0.33418
  Beta  occ. eigenvalues --   -0.31622  -0.31064  -0.30716  -0.29347  -0.26584
  Beta  occ. eigenvalues --   -0.25488  -0.24721  -0.24057  -0.23127  -0.22015
  Beta  occ. eigenvalues --   -0.19964  -0.19867  -0.14987  -0.13883
  Beta virt. eigenvalues --    0.07110   0.07898   0.08299   0.08586   0.10090
  Beta virt. eigenvalues --    0.10319   0.10715   0.10848   0.11198   0.11723
  Beta virt. eigenvalues --    0.12851   0.13160   0.13412   0.14307   0.14594

 Mulliken charges and spin densities:
               1          2
     1  C    1.056948  -1.281530
     2  O   -0.134629   0.060490
     3  C   -0.541090  -0.088400
     4  C    0.421968  -0.164092
     5  C    0.576336  -1.216337
     6  C    0.216252  -0.558765
     7  C   -0.593760   0.597663
     8  C    0.651655  -0.831397
     9  C   -0.334341  -0.098067
    10  C    0.349878  -0.535578
    11  H   -0.257294   0.391010
    12  H   -0.333179   0.464315
    13  H   -0.494792   0.625537
    14  H   -0.085568   0.247174
    15  H    0.138131   0.017284
    16  H   -0.125633   0.275418
    17  H   -0.344320   0.499141
    18  H   -0.337965   0.485015
    19  H   -0.391357   0.578241
    20  H   -0.032612   0.152604
    21  H   -0.465928   0.631513
    22  H   -0.132920   0.298520
    23  H    0.138134   0.038150
    24  H   -0.011834   0.169879
    25  H   -0.031666   0.151058
    26  H    0.099586   0.091151
 Sum of Mulliken charges =  -1.00000   1.00000

 Dipole moment (field-independent basis, Debye):
    X=             -0.4470    Y=              4.0918    Z=              0.1767  Tot=              4.1199
 Quadrupole moment (field-independent basis, Debye-Ang):
   XX=           -130.7239   YY=           -107.4805   ZZ=            -92.6549
   XY=              0.0329   XZ=             -2.8234   YZ=              1.3285

 Summary of Natural Population Analysis:

                                       Natural Population
                Natural  -----------------------------------------------
    Atom  No    Charge         Core      Valence    Rydberg      Total
 -----------------------------------------------------------------------
      C    1   -0.09601      0.99961     2.08707    0.00933     3.09601
      O    2   -0.30711      0.99988     3.29679    0.01044     4.30711
      C    3    0.07191      0.99954     1.91419    0.01437     2.92809
      C    4   -0.20717      0.99960     2.19775    0.00982     3.20717
      C    5   -0.18293      0.99962     2.17448    0.00883     3.18293
      C    6   -0.21181      0.99961     2.20272    0.00948     3.21181
      C    7   -0.09776      0.99952     2.08742    0.01082     3.09776
      C    8   -0.08828      0.99952     2.07855    0.01021     3.08828
      C    9   -0.21298      0.99960     2.20432    0.00907     3.21298
      C   10   -0.19643      0.99959     2.18757    0.00927     3.19643
      H   11    0.08810      0.00000     0.41069    0.00121     0.41190
      H   12    0.07919      0.00000     0.41905    0.00176     0.42081
      H   13    0.07920      0.00000     0.41875    0.00205     0.42080
      H   14    0.08004      0.00000     0.41764    0.00232     0.41996
      H   15    0.10131      0.00000     0.39697    0.00172     0.39869
      H   16    0.10296      0.00000     0.39534    0.00171     0.39704
      H   17    0.09814      0.00000     0.40033    0.00153     0.40186
      H   18    0.09782      0.00000     0.40029    0.00189     0.40218
      H   19    0.10378      0.00000     0.39439    0.00183     0.39622
      H   20    0.09745      0.00000     0.40101    0.00155     0.40255
      H   21    0.09615      0.00000     0.40254    0.00132     0.40385
      H   22    0.09299      0.00000     0.40602    0.00099     0.40701
      H   23    0.10629      0.00000     0.39202    0.00169     0.39371
      H   24    0.10207      0.00000     0.39681    0.00112     0.39793
      H   25    0.09848      0.00000     0.40017    0.00134     0.40152
      H   26    0.10462      0.00000     0.39396    0.00142     0.39538
 =======================================================================
   * Total *   -0.00000      9.99608    28.87684    0.12707    39.00000

 Normal termination of Gaussian 16 at Tue Dec  8 10:53:03 2020.
