 Gaussian 16, Revision A.03,

 -----------------------------------------------------------
 # opt freq B3LYP/6-31G(d) empiricaldispersion=gd3bj scf=xqc
 -----------------------------------------------------------

 ------------------------------
 CID_15321782_JID_2907_neutraal
 ------------------------------
 Symbolic Z-matrix:
 Charge =  0 Multiplicity = 1

 SCF Done:  E(RB3LYP) =  -542.396115336     A.U. after   14 cycles
 SCF Done:  E(RB3LYP) =  -542.398318835     A.U. after   12 cycles
 SCF Done:  E(RB3LYP) =  -542.397572502     A.U. after   12 cycles
 SCF Done:  E(RB3LYP) =  -542.398075331     A.U. after   12 cycles
 SCF Done:  E(RB3LYP) =  -542.398733163     A.U. after    9 cycles
 SCF Done:  E(RB3LYP) =  -542.399040117     A.U. after   11 cycles
 SCF Done:  E(RB3LYP) =  -542.399074029     A.U. after   10 cycles
 SCF Done:  E(RB3LYP) =  -542.399105563     A.U. after   11 cycles
 SCF Done:  E(RB3LYP) =  -542.399127234     A.U. after   11 cycles
 SCF Done:  E(RB3LYP) =  -542.399146580     A.U. after   10 cycles
 SCF Done:  E(RB3LYP) =  -542.399157217     A.U. after   10 cycles
 SCF Done:  E(RB3LYP) =  -542.399161201     A.U. after    9 cycles
 SCF Done:  E(RB3LYP) =  -542.399162117     A.U. after    9 cycles
 SCF Done:  E(RB3LYP) =  -542.399162195     A.U. after    8 cycles
 Optimization completed.
    -- Stationary point found.
 Normal termination of Gaussian 16 at Wed Dec  9 17:59:54 2020.

 --------------------------------------------------------------------
 #N Geom=AllCheck Guess=TCheck SCRF=Check GenChk RB3LYP/6-31G(d) Freq
 --------------------------------------------------------------------

 Structure from the checkpoint file:  "JID_2907.chk"
 ------------------------------
 CID_15321782_JID_2907_neutraal
 ------------------------------
 Charge =  0 Multiplicity = 1

 SCF Done:  E(RB3LYP) =  -542.399162195     A.U. after    1 cycles

  Exact polarizability: 147.607  -1.600 104.109   4.198  -3.922  88.559
 Approx polarizability: 175.726 -10.041 156.547  10.910 -12.706 128.006

                      1                      2                      3
                      A                      A                      A
 Frequencies --     18.8315                42.2030                48.1730
 Red. masses --      3.0083                 3.4460                 5.5957
 Frc consts  --      0.0006                 0.0036                 0.0077
 IR Inten    --      0.2635                 0.5401                 0.8147

                      4                      5                      6
                      A                      A                      A
 Frequencies --     60.0959               103.9591               139.1628
 Red. masses --      3.2400                 2.0987                 2.6194
 Frc consts  --      0.0069                 0.0134                 0.0299
 IR Inten    --      0.0358                 0.1508                 0.6204

                      7                      8                      9
                      A                      A                      A
 Frequencies --    193.8433               211.4917               236.1870
 Red. masses --      1.9880                 1.2779                 1.7424
 Frc consts  --      0.0440                 0.0337                 0.0573
 IR Inten    --      0.1974                 0.1458                 0.7198

                     10                     11                     12
                      A                      A                      A
 Frequencies --    251.1693               267.0997               269.4741
 Red. masses --      1.3960                 1.0782                 1.5479
 Frc consts  --      0.0519                 0.0453                 0.0662
 IR Inten    --      0.3888                 0.0393                 0.2516

                     13                     14                     15
                      A                      A                      A
 Frequencies --    286.7848               304.9344               333.1102
 Red. masses --      1.8851                 2.4851                 2.8476
 Frc consts  --      0.0913                 0.1361                 0.1862
 IR Inten    --      0.9512                 0.6881                 4.7822

                     16                     17                     18
                      A                      A                      A
 Frequencies --    360.9638               365.4538               383.5955
 Red. masses --      2.2588                 3.5856                 2.3666
 Frc consts  --      0.1734                 0.2821                 0.2052
 IR Inten    --      0.0444                10.0700                 0.6074

                     19                     20                     21
                      A                      A                      A
 Frequencies --    452.4096               500.0726               540.8362
 Red. masses --      2.8671                 2.7625                 4.1141
 Frc consts  --      0.3457                 0.4070                 0.7090
 IR Inten    --      2.3868                 0.8546                 1.5921

                     22                     23                     24
                      A                      A                      A
 Frequencies --    639.4568               760.9336               769.5957
 Red. masses --      3.7126                 6.7170                 1.3421
 Frc consts  --      0.8944                 2.2915                 0.4683
 IR Inten    --      1.7698                 3.2480                 5.0469

                     25                     26                     27
                      A                      A                      A
 Frequencies --    814.3378               838.7245               863.7514
 Red. masses --      3.5554                 1.8020                 2.7284
 Frc consts  --      1.3892                 0.7469                 1.1993
 IR Inten    --      4.5555                 0.5095                 7.9537

                     28                     29                     30
                      A                      A                      A
 Frequencies --    879.9695               902.0810               953.0779
 Red. masses --      2.5960                 1.4633                 1.7471
 Frc consts  --      1.1844                 0.7016                 0.9350
 IR Inten    --      4.1627                 3.4356                 1.4628

                     31                     32                     33
                      A                      A                      A
 Frequencies --    960.4659               982.7450               993.3751
 Red. masses --      1.6273                 1.1983                 1.1096
 Frc consts  --      0.8845                 0.6819                 0.6452
 IR Inten    --      3.0566                 0.0046                38.0701

                     34                     35                     36
                      A                      A                      A
 Frequencies --   1018.8801              1044.4872              1062.2223
 Red. masses --      1.4868                 2.1518                 1.4284
 Frc consts  --      0.9094                 1.3831                 0.9496
 IR Inten    --      3.8339                 2.6653                 0.2252

                     37                     38                     39
                      A                      A                      A
 Frequencies --   1065.2524              1104.3300              1127.1395
 Red. masses --      1.7265                 2.8320                 1.6781
 Frc consts  --      1.1543                 2.0349                 1.2561
 IR Inten    --     15.3551                 4.2545                12.0799

                     40                     41                     42
                      A                      A                      A
 Frequencies --   1162.4940              1191.0157              1246.1003
 Red. masses --      2.3465                 4.5424                 2.6865
 Frc consts  --      1.8683                 3.7964                 2.4577
 IR Inten    --     51.4832               584.3937                 2.1567

                     43                     44                     45
                      A                      A                      A
 Frequencies --   1267.7624              1269.3983              1299.6915
 Red. masses --      1.4813                 2.4393                 1.3358
 Frc consts  --      1.4027                 2.3159                 1.3295
 IR Inten    --     32.8747                40.6414                 4.1267

                     46                     47                     48
                      A                      A                      A
 Frequencies --   1314.1280              1327.1790              1381.8457
 Red. masses --      2.5130                 1.2706                 1.3994
 Frc consts  --      2.5569                 1.3186                 1.5743
 IR Inten    --     55.5783                 5.3678                 0.5216

                     49                     50                     51
                      A                      A                      A
 Frequencies --   1393.8436              1408.5375              1422.9697
 Red. masses --      1.3867                 1.2139                 1.2102
 Frc consts  --      1.5873                 1.4190                 1.4438
 IR Inten    --      6.0760                24.2570                 3.7980

                     52                     53                     54
                      A                      A                      A
 Frequencies --   1430.5633              1445.0762              1459.2194
 Red. masses --      1.2404                 1.2647                 1.2257
 Frc consts  --      1.4956                 1.5560                 1.5377
 IR Inten    --      5.9197                 6.9286                14.5880

                     55                     56                     57
                      A                      A                      A
 Frequencies --   1508.3357              1511.7352              1515.7480
 Red. masses --      1.0482                 1.0978                 1.0449
 Frc consts  --      1.4051                 1.4782                 1.4144
 IR Inten    --      0.0204                 4.1633                 0.0618

                     58                     59                     60
                      A                      A                      A
 Frequencies --   1518.7905              1521.2621              1530.2281
 Red. masses --      1.0706                 1.0454                 1.0491
 Frc consts  --      1.4551                 1.4254                 1.4474
 IR Inten    --      0.6817                 0.0467                 5.6365

                     61                     62                     63
                      A                      A                      A
 Frequencies --   1531.9545              1533.3320              1540.5914
 Red. masses --      1.0512                 1.0538                 1.0570
 Frc consts  --      1.4535                 1.4598                 1.4780
 IR Inten    --      4.4304                 7.8008                 4.6894

                     64                     65                     66
                      A                      A                      A
 Frequencies --   1551.3554              1726.1653              1818.1843
 Red. masses --      1.0656                 5.8110                12.0733
 Frc consts  --      1.5111                10.2016                23.5153
 IR Inten    --     25.4946                63.3386               150.0544

                     67                     68                     69
                      A                      A                      A
 Frequencies --   3017.4222              3035.9831              3045.8715
 Red. masses --      1.0639                 1.0619                 1.0377
 Frc consts  --      5.7074                 5.7668                 5.6724
 IR Inten    --     31.3193                31.6206                24.8895

                     70                     71                     72
                      A                      A                      A
 Frequencies --   3051.8405              3053.7089              3062.8801
 Red. masses --      1.0354                 1.0360                 1.0365
 Frc consts  --      5.6818                 5.6922                 5.7290
 IR Inten    --     29.0503                12.1001                27.6097

                     73                     74                     75
                      A                      A                      A
 Frequencies --   3065.0059              3074.3669              3110.5348
 Red. masses --      1.0962                 1.1027                 1.1012
 Frc consts  --      6.0675                 6.1409                 6.2778
 IR Inten    --     37.3622                33.2723                46.0753

                     76                     77                     78
                      A                      A                      A
 Frequencies --   3116.1540              3117.6138              3121.5719
 Red. masses --      1.1032                 1.1024                 1.1024
 Frc consts  --      6.3115                 6.3131                 6.3288
 IR Inten    --     12.6175                26.3486                47.8127

                     79                     80                     81
                      A                      A                      A
 Frequencies --   3131.3142              3140.9603              3142.2769
 Red. masses --      1.1018                 1.1026                 1.1021
 Frc consts  --      6.3648                 6.4091                 6.4113
 IR Inten    --     40.1681                 6.9154                18.1802

                     82                     83                     84
                      A                      A                      A
 Frequencies --   3145.5342              3208.2605              3271.5452
 Red. masses --      1.1009                 1.0923                 1.0896
 Frc consts  --      6.4181                 6.6245                 6.8709
 IR Inten    --     40.4854                19.5477                 0.2666

 - Thermochemistry -
 -------------------
 Temperature   298.150 Kelvin.  Pressure   1.00000 Atm.
 Atom     1 has atomic number  6 and mass  12.00000

 Molecular mass:   170.13068 amu.
 Principal axes and moments of inertia in atomic units:
                           1         2         3
     Eigenvalues --   875.497664828.095625158.90331
           X            0.99999  -0.00470   0.00006
           Y            0.00470   0.99995   0.00884
           Z           -0.00010  -0.00884   0.99996
 This molecule is an asymmetric top.
 Rotational symmetry number  1.
 Warning -- assumption of classical behavior for rotation
           may cause significant error
 Rotational temperatures (Kelvin)      0.09893     0.01794     0.01679
 Rotational constants (GHZ):           2.06139     0.37380     0.34983
 Zero-point vibrational energy     699163.6 (Joules/Mol)
                                  167.10412 (Kcal/Mol)
 Warning -- explicit consideration of  21 degrees of freedom as
           vibrations may cause significant error
 Vibrational temperatures:     27.09    60.72    69.31    86.46   149.57
          (Kelvin)            200.22   278.90   304.29   339.82   361.38
                              384.30   387.71   412.62   438.73   479.27
                              519.35   525.81   551.91   650.92   719.49
                              778.14   920.04  1094.81  1107.28  1171.65
                             1206.74  1242.75  1266.08  1297.89  1371.27
                             1381.90  1413.95  1429.25  1465.94  1502.78
                             1528.30  1532.66  1588.88  1621.70  1672.57
                             1713.61  1792.86  1824.03  1826.38  1869.97
                             1890.74  1909.51  1988.17  2005.43  2026.57
                             2047.34  2058.26  2079.14  2099.49  2170.16
                             2175.05  2180.82  2185.20  2188.76  2201.66
                             2204.14  2206.12  2216.57  2232.05  2483.57
                             2615.96  4341.40  4368.10  4382.33  4390.92
                             4393.61  4406.80  4409.86  4423.33  4475.37
                             4483.45  4485.55  4491.25  4505.26  4519.14
                             4521.04  4525.72  4615.97  4707.02

 Zero-point correction=                           0.266297 (Hartree/Particle)
 Thermal correction to Energy=                    0.281055
 Thermal correction to Enthalpy=                  0.282000
 Thermal correction to Gibbs Free Energy=         0.223274
 Sum of electronic and zero-point Energies=           -542.132865
 Sum of electronic and thermal Energies=              -542.118107
 Sum of electronic and thermal Enthalpies=            -542.117163
 Sum of electronic and thermal Free Energies=         -542.175888

                     E (Thermal)             CV                S
                      KCal/Mol        Cal/Mol-Kelvin    Cal/Mol-Kelvin
 Total                  176.365             53.210            123.599
 Electronic               0.000              0.000              0.000
 Translational            0.889              2.981             41.302
 Rotational               0.889              2.981             31.456
 Vibrational            174.587             47.249             50.841
 Vibration     1          0.593              1.986              6.754
 Vibration     2          0.595              1.980              5.153
 Vibration     3          0.595              1.978              4.891
 Vibration     4          0.597              1.973              4.454
 Vibration     5          0.605              1.946              3.379
 Vibration     6          0.615              1.914              2.815
 Vibration     7          0.635              1.848              2.191
 Vibration     8          0.643              1.823              2.031
 Vibration     9          0.655              1.785              1.831
 Vibration    10          0.663              1.761              1.722
 Vibration    11          0.672              1.734              1.615
 Vibration    12          0.674              1.729              1.600
 Vibration    13          0.684              1.698              1.493
 Vibration    14          0.696              1.664              1.390
 Vibration    15          0.715              1.609              1.245
 Vibration    16          0.735              1.553              1.118
 Vibration    17          0.739              1.543              1.099
 Vibration    18          0.753              1.505              1.025
 Vibration    19          0.811              1.356              0.789
 Vibration    20          0.855              1.250              0.658
 Vibration    21          0.896              1.160              0.563

                           ! Non-Optimized Parameters !
 Normal termination of Gaussian 16 at Wed Dec  9 18:06:33 2020.

 ----------------------------------------------------------------------
 # B3LYP/6-311++G(d,p) empiricaldispersion=gd3bj scf=xqc pop=npa geom=c
 heck
 ----------------------------------------------------------------------

 --------------------------------------
 CID_15321782_JID_2907_Energie_neutraal
 --------------------------------------
 Structure from the checkpoint file:  "JID_2907.chk"
 Charge =  0 Multiplicity = 1

 SCF Done:  E(RB3LYP) =  -542.556145968     A.U. after   14 cycles
 Normal termination of Gaussian 16 at Wed Dec  9 18:09:58 2020.

 ----------------------------------------------------------------------
 # B3LYP/6-311++G(d,p) empiricaldispersion=gd3bj scf=xqc pop=npa geom=c
 heck
 ----------------------------------------------------------------------

 ------------------------------------
 CID_15321782_JID_2907_Energie_kation
 ------------------------------------
 Structure from the checkpoint file:  "JID_2907.chk"
 Charge =  1 Multiplicity = 2

 SCF Done:  E(UB3LYP) =  -542.233033742     A.U. after   24 cycles
 Normal termination of Gaussian 16 at Wed Dec  9 18:18:22 2020.
 Gaussian 16:  ES64L-G16RevA.03 25-Dec-2016

 ----------------------------------------------------------------------
 # B3LYP/6-311++G(d,p) empiricaldispersion=gd3bj scf=xqc pop=npa geom=c
 heck
 ----------------------------------------------------------------------

 -----------------------------------
 CID_15321782_JID_2907_Energie_anion
 -----------------------------------
 Structure from the checkpoint file:  "JID_2907.chk"
 Charge = -1 Multiplicity = 2

                         Standard orientation:
 ---------------------------------------------------------------------
 Center     Atomic      Atomic             Coordinates (Angstroms)
 Number     Number       Type             X           Y           Z
 ---------------------------------------------------------------------
      1          6           0       -4.212103    1.415885    0.194949
      2          6           0       -4.135231   -0.078133    0.520254
      3          6           0       -3.238307   -0.878903   -0.445600
      4          6           0       -1.804726   -0.423785   -0.441134
      5          6           0       -0.832265   -1.214114    0.014390
      6          8           0        0.532439   -0.975915    0.114551
      7          6           0        1.121813    0.224945   -0.151528
      8          8           0        0.525734    1.212534   -0.515308
      9          6           0        2.631948    0.134650    0.077701
     10          6           0        2.895111   -0.252412    1.547582
     11          6           0        3.217597   -0.942064   -0.859061
     12          6           0        3.256821    1.501329   -0.230146
     13          1           0       -3.233698    1.898850    0.290419
     14          1           0       -4.903375    1.930954    0.871007
     15          1           0       -4.565562    1.577991   -0.831058
     16          1           0       -3.760817   -0.214002    1.543212
     17          1           0       -5.144487   -0.509969    0.494515
     18          1           0       -3.293330   -1.944690   -0.188189
     19          1           0       -3.645474   -0.780804   -1.463114
     20          1           0       -1.576922    0.570936   -0.797091
     21          1           0       -1.022299   -2.219891    0.376523
     22          1           0        2.460165   -1.226639    1.785454
     23          1           0        3.975030   -0.301308    1.726776
     24          1           0        2.472722    0.491172    2.232770
     25          1           0        3.028870   -0.695445   -1.909942
     26          1           0        4.302346   -1.002209   -0.716114
     27          1           0        2.786024   -1.924978   -0.652854
     28          1           0        3.068980    1.797207   -1.266259
     29          1           0        2.842740    2.279800    0.417069
     30          1           0        4.339741    1.455683   -0.071496
 ---------------------------------------------------------------------

 SCF Done:  E(UB3LYP) =  -542.540512692     A.U. after   33 cycles
 SCF Done:  E(UB3LYP) =  -542.540512692     a.u. after    1 cycles

 The electronic state is 2-A.
 Alpha  occ. eigenvalues --  -19.08390 -19.02051 -10.20693 -10.13104 -10.10371
 Alpha  occ. eigenvalues --  -10.07687 -10.07183 -10.07093 -10.06879 -10.06660
 Alpha  occ. eigenvalues --  -10.06435 -10.06326  -1.01861  -0.93620  -0.73552
 Alpha  occ. eigenvalues --   -0.71339  -0.66444  -0.60859  -0.59676  -0.59103
 Alpha  occ. eigenvalues --   -0.55588  -0.50223  -0.48444  -0.43077  -0.40081
 Alpha  occ. eigenvalues --   -0.39145  -0.37881  -0.36739  -0.35038  -0.34004
 Alpha  occ. eigenvalues --   -0.33823  -0.33171  -0.30886  -0.30030  -0.29308
 Alpha  occ. eigenvalues --   -0.29156  -0.28669  -0.27398  -0.26572  -0.25919
 Alpha  occ. eigenvalues --   -0.24904  -0.24340  -0.24226  -0.24163  -0.23638
 Alpha  occ. eigenvalues --   -0.17823  -0.14867   0.04391
 Alpha virt. eigenvalues --    0.05792   0.07374   0.07592   0.08052   0.08409
 Alpha virt. eigenvalues --    0.08644   0.08868   0.09712   0.10444   0.10730
 Alpha virt. eigenvalues --    0.11183   0.11712   0.12116   0.12461   0.12619

  Beta  occ. eigenvalues --  -19.08395 -19.02027 -10.20669 -10.13073 -10.10371
  Beta  occ. eigenvalues --  -10.07672 -10.07159 -10.07083 -10.06852 -10.06619
  Beta  occ. eigenvalues --  -10.06414 -10.06301  -1.01841  -0.93589  -0.73524
  Beta  occ. eigenvalues --   -0.71302  -0.66401  -0.60812  -0.59613  -0.59048
  Beta  occ. eigenvalues --   -0.55541  -0.50160  -0.48388  -0.43027  -0.40050
  Beta  occ. eigenvalues --   -0.39101  -0.37803  -0.36700  -0.34999  -0.33972
  Beta  occ. eigenvalues --   -0.33789  -0.33135  -0.30853  -0.29992  -0.29267
  Beta  occ. eigenvalues --   -0.29111  -0.28636  -0.27367  -0.26511  -0.25862
  Beta  occ. eigenvalues --   -0.24865  -0.24300  -0.24189  -0.24120  -0.23607
  Beta  occ. eigenvalues --   -0.17796  -0.14788
  Beta virt. eigenvalues --    0.06472   0.06849   0.07877   0.07967   0.08423
  Beta virt. eigenvalues --    0.08986   0.09094   0.09351   0.10176   0.10840
  Beta virt. eigenvalues --    0.10913   0.11559   0.11974   0.12348   0.12691

 Mulliken charges and spin densities:
               1          2
     1  C    0.358111  -0.932691
     2  C   -0.150493  -0.027247
     3  C    0.751488  -1.156573
     4  C    0.624417  -0.126921
     5  C   -0.568425   0.233632
     6  O   -0.008819   0.018158
     7  C    2.023044  -2.582773
     8  O   -0.250718   0.016933
     9  C   -3.560778   4.217397
    10  C    0.888460  -1.381579
    11  C    0.726085  -1.220411
    12  C    0.418492  -1.077130
    13  H    0.079378   0.062079
    14  H   -0.213422   0.344830
    15  H   -0.009146   0.139817
    16  H    0.005280   0.117187
    17  H   -0.432182   0.577296
    18  H   -0.045590   0.193911
    19  H   -0.120970   0.263884
    20  H    0.203771   0.015965
    21  H   -0.352004   0.523377
    22  H   -0.060090   0.213090
    23  H   -0.500933   0.673590
    24  H   -0.114088   0.263968
    25  H   -0.046043   0.192483
    26  H   -0.327078   0.494312
    27  H   -0.077421   0.231887
    28  H    0.006203   0.146847
    29  H    0.041788   0.115848
    30  H   -0.288319   0.448831
 Sum of Mulliken charges =  -1.00000   1.00000

 Dipole moment (field-independent basis, Debye):
    X=             -0.6112    Y=              0.7599    Z=             -1.3952  Tot=              1.7022
 Quadrupole moment (field-independent basis, Debye-Ang):
   XX=           -186.7039   YY=           -111.7135   ZZ=           -106.0621
   XY=             -0.1989   XZ=             -3.3608   YZ=              0.0861

 Summary of Natural Population Analysis:

                                       Natural Population
                Natural  -----------------------------------------------
    Atom  No    Charge         Core      Valence    Rydberg      Total
 -----------------------------------------------------------------------
      C    1   -0.28946      0.99967     2.28359    0.00620     3.28946
      C    2   -0.18616      0.99964     2.17862    0.00791     3.18616
      C    3   -0.20070      0.99962     2.19113    0.00996     3.20070
      C    4   -0.12366      0.99952     2.11514    0.00900     3.12366
      C    5    0.07305      0.99937     1.91463    0.01295     2.92695
      O    6   -0.27776      0.99984     3.26848    0.00944     4.27776
      C    7    0.42313      0.99960     1.55174    0.02553     2.57687
      O    8   -0.29771      0.99987     3.29226    0.00558     4.29771
      C    9   -0.08743      0.99955     2.07606    0.01182     3.08743
      C   10   -0.28110      0.99963     2.27426    0.00721     3.28110
      C   11   -0.28046      0.99963     2.27369    0.00714     3.28046
      C   12   -0.28241      0.99964     2.27482    0.00796     3.28241
      H   13    0.09902      0.00000     0.39995    0.00103     0.40098
      H   14    0.09882      0.00000     0.40031    0.00087     0.40118
      H   15    0.09472      0.00000     0.40426    0.00103     0.40528
      H   16    0.09394      0.00000     0.40484    0.00122     0.40606
      H   17    0.09643      0.00000     0.40144    0.00214     0.40357
      H   18    0.09941      0.00000     0.39915    0.00145     0.40059
      H   19    0.09803      0.00000     0.40072    0.00125     0.40197
      H   20    0.11410      0.00000     0.38450    0.00140     0.38590
      H   21    0.08826      0.00000     0.41044    0.00130     0.41174
      H   22    0.10628      0.00000     0.39225    0.00147     0.39372
      H   23    0.10338      0.00000     0.39475    0.00187     0.39662
      H   24    0.10099      0.00000     0.39786    0.00115     0.39901
      H   25    0.09983      0.00000     0.39909    0.00108     0.40017
      H   26    0.10229      0.00000     0.39651    0.00120     0.39771
      H   27    0.10671      0.00000     0.39190    0.00139     0.39329
      H   28    0.10365      0.00000     0.39544    0.00091     0.39635
      H   29    0.10447      0.00000     0.39460    0.00093     0.39553
      H   30    0.10036      0.00000     0.39855    0.00109     0.39964
 =======================================================================
   * Total *   -0.00000     11.99557    34.86097    0.14347    47.00000

 Normal termination of Gaussian 16 at Wed Dec  9 18:29:15 2020.
