 Gaussian 16, Revision A.03,

 -----------------------------------------------------------
 # opt freq B3LYP/6-31G(d) empiricaldispersion=gd3bj scf=xqc
 -----------------------------------------------------------

 -------------------------------
 CID_110892454_JID_7918_neutraal
 -------------------------------
 Symbolic Z-matrix:
 Charge =  0 Multiplicity = 1

 SCF Done:  E(RB3LYP) =  -1127.51865950     A.U. after   15 cycles
 SCF Done:  E(RB3LYP) =  -1127.52470001     A.U. after   13 cycles
 SCF Done:  E(RB3LYP) =  -1127.52237080     A.U. after   13 cycles
 SCF Done:  E(RB3LYP) =  -1127.52643311     A.U. after   12 cycles
 SCF Done:  E(RB3LYP) =  -1127.52881448     A.U. after   13 cycles
 SCF Done:  E(RB3LYP) =  -1127.52995441     A.U. after   13 cycles
 SCF Done:  E(RB3LYP) =  -1127.52993163     A.U. after   13 cycles
 SCF Done:  E(RB3LYP) =  -1127.53089910     A.U. after   12 cycles
 SCF Done:  E(RB3LYP) =  -1127.53188866     A.U. after   13 cycles
 SCF Done:  E(RB3LYP) =  -1127.53233500     A.U. after   12 cycles
 SCF Done:  E(RB3LYP) =  -1127.53499783     A.U. after    9 cycles
 SCF Done:  E(RB3LYP) =  -1127.53500259     A.U. after   10 cycles
 SCF Done:  E(RB3LYP) =  -1127.53500299     A.U. after    8 cycles
 SCF Done:  E(RB3LYP) =  -1127.53500306     A.U. after    7 cycles
 SCF Done:  E(RB3LYP) =  -1127.53500311     A.U. after    7 cycles
 Optimization completed.
    -- Stationary point found.
 Normal termination of Gaussian 16 at Fri Dec 11 13:21:38 2020.

 --------------------------------------------------------------------
 #N Geom=AllCheck Guess=TCheck SCRF=Check GenChk RB3LYP/6-31G(d) Freq
 --------------------------------------------------------------------

 Structure from the checkpoint file:  "JID_7918.chk"
 -------------------------------
 CID_110892454_JID_7918_neutraal
 -------------------------------
 Charge =  0 Multiplicity = 1

 SCF Done:  E(RB3LYP) =  -1127.53500311     A.U. after    1 cycles

  Exact polarizability: 143.338   9.908 172.369   8.151  -2.302 143.680
 Approx polarizability: 202.242  19.471 247.565  19.200   4.600 252.990

                      1                      2                      3
                      A                      A                      A
 Frequencies --     24.3403                36.1837                44.8794
 Red. masses --      4.7704                 4.8000                 6.1185
 Frc consts  --      0.0017                 0.0037                 0.0073
 IR Inten    --      0.8396                 0.4976                 0.7739

                      4                      5                      6
                      A                      A                      A
 Frequencies --     57.6121                75.6577                86.6653
 Red. masses --      4.1243                 5.2426                 4.2212
 Frc consts  --      0.0081                 0.0177                 0.0187
 IR Inten    --      1.9893                 1.1402                 1.7992

                      7                      8                      9
                      A                      A                      A
 Frequencies --     96.1837               108.1823               134.8545
 Red. masses --      4.0533                 4.3920                 3.6823
 Frc consts  --      0.0221                 0.0303                 0.0395
 IR Inten    --      3.1747                 1.3550                 0.7633

                     10                     11                     12
                      A                      A                      A
 Frequencies --    148.4712               200.9381               225.6588
 Red. masses --      2.7274                 1.8531                 4.0336
 Frc consts  --      0.0354                 0.0441                 0.1210
 IR Inten    --      0.2309                 1.5296                 0.2235

                     13                     14                     15
                      A                      A                      A
 Frequencies --    241.1537               249.1422               261.4068
 Red. masses --      1.3100                 1.9165                 3.0648
 Frc consts  --      0.0449                 0.0701                 0.1234
 IR Inten    --      0.5857                 1.6407                 0.3114

                     16                     17                     18
                      A                      A                      A
 Frequencies --    303.2331               310.8238               315.5301
 Red. masses --      1.6975                 2.2035                 3.3928
 Frc consts  --      0.0920                 0.1254                 0.1990
 IR Inten    --     17.4362                 1.1533                 0.1356

                     19                     20                     21
                      A                      A                      A
 Frequencies --    348.3855               389.5273               416.4870
 Red. masses --      1.3261                 1.9560                 3.1398
 Frc consts  --      0.0948                 0.1749                 0.3209
 IR Inten    --     56.2811                63.9018                 0.5780

                     22                     23                     24
                      A                      A                      A
 Frequencies --    442.4684               450.6382               510.6546
 Red. masses --      3.9956                 2.6701                 4.3422
 Frc consts  --      0.4609                 0.3195                 0.6671
 IR Inten    --      0.9791                 1.8811                 5.7260

                     25                     26                     27
                      A                      A                      A
 Frequencies --    542.0218               574.6762               589.5352
 Red. masses --      3.7480                 3.3734                 3.2575
 Frc consts  --      0.6488                 0.6564                 0.6670
 IR Inten    --     21.0231                 2.5810                17.7488

                     28                     29                     30
                      A                      A                      A
 Frequencies --    625.4939               643.9994               691.9478
 Red. masses --      6.2309                 2.5883                 2.2852
 Frc consts  --      1.4363                 0.6325                 0.6447
 IR Inten    --      1.3286                 6.8543                13.5408

                     31                     32                     33
                      A                      A                      A
 Frequencies --    708.6768               733.1288               754.0082
 Red. masses --      1.5274                 1.9915                 4.7411
 Frc consts  --      0.4520                 0.6306                 1.5881
 IR Inten    --     72.3834                49.2805                 4.1404

                     34                     35                     36
                      A                      A                      A
 Frequencies --    756.6782               816.8293               831.8463
 Red. masses --      2.2939                 1.6768                 1.4102
 Frc consts  --      0.7738                 0.6592                 0.5749
 IR Inten    --      0.7824                 5.5627                54.0127

                     37                     38                     39
                      A                      A                      A
 Frequencies --    841.0101               847.9365               864.3783
 Red. masses --      2.0986                 1.9989                 4.0235
 Frc consts  --      0.8746                 0.8468                 1.7712
 IR Inten    --     68.4914                30.6680                 9.3833

                     40                     41                     42
                      A                      A                      A
 Frequencies --    901.1554               909.3659               914.2340
 Red. masses --      1.6581                 1.5264                 1.5666
 Frc consts  --      0.7933                 0.7437                 0.7715
 IR Inten    --      4.0423                 1.3516                 4.6148

                     43                     44                     45
                      A                      A                      A
 Frequencies --    933.3323               954.0012               969.8110
 Red. masses --      1.6582                 1.8907                 1.5826
 Frc consts  --      0.8510                 1.0138                 0.8770
 IR Inten    --      0.8225                 5.8891                22.5332

                     46                     47                     48
                      A                      A                      A
 Frequencies --   1027.8075              1042.2875              1061.0142
 Red. masses --      2.5221                 2.3946                 1.8086
 Frc consts  --      1.5698                 1.5327                 1.1996
 IR Inten    --     13.4463                17.9547                 2.4135

                     49                     50                     51
                      A                      A                      A
 Frequencies --   1079.3340              1095.3318              1100.9280
 Red. masses --      2.5068                 1.6999                 1.9089
 Frc consts  --      1.7206                 1.2016                 1.3632
 IR Inten    --     20.2717                 6.9507                22.8853

                     52                     53                     54
                      A                      A                      A
 Frequencies --   1111.9377              1120.9497              1140.2449
 Red. masses --      1.7153                 1.2809                 2.2085
 Frc consts  --      1.2495                 0.9483                 1.6918
 IR Inten    --     42.4881                 3.2084                19.3293

                     55                     56                     57
                      A                      A                      A
 Frequencies --   1166.8169              1172.6862              1188.2666
 Red. masses --      2.4578                 2.7040                 2.8676
 Frc consts  --      1.9715                 2.1909                 2.3856
 IR Inten    --     27.6613                17.7327                67.6152

                     58                     59                     60
                      A                      A                      A
 Frequencies --   1239.4591              1244.8059              1291.0231
 Red. masses --      1.4333                 1.3959                 1.3535
 Frc consts  --      1.2973                 1.2744                 1.3291
 IR Inten    --     46.0356                 7.3547                28.9761

                     61                     62                     63
                      A                      A                      A
 Frequencies --   1300.9289              1319.6143              1338.4179
 Red. masses --      1.2846                 1.3507                 1.3065
 Frc consts  --      1.2810                 1.3858                 1.3790
 IR Inten    --      2.4892                10.4156                 3.4906

                     64                     65                     66
                      A                      A                      A
 Frequencies --   1372.9838              1376.3645              1384.7731
 Red. masses --      1.3543                 1.3175                 1.4594
 Frc consts  --      1.5042                 1.4705                 1.6488
 IR Inten    --     22.3721                 2.3257                 3.1536

                     67                     68                     69
                      A                      A                      A
 Frequencies --   1398.5080              1404.1219              1406.3469
 Red. masses --      1.4898                 1.4894                 1.9436
 Frc consts  --      1.7168                 1.7301                 2.2649
 IR Inten    --     49.4280                87.1188                 0.6042

                     70                     71                     72
                      A                      A                      A
 Frequencies --   1418.4455              1437.1315              1438.4303
 Red. masses --      2.3539                 1.3080                 1.3307
 Frc consts  --      2.7903                 1.5916                 1.6222
 IR Inten    --    211.1693                 2.5090                18.3345

                     73                     74                     75
                      A                      A                      A
 Frequencies --   1447.5200              1483.7265              1489.0070
 Red. masses --      1.2577                 1.2656                 1.3677
 Frc consts  --      1.5526                 1.6416                 1.7866
 IR Inten    --     14.5455                 7.3367                10.4748

                     76                     77                     78
                      A                      A                      A
 Frequencies --   1502.3236              1508.9662              1518.6864
 Red. masses --      4.4189                 1.1746                 1.0667
 Frc consts  --      5.8761                 1.5758                 1.4496
 IR Inten    --      8.9021                 1.2514                 3.9663

                     79                     80                     81
                      A                      A                      A
 Frequencies --   1524.4125              1527.2843              1527.8864
 Red. masses --      1.0575                 1.0757                 1.0864
 Frc consts  --      1.4479                 1.4784                 1.4942
 IR Inten    --      2.3049                 6.7068                 7.8312

                     82                     83                     84
                      A                      A                      A
 Frequencies --   1539.0921              1540.3059              1606.4821
 Red. masses --      1.0445                 1.0663                 5.4770
 Frc consts  --      1.4577                 1.4906                 8.3281
 IR Inten    --      7.9251                 0.6831                 1.6049

                     85                     86                     87
                      A                      A                      A
 Frequencies --   1801.8389              3039.3487              3041.6700
 Red. masses --      6.6565                 1.0654                 1.0592
 Frc consts  --     12.7329                 5.7986                 5.7735
 IR Inten    --    467.9254                12.3715                32.2391

                     88                     89                     90
                      A                      A                      A
 Frequencies --   3042.0507              3046.6348              3049.5045
 Red. masses --      1.0482                 1.0513                 1.0492
 Frc consts  --      5.7152                 5.7494                 5.7487
 IR Inten    --      2.1577                51.6637                47.5096

                     91                     92                     93
                      A                      A                      A
 Frequencies --   3087.2324              3087.8493              3104.9123
 Red. masses --      1.1006                 1.0935                 1.0962
 Frc consts  --      6.1802                 6.1432                 6.2266
 IR Inten    --      9.6376                 6.4992                19.2500

                     94                     95                     96
                      A                      A                      A
 Frequencies --   3107.8858              3112.2050              3123.4091
 Red. masses --      1.0936                 1.0926                 1.0983
 Frc consts  --      6.2236                 6.2349                 6.3127
 IR Inten    --     16.5894                33.2360                22.0945

                     97                     98                     99
                      A                      A                      A
 Frequencies --   3130.4598              3133.9644              3134.9055
 Red. masses --      1.0951                 1.1009                 1.0957
 Frc consts  --      6.3229                 6.3706                 6.3441
 IR Inten    --     23.6689                22.4831                15.3049

                    100                    101                    102
                      A                      A                      A
 Frequencies --   3218.8416              3233.2853              3272.0340
 Red. masses --      1.0885                 1.0956                 1.0970
 Frc consts  --      6.6450                 6.7484                 6.9196
 IR Inten    --      6.7028                 4.1698                 0.8358

                    103                    104                    105
                      A                      A                      A
 Frequencies --   3536.7257              3554.2044              3747.8547
 Red. masses --      1.0740                 1.0741                 1.0660
 Frc consts  --      7.9150                 7.9945                 8.8221
 IR Inten    --      9.4850                30.7904                11.9137

 - Thermochemistry -
 -------------------
 Temperature   298.150 Kelvin.  Pressure   1.00000 Atm.
 Atom     1 has atomic number  6 and mass  12.00000

 Molecular mass:   256.12455 amu.
 Principal axes and moments of inertia in atomic units:
                           1         2         3
     Eigenvalues --  3895.872354930.207956961.02066
           X            0.99795  -0.06311  -0.01105
           Y            0.06274   0.99754  -0.03120
           Z            0.01299   0.03044   0.99945
 This molecule is an asymmetric top.
 Rotational symmetry number  1.
 Warning -- assumption of classical behavior for rotation
           may cause significant error
 Rotational temperatures (Kelvin)      0.02223     0.01757     0.01244
 Rotational constants (GHZ):           0.46324     0.36606     0.25926
 Zero-point vibrational energy     833705.1 (Joules/Mol)
                                  199.26031 (Kcal/Mol)
 Warning -- explicit consideration of  27 degrees of freedom as
           vibrations may cause significant error
 Vibrational temperatures:     35.02    52.06    64.57    82.89   108.85
          (Kelvin)            124.69   138.39   155.65   194.03   213.62
                              289.11   324.67   346.97   358.46   376.11
                              436.28   447.21   453.98   501.25   560.44
                              599.23   636.61   648.37   734.72   779.85
                              826.83   848.21   899.95   926.57   995.56
                             1019.63  1054.81  1084.85  1088.69  1175.24
                             1196.84  1210.03  1219.99  1243.65  1296.56
                             1308.37  1315.38  1342.86  1372.59  1395.34
                             1478.79  1499.62  1526.56  1552.92  1575.94
                             1583.99  1599.83  1612.80  1640.56  1678.79
                             1687.23  1709.65  1783.31  1791.00  1857.49
                             1871.75  1898.63  1925.68  1975.42  1980.28
                             1992.38  2012.14  2020.22  2023.42  2040.83
                             2067.71  2069.58  2082.66  2134.75  2142.35
                             2161.51  2171.07  2185.05  2193.29  2197.42
                             2198.29  2214.41  2216.16  2311.37  2592.44
                             4372.94  4376.28  4376.83  4383.43  4387.56
                             4441.84  4442.73  4467.28  4471.55  4477.77
                             4493.89  4504.03  4509.08  4510.43  4631.20
                             4651.98  4707.73  5088.56  5113.71  5392.33

 Zero-point correction=                           0.317542 (Hartree/Particle)
 Thermal correction to Energy=                    0.336046
 Thermal correction to Enthalpy=                  0.336990
 Thermal correction to Gibbs Free Energy=         0.269359
 Sum of electronic and zero-point Energies=          -1127.217462
 Sum of electronic and thermal Energies=             -1127.198957
 Sum of electronic and thermal Enthalpies=           -1127.198013
 Sum of electronic and thermal Free Energies=        -1127.265644

                     E (Thermal)             CV                S
                      KCal/Mol        Cal/Mol-Kelvin    Cal/Mol-Kelvin
 Total                  210.872             68.723            142.341
 Electronic               0.000              0.000              0.000
 Translational            0.889              2.981             42.521
 Rotational               0.889              2.981             33.258
 Vibrational            209.094             62.762             66.562
 Vibration     1          0.593              1.985              6.244
 Vibration     2          0.594              1.982              5.458
 Vibration     3          0.595              1.979              5.031
 Vibration     4          0.596              1.974              4.537
 Vibration     5          0.599              1.965              4.000
 Vibration     6          0.601              1.958              3.734
 Vibration     7          0.603              1.952              3.530
 Vibration     8          0.606              1.943              3.301
 Vibration     9          0.613              1.919              2.876
 Vibration    10          0.618              1.904              2.692
 Vibration    11          0.638              1.839              2.124
 Vibration    12          0.650              1.802              1.913
 Vibration    13          0.658              1.777              1.794
 Vibration    14          0.662              1.764              1.737
 Vibration    15          0.669              1.743              1.652
 Vibration    16          0.695              1.668              1.399
 Vibration    17          0.700              1.653              1.358
 Vibration    18          0.703              1.644              1.333
 Vibration    19          0.726              1.579              1.173
 Vibration    20          0.757              1.493              1.002
 Vibration    21          0.780              1.434              0.904
 Vibration    22          0.802              1.378              0.819
 Vibration    23          0.809              1.359              0.794
 Vibration    24          0.866              1.226              0.632
 Vibration    25          0.897              1.157              0.561
 Vibration    26          0.931              1.086              0.495
 Vibration    27          0.947              1.054              0.468

                           ! Non-Optimized Parameters !
 Normal termination of Gaussian 16 at Fri Dec 11 13:37:26 2020.

 ----------------------------------------------------------------------
 # B3LYP/6-311++G(d,p) empiricaldispersion=gd3bj scf=xqc pop=npa geom=c
 heck
 ----------------------------------------------------------------------

 ---------------------------------------
 CID_110892454_JID_7918_Energie_neutraal
 ---------------------------------------
 Structure from the checkpoint file:  "JID_7918.chk"
 Charge =  0 Multiplicity = 1

 SCF Done:  E(RB3LYP) =  -1127.78519148     A.U. after   15 cycles
 Normal termination of Gaussian 16 at Fri Dec 11 13:45:44 2020.

 ----------------------------------------------------------------------
 # B3LYP/6-311++G(d,p) empiricaldispersion=gd3bj scf=xqc pop=npa geom=c
 heck
 ----------------------------------------------------------------------

 -------------------------------------
 CID_110892454_JID_7918_Energie_kation
 -------------------------------------
 Structure from the checkpoint file:  "JID_7918.chk"
 Charge =  1 Multiplicity = 2

 SCF Done:  E(UB3LYP) =  -1127.48406489     A.U. after   29 cycles
 Normal termination of Gaussian 16 at Fri Dec 11 14:08:44 2020.
 Gaussian 16:  ES64L-G16RevA.03 25-Dec-2016

 ----------------------------------------------------------------------
 # B3LYP/6-311++G(d,p) empiricaldispersion=gd3bj scf=xqc pop=npa geom=c
 heck
 ----------------------------------------------------------------------

 ------------------------------------
 CID_110892454_JID_7918_Energie_anion
 ------------------------------------
 Structure from the checkpoint file:  "JID_7918.chk"
 Charge = -1 Multiplicity = 2

                         Standard orientation:
 ---------------------------------------------------------------------
 Center     Atomic      Atomic             Coordinates (Angstroms)
 Number     Number       Type             X           Y           Z
 ---------------------------------------------------------------------
      1          6           0       -0.717399    2.965572   -0.993609
      2          6           0       -1.406530    1.598314   -1.027571
      3          6           0       -1.340135    0.814499    0.297662
      4          6           0       -1.870902    1.602749    1.497058
      5          8           0       -3.250401    1.936809    1.350400
      6          7           0       -2.128524   -0.425990    0.220692
      7          6           0       -1.861819   -1.423443   -0.706387
      8          8           0       -2.730530   -1.938407   -1.399312
      9          7           0       -0.521891   -1.813788   -0.790397
     10          6           0        0.247793   -2.134094    0.421382
     11          6           0       -0.074382   -3.543821    0.929710
     12          6           0        1.755310   -1.970677    0.136703
     13          6           0        2.169080   -0.558674   -0.146568
     14          6           0        2.168695    0.113811   -1.339843
     15          6           0        2.585988    1.476055   -1.226950
     16          6           0        2.889899    1.833595    0.057573
     17         16           0        2.676208    0.500805    1.150351
     18          1           0       -1.239927    3.676391   -0.341514
     19          1           0       -0.686862    3.407903   -1.995295
     20          1           0        0.312972    2.877289   -0.635276
     21          1           0       -2.459864    1.711510   -1.318560
     22          1           0       -0.944147    0.972264   -1.798536
     23          1           0       -0.294029    0.566890    0.498670
     24          1           0       -1.813004    0.977767    2.392101
     25          1           0       -1.256782    2.497383    1.665619
     26          1           0       -3.315875    2.616153    0.661651
     27          1           0       -3.123403   -0.219912    0.224915
     28          1           0       -0.459325   -2.552569   -1.485885
     29          1           0       -0.043949   -1.413578    1.187800
     30          1           0        0.210727   -4.300827    0.188027
     31          1           0        0.465087   -3.761739    1.858444
     32          1           0       -1.147136   -3.643794    1.121487
     33          1           0        2.315786   -2.366736    0.991479
     34          1           0        2.018595   -2.600312   -0.723342
     35          1           0        1.872410   -0.355083   -2.271186
     36          1           0        2.657001    2.157514   -2.067475
     37          1           0        3.239153    2.788517    0.425528
 ---------------------------------------------------------------------

 SCF Done:  E(UB3LYP) =  -1127.77477390     A.U. after   33 cycles
 SCF Done:  E(UB3LYP) =  -1127.77477390     a.u. after    1 cycles

 The electronic state is 2-A.
 Alpha  occ. eigenvalues --  -88.76876 -19.03409 -18.99130 -14.22865 -14.22658
 Alpha  occ. eigenvalues --  -10.19628 -10.12456 -10.12136 -10.11309 -10.09368
 Alpha  occ. eigenvalues --  -10.08831 -10.08469 -10.07386 -10.07255 -10.07119
 Alpha  occ. eigenvalues --  -10.06815 -10.06072  -7.85501  -5.81781  -5.81423
 Alpha  occ. eigenvalues --   -5.81119  -0.95347  -0.93509  -0.83742  -0.81127
 Alpha  occ. eigenvalues --   -0.77693  -0.69493  -0.68630  -0.64057  -0.63021
 Alpha  occ. eigenvalues --   -0.62657  -0.58046  -0.55437  -0.52269  -0.51018
 Alpha  occ. eigenvalues --   -0.49012  -0.46023  -0.43795  -0.43298  -0.41146
 Alpha  occ. eigenvalues --   -0.40608  -0.38031  -0.37581  -0.36692  -0.34966
 Alpha  occ. eigenvalues --   -0.34501  -0.33659  -0.32952  -0.31797  -0.31703
 Alpha  occ. eigenvalues --   -0.31108  -0.30159  -0.29703  -0.29349  -0.28031
 Alpha  occ. eigenvalues --   -0.27452  -0.26765  -0.26099  -0.26043  -0.25455
 Alpha  occ. eigenvalues --   -0.24228  -0.23866  -0.23540  -0.19480  -0.18793
 Alpha  occ. eigenvalues --   -0.16266  -0.15273  -0.15090  -0.13273   0.04367
 Alpha virt. eigenvalues --    0.05545   0.06943   0.07258   0.07808   0.08342
 Alpha virt. eigenvalues --    0.09069   0.09411   0.09583   0.10336   0.11047
 Alpha virt. eigenvalues --    0.11343   0.11531   0.11974   0.12068   0.12471

  Beta  occ. eigenvalues --  -88.76859 -19.03373 -18.99128 -14.22858 -14.22656
  Beta  occ. eigenvalues --  -10.19628 -10.12445 -10.12127 -10.11310 -10.09219
  Beta  occ. eigenvalues --  -10.08672 -10.08453 -10.07389 -10.07225 -10.07107
  Beta  occ. eigenvalues --  -10.06808 -10.06035  -7.85485  -5.81776  -5.81419
  Beta  occ. eigenvalues --   -5.81057  -0.95343  -0.93431  -0.83731  -0.81111
  Beta  occ. eigenvalues --   -0.77537  -0.69426  -0.68585  -0.63904  -0.62918
  Beta  occ. eigenvalues --   -0.62609  -0.57927  -0.55382  -0.52209  -0.50988
  Beta  occ. eigenvalues --   -0.48969  -0.45850  -0.43658  -0.43219  -0.41120
  Beta  occ. eigenvalues --   -0.40532  -0.37989  -0.37539  -0.36659  -0.34935
  Beta  occ. eigenvalues --   -0.34413  -0.33628  -0.32914  -0.31759  -0.31654
  Beta  occ. eigenvalues --   -0.31037  -0.30098  -0.29618  -0.29322  -0.27921
  Beta  occ. eigenvalues --   -0.27301  -0.26707  -0.26048  -0.25871  -0.25399
  Beta  occ. eigenvalues --   -0.24184  -0.23758  -0.23471  -0.19448  -0.18784
  Beta  occ. eigenvalues --   -0.16201  -0.15224  -0.14867  -0.12548
  Beta virt. eigenvalues --    0.06542   0.06894   0.07548   0.07816   0.08275
  Beta virt. eigenvalues --    0.08820   0.09225   0.09707   0.09930   0.10394
  Beta virt. eigenvalues --    0.11223   0.11426   0.11777   0.12010   0.12203

 Mulliken charges and spin densities:
               1          2
     1  C    0.255384  -1.002023
     2  C   -0.646778   0.719463
     3  C   -0.556631   0.151901
     4  C    0.487213  -0.851695
     5  O   -0.238580   0.023838
     6  N    0.000426   0.025763
     7  C    0.064418  -0.022937
     8  O   -0.303876   0.002522
     9  N   -0.165677   0.098391
    10  C   -0.242865   0.615608
    11  C    0.662282  -1.305402
    12  C   -0.326450  -1.212189
    13  C   -0.075642   0.987330
    14  C   -0.490023  -0.073120
    15  C   -0.139203   0.044953
    16  C   -0.285040  -0.082086
    17  S    0.310859   0.008747
    18  H   -0.386398   0.530836
    19  H   -0.326654   0.477739
    20  H    0.229906  -0.087303
    21  H    0.041330   0.145945
    22  H    0.144482   0.003771
    23  H    0.250071  -0.287740
    24  H    0.253368  -0.062695
    25  H   -0.073123   0.231868
    26  H   -0.076947   0.341650
    27  H    0.289520   0.022378
    28  H    0.328548  -0.015947
    29  H    0.384156  -0.175494
    30  H   -0.191779   0.335798
    31  H   -0.110315   0.263546
    32  H    0.129090   0.046591
    33  H   -0.336830   0.530155
    34  H   -0.190455   0.373598
    35  H    0.098727   0.052662
    36  H    0.104351   0.045435
    37  H    0.129133   0.098141
 Sum of Mulliken charges =  -1.00000   1.00000

 Dipole moment (field-independent basis, Debye):
    X=              2.3101    Y=             -0.0663    Z=              0.7852  Tot=              2.4408
 Quadrupole moment (field-independent basis, Debye-Ang):
   XX=           -176.1896   YY=           -180.2789   ZZ=           -138.3355
   XY=             16.5645   XZ=             -4.9821   YZ=              0.6048

 Summary of Natural Population Analysis:

                                       Natural Population
                Natural  -----------------------------------------------
    Atom  No    Charge         Core      Valence    Rydberg      Total
 -----------------------------------------------------------------------
      C    1   -0.29093      0.99966     2.28535    0.00593     3.29093
      C    2   -0.20172      0.99962     2.19197    0.01013     3.20172
      C    3   -0.03239      0.99957     2.02096    0.01186     3.03239
      C    4   -0.01244      0.99956     1.99931    0.01357     3.01244
      O    5   -0.37408      0.99990     3.36744    0.00675     4.37408
      N    6   -0.34166      0.99967     2.83265    0.00934     3.84166
      C    7    0.41147      0.99971     1.56440    0.02443     2.58853
      O    8   -0.33286      0.99987     3.32786    0.00512     4.33286
      N    9   -0.33860      0.99967     2.82882    0.01010     3.83860
      C   10   -0.00923      0.99959     1.99876    0.01087     3.00923
      C   11   -0.28932      0.99964     2.28417    0.00551     3.28932
      C   12   -0.21031      0.99955     2.19774    0.01302     3.21031
      C   13   -0.07551      0.99949     2.06157    0.01445     3.07551
      C   14   -0.12975      0.99945     2.11997    0.01033     3.12975
      C   15   -0.13264      0.99953     2.12278    0.01032     3.13264
      C   16   -0.17866      0.99954     2.16785    0.01127     3.17866
      S   17    0.20014      4.99940     2.78175    0.01871     7.79986
      H   18    0.09435      0.00000     0.40357    0.00208     0.40565
      H   19    0.10045      0.00000     0.39863    0.00092     0.39955
      H   20    0.10478      0.00000     0.39364    0.00157     0.39522
      H   21    0.09509      0.00000     0.40360    0.00131     0.40491
      H   22    0.10517      0.00000     0.39375    0.00108     0.39483
      H   23    0.10925      0.00000     0.38822    0.00253     0.39075
      H   24    0.08912      0.00000     0.40978    0.00110     0.41088
      H   25    0.08494      0.00000     0.41400    0.00105     0.41506
      H   26    0.23283      0.00000     0.26258    0.00459     0.26717
      H   27    0.19694      0.00000     0.30116    0.00190     0.30306
      H   28    0.18758      0.00000     0.31054    0.00188     0.31242
      H   29    0.10064      0.00000     0.39740    0.00196     0.39936
      H   30    0.09870      0.00000     0.40007    0.00123     0.40130
      H   31    0.10234      0.00000     0.39680    0.00086     0.39766
      H   32    0.10239      0.00000     0.39695    0.00066     0.39761
      H   33    0.11022      0.00000     0.38815    0.00163     0.38978
      H   34    0.10762      0.00000     0.39064    0.00174     0.39238
      H   35    0.10655      0.00000     0.39249    0.00096     0.39345
      H   36    0.10452      0.00000     0.39467    0.00081     0.39548
      H   37    0.10501      0.00000     0.39412    0.00087     0.39499
 =======================================================================
   * Total *    0.00000     20.99341    47.78411    0.22248    69.00000

 Normal termination of Gaussian 16 at Fri Dec 11 14:34:19 2020.
