 Gaussian 16, Revision A.03,

 -----------------------------------------------------------
 # opt freq B3LYP/6-31G(d) empiricaldispersion=gd3bj scf=xqc
 -----------------------------------------------------------

 -------------------------------
 CID_106556902_JID_6059_neutraal
 -------------------------------
 Symbolic Z-matrix:
 Charge =  0 Multiplicity = 1

 SCF Done:  E(RB3LYP) =  -673.553863520     A.U. after   14 cycles
 SCF Done:  E(RB3LYP) =  -673.559103817     A.U. after   12 cycles
 SCF Done:  E(RB3LYP) =  -673.558766430     A.U. after   12 cycles
 SCF Done:  E(RB3LYP) =  -673.560300814     A.U. after   11 cycles
 SCF Done:  E(RB3LYP) =  -673.560909607     A.U. after   12 cycles
 SCF Done:  E(RB3LYP) =  -673.561313414     A.U. after   12 cycles
 SCF Done:  E(RB3LYP) =  -673.561561663     A.U. after   11 cycles
 SCF Done:  E(RB3LYP) =  -673.561643915     A.U. after   11 cycles
 SCF Done:  E(RB3LYP) =  -673.561885239     A.U. after   12 cycles
 SCF Done:  E(RB3LYP) =  -673.561952198     A.U. after   11 cycles
 SCF Done:  E(RB3LYP) =  -673.562117010     A.U. after    9 cycles
 SCF Done:  E(RB3LYP) =  -673.562119161     A.U. after    9 cycles
 SCF Done:  E(RB3LYP) =  -673.562120112     A.U. after    8 cycles
 SCF Done:  E(RB3LYP) =  -673.562120640     A.U. after    8 cycles
 SCF Done:  E(RB3LYP) =  -673.562120767     A.U. after    7 cycles
 SCF Done:  E(RB3LYP) =  -673.562120825     A.U. after    6 cycles
 Optimization completed.
    -- Stationary point found.
 Normal termination of Gaussian 16 at Thu Dec 10 21:18:58 2020.

 --------------------------------------------------------------------
 #N Geom=AllCheck Guess=TCheck SCRF=Check GenChk RB3LYP/6-31G(d) Freq
 --------------------------------------------------------------------

 Structure from the checkpoint file:  "JID_6059.chk"
 -------------------------------
 CID_106556902_JID_6059_neutraal
 -------------------------------
 Charge =  0 Multiplicity = 1

 SCF Done:  E(RB3LYP) =  -673.562120825     A.U. after    1 cycles

  Exact polarizability: 171.784   7.396 148.031  -4.756  10.483 125.654
 Approx polarizability: 228.606  11.153 210.948 -11.758  24.494 194.191

                      1                      2                      3
                      A                      A                      A
 Frequencies --     18.9273                37.5491                55.7011
 Red. masses --      3.9142                 3.2208                 2.7929
 Frc consts  --      0.0008                 0.0027                 0.0051
 IR Inten    --      0.4097                 0.0721                 0.0940

                      4                      5                      6
                      A                      A                      A
 Frequencies --     63.0783                71.6049                91.7256
 Red. masses --      3.1590                 3.6773                 2.8553
 Frc consts  --      0.0074                 0.0111                 0.0142
 IR Inten    --      0.8368                 1.4514                 0.0616

                      7                      8                      9
                      A                      A                      A
 Frequencies --    125.1757               149.3024               177.6049
 Red. masses --      3.0771                 2.6535                 2.2189
 Frc consts  --      0.0284                 0.0348                 0.0412
 IR Inten    --      0.4415                 1.6293                 1.1513

                     10                     11                     12
                      A                      A                      A
 Frequencies --    212.6994               237.1341               265.9827
 Red. masses --      2.7346                 1.9406                 2.0840
 Frc consts  --      0.0729                 0.0643                 0.0869
 IR Inten    --      0.2256                 0.3457                 2.5256

                     13                     14                     15
                      A                      A                      A
 Frequencies --    279.9606               296.0826               343.9525
 Red. masses --      1.9991                 2.0597                 2.3823
 Frc consts  --      0.0923                 0.1064                 0.1661
 IR Inten    --      2.1478                 3.0771                 1.4530

                     16                     17                     18
                      A                      A                      A
 Frequencies --    374.8654               398.5367               444.9272
 Red. masses --      1.9733                 2.0872                 2.2780
 Frc consts  --      0.1634                 0.1953                 0.2657
 IR Inten    --     11.9320                 6.4108                 8.5665

                     19                     20                     21
                      A                      A                      A
 Frequencies --    517.7902               523.4578               584.3936
 Red. masses --      1.9885                 2.7660                 2.6064
 Frc consts  --      0.3141                 0.4465                 0.5244
 IR Inten    --      3.2448                15.2312                12.8236

                     22                     23                     24
                      A                      A                      A
 Frequencies --    596.5002               624.3639               634.5867
 Red. masses --      2.0823                 4.1808                 4.1464
 Frc consts  --      0.4365                 0.9603                 0.9838
 IR Inten    --     37.7869                 1.7383                 1.6355

                     25                     26                     27
                      A                      A                      A
 Frequencies --    662.0528               693.2391               721.4167
 Red. masses --      2.9817                 1.3544                 2.4025
 Frc consts  --      0.7700                 0.3835                 0.7367
 IR Inten    --      3.7861                60.8001                 0.4332

                     28                     29                     30
                      A                      A                      A
 Frequencies --    761.8423               783.7030               788.3768
 Red. masses --      1.5233                 2.1500                 1.9256
 Frc consts  --      0.5209                 0.7780                 0.7052
 IR Inten    --      2.7647                 1.3290                 7.3081

                     31                     32                     33
                      A                      A                      A
 Frequencies --    829.7442               832.3862               858.4477
 Red. masses --      2.2918                 1.2780                 2.0356
 Frc consts  --      0.9296                 0.5217                 0.8838
 IR Inten    --      6.4748                 6.4086                 1.2670

                     34                     35                     36
                      A                      A                      A
 Frequencies --    865.1481               877.4153               898.8376
 Red. masses --      1.6346                 2.1174                 2.1096
 Frc consts  --      0.7208                 0.9604                 1.0042
 IR Inten    --      2.3946                 8.2524                 1.4569

                     37                     38                     39
                      A                      A                      A
 Frequencies --    915.0295               940.8978               943.6805
 Red. masses --      2.4429                 1.9001                 3.9025
 Frc consts  --      1.2051                 0.9911                 2.0476
 IR Inten    --      0.3721                 3.8929                 0.6645

                     40                     41                     42
                      A                      A                      A
 Frequencies --    964.4239               984.0890              1009.6495
 Red. masses --      1.6681                 1.5633                 1.7398
 Frc consts  --      0.9141                 0.8920                 1.0449
 IR Inten    --      0.9616                 5.9240                 0.6842

                     43                     44                     45
                      A                      A                      A
 Frequencies --   1026.4096              1039.6175              1047.4618
 Red. masses --      1.6325                 1.9856                 1.4720
 Frc consts  --      1.0133                 1.2644                 0.9515
 IR Inten    --      0.6265                 0.9450                 7.9115

                     46                     47                     48
                      A                      A                      A
 Frequencies --   1087.0393              1093.3751              1102.4775
 Red. masses --      1.7049                 2.1747                 2.7671
 Frc consts  --      1.1870                 1.5317                 1.9816
 IR Inten    --      0.9972                 0.4186                 7.5073

                     49                     50                     51
                      A                      A                      A
 Frequencies --   1114.3076              1130.3629              1147.5077
 Red. masses --      1.7240                 1.5719                 2.1052
 Frc consts  --      1.2613                 1.1834                 1.6332
 IR Inten    --     11.3973                 7.2818                 0.6211

                     52                     53                     54
                      A                      A                      A
 Frequencies --   1174.1156              1197.3551              1203.9448
 Red. masses --      1.9368                 1.7435                 1.6480
 Frc consts  --      1.5731                 1.4727                 1.4074
 IR Inten    --     24.2115                20.9322                 0.9505

                     55                     56                     57
                      A                      A                      A
 Frequencies --   1218.7577              1238.5551              1262.9830
 Red. masses --      1.6899                 1.8371                 1.4238
 Frc consts  --      1.4789                 1.6604                 1.3382
 IR Inten    --      2.1601                16.5417                 1.2987

                     58                     59                     60
                      A                      A                      A
 Frequencies --   1266.7143              1271.6818              1309.9047
 Red. masses --      1.5420                 1.2689                 2.5782
 Frc consts  --      1.4578                 1.2090                 2.6064
 IR Inten    --     16.4781                 4.0431                47.3689

                     61                     62                     63
                      A                      A                      A
 Frequencies --   1313.6086              1326.7015              1340.9432
 Red. masses --      1.3378                 1.3114                 1.2249
 Frc consts  --      1.3601                 1.3599                 1.2977
 IR Inten    --      3.3269                 0.9071                 4.1147

                     64                     65                     66
                      A                      A                      A
 Frequencies --   1347.1317              1356.0365              1367.0810
 Red. masses --      1.1550                 1.3010                 1.4066
 Frc consts  --      1.2350                 1.4095                 1.5488
 IR Inten    --      0.5532                 1.2549                 4.6734

                     67                     68                     69
                      A                      A                      A
 Frequencies --   1371.0508              1378.7032              1388.5402
 Red. masses --      1.2980                 2.1525                 1.3515
 Frc consts  --      1.4376                 2.4107                 1.5353
 IR Inten    --      0.6286                 9.5138                14.4582

                     70                     71                     72
                      A                      A                      A
 Frequencies --   1405.3667              1416.0600              1420.0287
 Red. masses --      1.4287                 1.5848                 1.3803
 Frc consts  --      1.6626                 1.8724                 1.6398
 IR Inten    --     31.0352                 1.8605                14.6404

                     73                     74                     75
                      A                      A                      A
 Frequencies --   1435.9128              1443.6087              1458.1837
 Red. masses --      1.4908                 1.2840                 1.8709
 Frc consts  --      1.8111                 1.5766                 2.3438
 IR Inten    --      5.3751                 3.3918                65.1538

                     76                     77                     78
                      A                      A                      A
 Frequencies --   1507.1737              1510.8263              1513.4129
 Red. masses --      1.2049                 1.0797                 1.1516
 Frc consts  --      1.6126                 1.4521                 1.5540
 IR Inten    --     28.6996                 0.4107                 6.2809

                     79                     80                     81
                      A                      A                      A
 Frequencies --   1516.3487              1521.0645              1522.7530
 Red. masses --      1.1051                 1.0953                 1.0938
 Frc consts  --      1.4971                 1.4931                 1.4943
 IR Inten    --     10.7930                 3.1865                 9.0946

                     82                     83                     84
                      A                      A                      A
 Frequencies --   1526.9521              1532.8704              1537.3145
 Red. masses --      1.2692                 1.1945                 1.0587
 Frc consts  --      1.7435                 1.6537                 1.4742
 IR Inten    --     41.8498                27.5191                 2.3478

                     85                     86                     87
                      A                      A                      A
 Frequencies --   1541.6000              1547.5551              1557.2295
 Red. masses --      1.1416                 1.1184                 3.9852
 Frc consts  --      1.5985                 1.5781                 5.6939
 IR Inten    --      4.5141                 1.5575                12.5432

                     88                     89                     90
                      A                      A                      A
 Frequencies --   1587.5152              3031.1446              3032.9229
 Red. masses --      6.0938                 1.0685                 1.0646
 Frc consts  --      9.0484                 5.7843                 5.7700
 IR Inten    --     89.2146                43.9356                17.4469

                     91                     92                     93
                      A                      A                      A
 Frequencies --   3039.2914              3043.7515              3046.8374
 Red. masses --      1.0423                 1.0608                 1.0835
 Frc consts  --      5.6726                 5.7901                 5.9260
 IR Inten    --     17.8969                33.2804                 8.8324

                     94                     95                     96
                      A                      A                      A
 Frequencies --   3048.8566              3060.5132              3063.1136
 Red. masses --      1.0627                 1.0676                 1.0673
 Frc consts  --      5.8201                 5.8919                 5.9003
 IR Inten    --     27.5117                55.5796                51.3377

                     97                     98                     99
                      A                      A                      A
 Frequencies --   3067.7568              3072.6405              3072.8943
 Red. masses --      1.0644                 1.0834                 1.0850
 Frc consts  --      5.9021                 6.0263                 6.0365
 IR Inten    --     64.9886                29.3688                14.0608

                    100                    101                    102
                      A                      A                      A
 Frequencies --   3081.1232              3089.5064              3095.3174
 Red. masses --      1.0990                 1.1002                 1.0945
 Frc consts  --      6.1469                 6.1871                 6.1784
 IR Inten    --     15.5481                49.9368                37.7915

                    103                    104                    105
                      A                      A                      A
 Frequencies --   3107.0377              3111.2036              3117.2448
 Red. masses --      1.1021                 1.1009                 1.1023
 Frc consts  --      6.2687                 6.2786                 6.3106
 IR Inten    --     57.1565                36.6614                21.5011

                    106                    107                    108
                      A                      A                      A
 Frequencies --   3131.9753              3136.0212              3138.2710
 Red. masses --      1.0991                 1.0998                 1.0945
 Frc consts  --      6.3520                 6.3728                 6.3510
 IR Inten    --     15.7188                43.0224                14.6469

                    109                    110                    111
                      A                      A                      A
 Frequencies --   3258.4361              3289.6750              3512.8883
 Red. masses --      1.0917                 1.1034                 1.0741
 Frc consts  --      6.8291                 7.0352                 7.8098
 IR Inten    --      9.4695                 4.9832                 2.2472

 - Thermochemistry -
 -------------------
 Temperature   298.150 Kelvin.  Pressure   1.00000 Atm.
 Atom     1 has atomic number  6 and mass  12.00000

 Molecular mass:   221.18920 amu.
 Principal axes and moments of inertia in atomic units:
                           1         2         3
     Eigenvalues --  2356.442084926.094496177.17443
           X            0.99995  -0.00941  -0.00145
           Y            0.00941   0.99996   0.00104
           Z            0.00144  -0.00105   1.00000
 This molecule is an asymmetric top.
 Rotational symmetry number  1.
 Warning -- assumption of classical behavior for rotation
           may cause significant error
 Rotational temperatures (Kelvin)      0.03676     0.01758     0.01402
 Rotational constants (GHZ):           0.76588     0.36636     0.29216
 Zero-point vibrational energy     931465.4 (Joules/Mol)
                                  222.62557 (Kcal/Mol)
 Warning -- explicit consideration of  22 degrees of freedom as
           vibrations may cause significant error
 Vibrational temperatures:     27.23    54.02    80.14    90.76   103.02
          (Kelvin)            131.97   180.10   214.81   255.53   306.03
                              341.18   382.69   402.80   426.00   494.87
                              539.35   573.41   640.15   744.98   753.14
                              840.81   858.23   898.32   913.03   952.55
                              997.42  1037.96  1096.12  1127.57  1134.30
                             1193.82  1197.62  1235.11  1244.76  1262.40
                             1293.23  1316.52  1353.74  1357.75  1387.59
                             1415.88  1452.66  1476.77  1495.78  1507.06
                             1564.01  1573.12  1586.22  1603.24  1626.34
                             1651.01  1689.29  1722.73  1732.21  1753.52
                             1782.00  1817.15  1822.52  1829.67  1884.66
                             1889.99  1908.83  1929.32  1938.22  1951.03
                             1966.92  1972.64  1983.65  1997.80  2022.01
                             2037.39  2043.10  2065.96  2077.03  2098.00
                             2168.49  2173.74  2177.46  2181.69  2188.47
                             2190.90  2196.94  2205.46  2211.85  2218.02
                             2226.59  2240.51  2284.08  4361.14  4363.70
                             4372.86  4379.28  4383.72  4386.62  4403.40
                             4407.14  4413.82  4420.84  4421.21  4433.05
                             4445.11  4453.47  4470.33  4476.33  4485.02
                             4506.21  4512.04  4515.27  4688.16  4733.11
                             5054.26

 Zero-point correction=                           0.354776 (Hartree/Particle)
 Thermal correction to Energy=                    0.370961
 Thermal correction to Enthalpy=                  0.371905
 Thermal correction to Gibbs Free Energy=         0.309354
 Sum of electronic and zero-point Energies=           -673.207344
 Sum of electronic and thermal Energies=              -673.191160
 Sum of electronic and thermal Enthalpies=            -673.190216
 Sum of electronic and thermal Free Energies=         -673.252767

                     E (Thermal)             CV                S
                      KCal/Mol        Cal/Mol-Kelvin    Cal/Mol-Kelvin
 Total                  232.781             61.972            131.650
 Electronic               0.000              0.000              0.000
 Translational            0.889              2.981             42.084
 Rotational               0.889              2.981             32.639
 Vibrational            231.004             56.010             56.926
 Vibration     1          0.593              1.986              6.744
 Vibration     2          0.594              1.982              5.384
 Vibration     3          0.596              1.975              4.604
 Vibration     4          0.597              1.972              4.358
 Vibration     5          0.598              1.968              4.109
 Vibration     6          0.602              1.955              3.623
 Vibration     7          0.610              1.928              3.019
 Vibration     8          0.618              1.903              2.681
 Vibration     9          0.628              1.870              2.353
 Vibration    10          0.644              1.822              2.020
 Vibration    11          0.656              1.784              1.824
 Vibration    12          0.672              1.735              1.622
 Vibration    13          0.680              1.711              1.534
 Vibration    14          0.690              1.681              1.439
 Vibration    15          0.723              1.588              1.194
 Vibration    16          0.746              1.524              1.060
 Vibration    17          0.765              1.473              0.968
 Vibration    18          0.804              1.372              0.811
 Vibration    19          0.873              1.211              0.615
 Vibration    20          0.878              1.198              0.602
 Vibration    21          0.941              1.065              0.477
 Vibration    22          0.954              1.039              0.456

 Optimization completed.
    -- Stationary point found.
 Normal termination of Gaussian 16 at Thu Dec 10 21:33:32 2020.

 ----------------------------------------------------------------------
 # B3LYP/6-311++G(d,p) empiricaldispersion=gd3bj scf=xqc pop=npa geom=c
 heck
 ----------------------------------------------------------------------

 ---------------------------------------
 CID_106556902_JID_6059_Energie_neutraal
 ---------------------------------------
 Structure from the checkpoint file:  "JID_6059.chk"
 Charge =  0 Multiplicity = 1

 SCF Done:  E(RB3LYP) =  -673.745212202     A.U. after   14 cycles
 Normal termination of Gaussian 16 at Thu Dec 10 21:40:38 2020.

 ----------------------------------------------------------------------
 # B3LYP/6-311++G(d,p) empiricaldispersion=gd3bj scf=xqc pop=npa geom=c
 heck
 ----------------------------------------------------------------------

 -------------------------------------
 CID_106556902_JID_6059_Energie_kation
 -------------------------------------
 Structure from the checkpoint file:  "JID_6059.chk"
 Charge =  1 Multiplicity = 2

 SCF Done:  E(UB3LYP) =  -673.474458399     A.U. after   21 cycles
 Normal termination of Gaussian 16 at Thu Dec 10 21:55:45 2020.
 Gaussian 16:  ES64L-G16RevA.03 25-Dec-2016

 ----------------------------------------------------------------------
 # B3LYP/6-311++G(d,p) empiricaldispersion=gd3bj scf=xqc pop=npa geom=c
 heck
 ----------------------------------------------------------------------

 ------------------------------------
 CID_106556902_JID_6059_Energie_anion
 ------------------------------------
 Structure from the checkpoint file:  "JID_6059.chk"
 Charge = -1 Multiplicity = 2

                         Standard orientation:
 ---------------------------------------------------------------------
 Center     Atomic      Atomic             Coordinates (Angstroms)
 Number     Number       Type             X           Y           Z
 ---------------------------------------------------------------------
      1          6           0        3.091866   -2.730299   -0.180118
      2          6           0        2.126014   -1.830431    0.596854
      3          6           0        2.742074   -0.498204    1.050914
      4          6           0        3.268327    0.400127   -0.077439
      5          6           0        2.202324    0.806362   -1.104420
      6          7           0        1.048462    1.446005   -0.485211
      7          6           0        1.081954    2.556870    0.350874
      8          6           0       -0.174846    2.660807    0.879896
      9          7           0       -0.996467    1.665015    0.386854
     10          6           0       -0.234863    0.952341   -0.424963
     11          7           0       -0.581832   -0.205275   -1.125290
     12          6           0       -1.831152   -0.901325   -0.779748
     13          6           0       -1.894553   -1.318101    0.719920
     14          6           0       -3.223803   -0.753153    1.257365
     15          6           0       -4.119010   -0.648766    0.010861
     16          6           0       -3.149258   -0.132292   -1.061711
     17          1           0        3.391715   -2.280200   -1.134035
     18          1           0        2.631737   -3.698203   -0.408084
     19          1           0        4.006888   -2.922360    0.394455
     20          1           0        1.232107   -1.637829   -0.007948
     21          1           0        1.777091   -2.365072    1.490010
     22          1           0        1.995972    0.063508    1.626594
     23          1           0        3.574313   -0.701785    1.738774
     24          1           0        3.707347    1.304757    0.361459
     25          1           0        4.079580   -0.098606   -0.622475
     26          1           0        2.635135    1.480827   -1.853176
     27          1           0        1.827624   -0.074805   -1.628912
     28          1           0        1.975269    3.151647    0.464894
     29          1           0       -0.550710    3.401963    1.571819
     30          1           0       -0.491788   -0.085310   -2.130531
     31          1           0       -1.812286   -1.807133   -1.395954
     32          1           0       -1.874696   -2.411163    0.794677
     33          1           0       -1.032748   -0.938908    1.273386
     34          1           0       -3.047775    0.249954    1.657931
     35          1           0       -3.658879   -1.370374    2.050719
     36          1           0       -4.983767    0.007817    0.154940
     37          1           0       -4.502710   -1.641286   -0.265046
     38          1           0       -2.974386    0.935772   -0.911153
     39          1           0       -3.506630   -0.287035   -2.086529
 ---------------------------------------------------------------------

 SCF Done:  E(UB3LYP) =  -673.733218113     A.U. after   29 cycles

 The electronic state is 2-A.
 Alpha  occ. eigenvalues --  -14.26302 -14.22097 -14.18725 -10.15382 -10.11040
 Alpha  occ. eigenvalues --  -10.10348 -10.09415 -10.08538 -10.07296 -10.06886
 Alpha  occ. eigenvalues --  -10.06603 -10.06343 -10.06263 -10.05994 -10.05762
 Alpha  occ. eigenvalues --  -10.05595  -0.92354  -0.82160  -0.78648  -0.72651
 Alpha  occ. eigenvalues --   -0.70336  -0.65276  -0.63751  -0.61065  -0.59757
 Alpha  occ. eigenvalues --   -0.58521  -0.53505  -0.50412  -0.49096  -0.47684
 Alpha  occ. eigenvalues --   -0.46771  -0.44227  -0.42883  -0.39982  -0.38841
 Alpha  occ. eigenvalues --   -0.37898  -0.36765  -0.36116  -0.34130  -0.33908
 Alpha  occ. eigenvalues --   -0.32473  -0.32073  -0.31817  -0.30723  -0.30466
 Alpha  occ. eigenvalues --   -0.28435  -0.28096  -0.27067  -0.26257  -0.24689
 Alpha  occ. eigenvalues --   -0.24300  -0.23942  -0.23309  -0.23016  -0.22484
 Alpha  occ. eigenvalues --   -0.22327  -0.22199  -0.17655  -0.17398  -0.16821
 Alpha  occ. eigenvalues --   -0.10713   0.04236
 Alpha virt. eigenvalues --    0.06220   0.06988   0.07124   0.08259   0.08452
 Alpha virt. eigenvalues --    0.08557   0.09063   0.09817   0.10389   0.10742
 Alpha virt. eigenvalues --    0.10928   0.11463   0.11536   0.12240   0.12462

  Beta  occ. eigenvalues --  -14.26303 -14.22072 -14.18722 -10.15382 -10.11006
  Beta  occ. eigenvalues --  -10.10333 -10.09404 -10.08536 -10.07274 -10.06880
  Beta  occ. eigenvalues --  -10.06597 -10.06341 -10.06256 -10.05985 -10.05752
  Beta  occ. eigenvalues --  -10.05562  -0.92347  -0.82121  -0.78635  -0.72631
  Beta  occ. eigenvalues --   -0.70308  -0.65240  -0.63730  -0.61045  -0.59718
  Beta  occ. eigenvalues --   -0.58482  -0.53451  -0.50397  -0.49062  -0.47659
  Beta  occ. eigenvalues --   -0.46733  -0.44179  -0.42825  -0.39951  -0.38798
  Beta  occ. eigenvalues --   -0.37862  -0.36740  -0.36094  -0.34112  -0.33881
  Beta  occ. eigenvalues --   -0.32444  -0.32046  -0.31799  -0.30699  -0.30439
  Beta  occ. eigenvalues --   -0.28389  -0.28076  -0.27031  -0.26226  -0.24669
  Beta  occ. eigenvalues --   -0.24278  -0.23928  -0.23290  -0.22992  -0.22460
  Beta  occ. eigenvalues --   -0.22299  -0.22170  -0.17637  -0.17390  -0.16808
  Beta  occ. eigenvalues --   -0.10696
  Beta virt. eigenvalues --    0.06433   0.06907   0.07457   0.07861   0.08612
  Beta virt. eigenvalues --    0.08705   0.08872   0.09366   0.10142   0.10723
  Beta virt. eigenvalues --    0.11030   0.11206   0.11625   0.11810   0.12417

 Mulliken charges and spin densities:
               1          2
     1  C    0.473480  -1.145457
     2  C   -0.820558   0.569556
     3  C    0.000449  -0.058418
     4  C    0.425712  -0.890159
     5  C    0.201092  -0.356933
     6  N    0.069127   0.108936
     7  C   -0.421370   0.238134
     8  C    0.675401  -0.598932
     9  N   -0.036645   0.026102
    10  C   -0.171224  -0.567908
    11  N   -0.159276   0.027343
    12  C    0.063139  -0.139391
    13  C    0.548514  -0.624434
    14  C   -0.583092   0.121236
    15  C   -0.021180  -0.461305
    16  C   -0.250444  -0.049847
    17  H   -0.158613   0.312565
    18  H   -0.251435   0.388798
    19  H   -0.123658   0.255542
    20  H    1.021967  -0.739949
    21  H   -0.015740   0.155502
    22  H    0.079123   0.064360
    23  H   -0.053833   0.228506
    24  H    0.063459   0.088169
    25  H   -0.271836   0.436569
    26  H   -0.641092   0.862078
    27  H   -0.102815   0.237977
    28  H   -0.281061   0.425011
    29  H    0.139869   0.007107
    30  H   -0.246007   0.547224
    31  H   -0.498670   0.712205
    32  H   -0.056064   0.209762
    33  H    0.097199   0.037822
    34  H    0.119974   0.023579
    35  H    0.123248   0.018996
    36  H    0.095944   0.049967
    37  H    0.032477   0.086918
    38  H    0.135934   0.042807
    39  H   -0.201495   0.349960
 Sum of Mulliken charges =  -1.00000   1.00000

 Dipole moment (field-independent basis, Debye):
    X=             -3.6139    Y=              2.4442    Z=              5.1787  Tot=              6.7715
 Quadrupole moment (field-independent basis, Debye-Ang):
   XX=           -168.1149   YY=           -148.5872   ZZ=           -143.4618
   XY=              0.5193   XZ=              3.4142   YZ=             -1.3968

 Summary of Natural Population Analysis:

                                       Natural Population
                Natural  -----------------------------------------------
    Atom  No    Charge         Core      Valence    Rydberg      Total
 -----------------------------------------------------------------------
      C    1   -0.28649      0.99967     2.28200    0.00482     3.28649
      C    2   -0.19951      0.99963     2.19199    0.00789     3.19951
      C    3   -0.19090      0.99962     2.18317    0.00811     3.19090
      C    4   -0.19349      0.99962     2.18529    0.00858     3.19349
      C    5   -0.08539      0.99960     2.07372    0.01207     3.08539
      N    6   -0.21893      0.99962     2.70688    0.01242     3.71893
      C    7   -0.04386      0.99954     2.03244    0.01188     3.04386
      C    8   -0.03301      0.99957     2.02111    0.01233     3.03301
      N    9   -0.28705      0.99969     2.77845    0.00891     3.78705
      C   10    0.28742      0.99958     1.69546    0.01754     2.71258
      N   11   -0.33576      0.99968     2.82325    0.01283     3.83576
      C   12   -0.00602      0.99959     1.99122    0.01520     3.00602
      C   13   -0.19436      0.99962     2.18620    0.00854     3.19436
      C   14   -0.19351      0.99963     2.18717    0.00670     3.19351
      C   15   -0.19095      0.99964     2.18376    0.00755     3.19095
      C   16   -0.20241      0.99961     2.19435    0.00845     3.20241
      H   17    0.09715      0.00000     0.40168    0.00117     0.40285
      H   18    0.09991      0.00000     0.39914    0.00095     0.40009
      H   19    0.09303      0.00000     0.40593    0.00104     0.40697
      H   20    0.10503      0.00000     0.39216    0.00280     0.39497
      H   21    0.09283      0.00000     0.40612    0.00105     0.40717
      H   22    0.09949      0.00000     0.39899    0.00152     0.40051
      H   23    0.09459      0.00000     0.40447    0.00094     0.40541
      H   24    0.09707      0.00000     0.40174    0.00120     0.40293
      H   25    0.10296      0.00000     0.39566    0.00138     0.39704
      H   26    0.10130      0.00000     0.39631    0.00239     0.39870
      H   27    0.10923      0.00000     0.38830    0.00247     0.39077
      H   28    0.10345      0.00000     0.39555    0.00100     0.39655
      H   29    0.09354      0.00000     0.40567    0.00078     0.40646
      H   30    0.19204      0.00000     0.30395    0.00400     0.30796
      H   31    0.09792      0.00000     0.39996    0.00212     0.40208
      H   32    0.09724      0.00000     0.40160    0.00115     0.40276
      H   33    0.10658      0.00000     0.39213    0.00130     0.39342
      H   34    0.10396      0.00000     0.39474    0.00130     0.39604
      H   35    0.09305      0.00000     0.40608    0.00088     0.40695
      H   36    0.09586      0.00000     0.40337    0.00076     0.40414
      H   37    0.09088      0.00000     0.40804    0.00109     0.40912
      H   38    0.10952      0.00000     0.38863    0.00185     0.39048
      H   39    0.09756      0.00000     0.40136    0.00108     0.40244
 =======================================================================
   * Total *    0.00000     15.99392    44.80805    0.19803    61.00000

 Normal termination of Gaussian 16 at Thu Dec 10 22:15:46 2020.
