 Gaussian 16, Revision A.03,

 -----------------------------------------------------------
 # opt freq B3LYP/6-31G(d) empiricaldispersion=gd3bj scf=xqc
 -----------------------------------------------------------

 -------------------------------
 CID_152332108_JID_4976_neutraal
 -------------------------------
 Symbolic Z-matrix:
 Charge =  0 Multiplicity = 1

 SCF Done:  E(RB3LYP) =  -1031.80569215     A.U. after   14 cycles
 SCF Done:  E(RB3LYP) =  -1031.81212387     A.U. after   12 cycles
 SCF Done:  E(RB3LYP) =  -1031.81207117     A.U. after   12 cycles
 SCF Done:  E(RB3LYP) =  -1031.81322446     A.U. after   11 cycles
 SCF Done:  E(RB3LYP) =  -1031.81340513     A.U. after   12 cycles
 SCF Done:  E(RB3LYP) =  -1031.81343412     A.U. after   11 cycles
 SCF Done:  E(RB3LYP) =  -1031.81365344     A.U. after   10 cycles
 SCF Done:  E(RB3LYP) =  -1031.81366391     A.U. after    9 cycles
 SCF Done:  E(RB3LYP) =  -1031.81366896     A.U. after    8 cycles
 SCF Done:  E(RB3LYP) =  -1031.81366986     A.U. after    7 cycles
 SCF Done:  E(RB3LYP) =  -1031.81366999     A.U. after    7 cycles
 Optimization completed.
    -- Stationary point found.
 Normal termination of Gaussian 16 at Thu Dec 10 11:02:25 2020.

 --------------------------------------------------------------------
 #N Geom=AllCheck Guess=TCheck SCRF=Check GenChk RB3LYP/6-31G(d) Freq
 --------------------------------------------------------------------

 Structure from the checkpoint file:  "JID_4976.chk"
 -------------------------------
 CID_152332108_JID_4976_neutraal
 -------------------------------
 Charge =  0 Multiplicity = 1

 SCF Done:  E(RB3LYP) =  -1031.81366999     A.U. after    1 cycles

  Exact polarizability: 119.870   0.224 120.397   0.373   0.153 109.795
 Approx polarizability: 171.215   2.012 178.164   1.754   2.295 177.064

                      1                      2                      3
                      A                      A                      A
 Frequencies --     81.8729               112.1844               172.8456
 Red. masses --      7.1594                 2.1796                 3.6212
 Frc consts  --      0.0283                 0.0162                 0.0637
 IR Inten    --      1.0439                 2.3810                 5.2285

                      4                      5                      6
                      A                      A                      A
 Frequencies --    184.4913               195.8334               228.6895
 Red. masses --      5.0509                 1.3453                 1.1678
 Frc consts  --      0.1013                 0.0304                 0.0360
 IR Inten    --      0.3301                 1.9756                 0.2313

                      7                      8                      9
                      A                      A                      A
 Frequencies --    243.1916               263.1909               285.3493
 Red. masses --      2.8059                 3.0350                 4.0088
 Frc consts  --      0.0978                 0.1239                 0.1923
 IR Inten    --      0.4895                 1.0548                 6.7716

                     10                     11                     12
                      A                      A                      A
 Frequencies --    292.4912               337.6788               340.2286
 Red. masses --      5.0013                 2.1926                 2.1768
 Frc consts  --      0.2521                 0.1473                 0.1485
 IR Inten    --      2.3299                11.9503                 4.8690

                     13                     14                     15
                      A                      A                      A
 Frequencies --    356.7293               382.6889               402.9885
 Red. masses --      1.8606                 2.3889                 2.7130
 Frc consts  --      0.1395                 0.2061                 0.2596
 IR Inten    --      2.7097                 4.5534                 2.3385

                     16                     17                     18
                      A                      A                      A
 Frequencies --    440.1799               449.4496               468.2353
 Red. masses --      2.0919                 3.8534                 5.1619
 Frc consts  --      0.2388                 0.4586                 0.6668
 IR Inten    --      0.4104                10.3670                12.0035

                     19                     20                     21
                      A                      A                      A
 Frequencies --    478.2070               513.8015               542.0264
 Red. masses --      4.9256                 3.7290                 3.0423
 Frc consts  --      0.6637                 0.5800                 0.5266
 IR Inten    --      3.4736                 2.7331                 2.3277

                     22                     23                     24
                      A                      A                      A
 Frequencies --    574.3501               597.5754               650.1197
 Red. masses --      3.6172                10.4391                 3.8312
 Frc consts  --      0.7030                 2.1963                 0.9541
 IR Inten    --      0.2833                68.4251                 0.4089

                     25                     26                     27
                      A                      A                      A
 Frequencies --    740.5028               798.3460               809.1434
 Red. masses --      2.7700                 2.4413                 3.5294
 Frc consts  --      0.8949                 0.9168                 1.3615
 IR Inten    --      2.0480                25.6988                86.3508

                     28                     29                     30
                      A                      A                      A
 Frequencies --    843.4555               867.7291               890.9788
 Red. masses --      2.3353                 2.1229                 1.6927
 Frc consts  --      0.9788                 0.9418                 0.7917
 IR Inten    --      2.9110                 2.2205               114.1623

                     31                     32                     33
                      A                      A                      A
 Frequencies --    908.5676               935.1677               941.0939
 Red. masses --      1.4256                 2.3352                 1.9153
 Frc consts  --      0.6934                 1.2032                 0.9994
 IR Inten    --     69.2169                17.8497                28.0362

                     34                     35                     36
                      A                      A                      A
 Frequencies --    965.0800               977.1377               987.1799
 Red. masses --      1.8602                 1.4085                 2.0459
 Frc consts  --      1.0208                 0.7924                 1.1747
 IR Inten    --      4.1402                 3.7633                20.6537

                     37                     38                     39
                      A                      A                      A
 Frequencies --   1015.6251              1025.0451              1029.1969
 Red. masses --      1.8214                 2.2937                 1.8348
 Frc consts  --      1.1069                 1.4200                 1.1451
 IR Inten    --      1.3897                 2.8397                 2.2803

                     40                     41                     42
                      A                      A                      A
 Frequencies --   1066.3410              1084.1304              1096.0877
 Red. masses --      1.7723                 1.9791                 2.6773
 Frc consts  --      1.1874                 1.3705                 1.8951
 IR Inten    --     16.3896                 4.3003                27.9011

                     43                     44                     45
                      A                      A                      A
 Frequencies --   1124.4963              1150.1051              1157.0498
 Red. masses --      1.7101                 1.7736                 2.9371
 Frc consts  --      1.2741                 1.3822                 2.3168
 IR Inten    --      8.6514                70.8273                90.2697

                     46                     47                     48
                      A                      A                      A
 Frequencies --   1176.6769              1210.7416              1233.4258
 Red. masses --      1.9691                 1.9873                 1.8424
 Frc consts  --      1.6063                 1.7164                 1.6514
 IR Inten    --      2.9802                 5.2376                 5.6026

                     49                     50                     51
                      A                      A                      A
 Frequencies --   1252.4117              1262.2776              1274.7413
 Red. masses --      1.8637                 1.7684                 1.2634
 Frc consts  --      1.7223                 1.6601                 1.2095
 IR Inten    --      4.7461                 5.2403                13.8278

                     52                     53                     54
                      A                      A                      A
 Frequencies --   1288.5185              1314.7656              1318.0290
 Red. masses --      1.8727                 2.1804                 2.1905
 Frc consts  --      1.8319                 2.2206                 2.2421
 IR Inten    --      6.9107                51.7669                32.3074

                     55                     56                     57
                      A                      A                      A
 Frequencies --   1329.5470              1343.6964              1349.1656
 Red. masses --      2.1552                 1.4886                 1.5978
 Frc consts  --      2.2446                 1.5836                 1.7135
 IR Inten    --     65.1028                 0.9589                 7.4610

                     58                     59                     60
                      A                      A                      A
 Frequencies --   1361.3932              1442.2646              1447.8202
 Red. masses --      1.4679                 1.2311                 1.1719
 Frc consts  --      1.6029                 1.5088                 1.4473
 IR Inten    --      1.7871                 9.6846               157.1666

                     61                     62                     63
                      A                      A                      A
 Frequencies --   1462.1165              1469.7828              1512.6622
 Red. masses --      1.2192                 1.1994                 1.0669
 Frc consts  --      1.5356                 1.5266                 1.4383
 IR Inten    --     26.9749                 4.9322                 1.6380

                     64                     65                     66
                      A                      A                      A
 Frequencies --   1518.2002              1531.0171              1534.5010
 Red. masses --      1.0527                 1.0752                 1.0624
 Frc consts  --      1.4296                 1.4849                 1.4740
 IR Inten    --      1.9261                 8.5281                 4.5321

                     67                     68                     69
                      A                      A                      A
 Frequencies --   1540.0121              1554.4821              1560.0457
 Red. masses --      1.0678                 1.0578                 1.0883
 Frc consts  --      1.4921                 1.5060                 1.5605
 IR Inten    --      3.5928                 3.2813                 9.7054

                     70                     71                     72
                      A                      A                      A
 Frequencies --   1691.9194              2999.4863              3061.3629
 Red. masses --      1.0863                 1.0711                 1.0635
 Frc consts  --      1.8321                 5.6777                 5.8723
 IR Inten    --     41.5534               639.4919                22.5585

                     73                     74                     75
                      A                      A                      A
 Frequencies --   3063.3893              3069.7700              3075.1225
 Red. masses --      1.0443                 1.0428                 1.0635
 Frc consts  --      5.7742                 5.7901                 5.9254
 IR Inten    --     18.0380                30.6826                37.2728

                     76                     77                     78
                      A                      A                      A
 Frequencies --   3103.0759              3109.5553              3112.0575
 Red. masses --      1.0889                 1.0706                 1.0938
 Frc consts  --      6.1774                 6.0990                 6.2412
 IR Inten    --     32.0664                23.6160                14.4922

                     79                     80                     81
                      A                      A                      A
 Frequencies --   3118.7981              3131.1782              3134.3889
 Red. masses --      1.1002                 1.0935                 1.0943
 Frc consts  --      6.3049                 6.3166                 6.3343
 IR Inten    --     28.5467                 8.9574                16.1330

                     82                     83                     84
                      A                      A                      A
 Frequencies --   3139.3602              3150.0711              3158.9211
 Red. masses --      1.0923                 1.1042                 1.1007
 Frc consts  --      6.3426                 6.4554                 6.4716
 IR Inten    --     17.4595                19.6408                25.2542

                     85                     86                     87
                      A                      A                      A
 Frequencies --   3166.0224              3491.7427              3576.2798
 Red. masses --      1.0983                 1.0504                 1.0932
 Frc consts  --      6.4865                 7.5454                 8.2381
 IR Inten    --     18.0752                 1.7001                 5.9007

 - Thermochemistry -
 -------------------
 Temperature   298.150 Kelvin.  Pressure   1.00000 Atm.
 Atom     1 has atomic number  6 and mass  12.00000

 Molecular mass:   219.09292 amu.
 Principal axes and moments of inertia in atomic units:
                           1         2         3
     Eigenvalues --  1995.665892769.555813254.83431
           X            0.99938  -0.03527  -0.00071
           Y            0.03526   0.99934  -0.00890
           Z            0.00102   0.00887   0.99996
 This molecule is an asymmetric top.
 Rotational symmetry number  1.
 Warning -- assumption of classical behavior for rotation
           may cause significant error
 Rotational temperatures (Kelvin)      0.04340     0.03127     0.02661
 Rotational constants (GHZ):           0.90433     0.65164     0.55448
 Zero-point vibrational energy     703689.2 (Joules/Mol)
                                  168.18577 (Kcal/Mol)
 Warning -- explicit consideration of  23 degrees of freedom as
           vibrations may cause significant error
 Vibrational temperatures:    117.80   161.41   248.69   265.44   281.76
          (Kelvin)            329.03   349.90   378.67   410.55   420.83
                              485.84   489.51   513.25   550.60   579.81
                              633.32   646.66   673.69   688.03   739.25
                              779.86   826.36   859.78   935.38  1065.42
                             1148.64  1164.18  1213.54  1248.47  1281.92
                             1307.23  1345.50  1354.02  1388.53  1405.88
                             1420.33  1461.26  1474.81  1480.78  1534.23
                             1559.82  1577.03  1617.90  1654.74  1664.74
                             1692.98  1741.99  1774.62  1801.94  1816.14
                             1834.07  1853.89  1891.65  1896.35  1912.92
                             1933.28  1941.15  1958.74  2075.10  2083.09
                             2103.66  2114.69  2176.38  2184.35  2202.79
                             2207.80  2215.73  2236.55  2244.56  2434.29
                             4315.59  4404.62  4407.53  4416.71  4424.42
                             4464.63  4473.96  4477.56  4487.25  4505.07
                             4509.69  4516.84  4532.25  4544.98  4555.20
                             5023.84  5145.47

 Zero-point correction=                           0.268021 (Hartree/Particle)
 Thermal correction to Energy=                    0.281242
 Thermal correction to Enthalpy=                  0.282186
 Thermal correction to Gibbs Free Energy=         0.230098
 Sum of electronic and zero-point Energies=          -1031.545649
 Sum of electronic and thermal Energies=             -1031.532428
 Sum of electronic and thermal Enthalpies=           -1031.531484
 Sum of electronic and thermal Free Energies=        -1031.583572

                     E (Thermal)             CV                S
                      KCal/Mol        Cal/Mol-Kelvin    Cal/Mol-Kelvin
 Total                  176.482             54.525            109.629
 Electronic               0.000              0.000              0.000
 Translational            0.889              2.981             42.056
 Rotational               0.889              2.981             31.265
 Vibrational            174.705             48.564             36.308
 Vibration     1          0.600              1.962              3.845
 Vibration     2          0.607              1.939              3.231
 Vibration     3          0.626              1.876              2.404
 Vibration     4          0.631              1.861              2.282
 Vibration     5          0.636              1.846              2.172
 Vibration     6          0.651              1.797              1.889
 Vibration     7          0.659              1.774              1.779
 Vibration     8          0.670              1.740              1.641
 Vibration     9          0.683              1.701              1.501
 Vibration    10          0.688              1.688              1.460
 Vibration    11          0.718              1.600              1.223
 Vibration    12          0.720              1.595              1.211
 Vibration    13          0.732              1.561              1.136
 Vibration    14          0.752              1.507              1.029
 Vibration    15          0.768              1.464              0.952
 Vibration    16          0.800              1.383              0.826
 Vibration    17          0.808              1.362              0.797
 Vibration    18          0.825              1.321              0.743
 Vibration    19          0.835              1.298              0.715
 Vibration    20          0.869              1.219              0.625
 Vibration    21          0.897              1.157              0.561
 Vibration    22          0.931              1.087              0.496
 Vibration    23          0.955              1.037              0.454

 Optimization completed.
    -- Stationary point found.
 Normal termination of Gaussian 16 at Thu Dec 10 11:14:03 2020.

 ----------------------------------------------------------------------
 # B3LYP/6-311++G(d,p) empiricaldispersion=gd3bj scf=xqc pop=npa geom=c
 heck
 ----------------------------------------------------------------------

 ---------------------------------------
 CID_152332108_JID_4976_Energie_neutraal
 ---------------------------------------
 Structure from the checkpoint file:  "JID_4976.chk"
 Charge =  0 Multiplicity = 1

 SCF Done:  E(RB3LYP) =  -1032.02942868     A.U. after   16 cycles
 Normal termination of Gaussian 16 at Thu Dec 10 11:19:09 2020.

 ----------------------------------------------------------------------
 # B3LYP/6-311++G(d,p) empiricaldispersion=gd3bj scf=xqc pop=npa geom=c
 heck
 ----------------------------------------------------------------------

 -------------------------------------
 CID_152332108_JID_4976_Energie_kation
 -------------------------------------
 Structure from the checkpoint file:  "JID_4976.chk"
 Charge =  1 Multiplicity = 2

 SCF Done:  E(UB3LYP) =  -1031.67171124     A.U. after   33 cycles
 SCF Done:  E(UB3LYP) =  -1031.67171124     a.u. after    1 cycles
 Normal termination of Gaussian 16 at Thu Dec 10 11:33:36 2020.
 Gaussian 16:  ES64L-G16RevA.03 25-Dec-2016

 ----------------------------------------------------------------------
 # B3LYP/6-311++G(d,p) empiricaldispersion=gd3bj scf=xqc pop=npa geom=c
 heck
 ----------------------------------------------------------------------

 ------------------------------------
 CID_152332108_JID_4976_Energie_anion
 ------------------------------------
 Structure from the checkpoint file:  "JID_4976.chk"
 Charge = -1 Multiplicity = 2

                         Standard orientation:
 ---------------------------------------------------------------------
 Center     Atomic      Atomic             Coordinates (Angstroms)
 Number     Number       Type             X           Y           Z
 ---------------------------------------------------------------------
      1          6           0        1.076308   -2.276028   -0.501172
      2          6           0        1.103125   -0.971656    0.309782
      3          6           0        2.289531   -0.017135   -0.046586
      4          6           0        2.035964    0.302496   -1.535361
      5          6           0        0.482025    0.403234   -1.608734
      6          6           0        0.054987    0.094959   -0.154444
      7          6           0        0.398634    1.306442    0.751872
      8          6           0        1.959590    1.267155    0.753822
      9          7           0       -0.274194    2.540910    0.311535
     10         16           0       -1.694740   -0.327516   -0.013929
     11          8           0       -2.040229   -1.402892   -0.939031
     12          8           0       -2.012357   -0.456048    1.412172
     13          8           0       -2.347749    1.033933   -0.605136
     14          6           0        1.044417   -1.361633    1.795439
     15          1           0        1.961724   -2.874201   -0.257490
     16          1           0        1.061371   -2.124490   -1.581121
     17          1           0        0.188672   -2.861452   -0.246959
     18          1           0        3.281475   -0.427923    0.162228
     19          1           0        2.414268   -0.488193   -2.188158
     20          1           0        2.528023    1.232602   -1.837636
     21          1           0        0.124481    1.380816   -1.938952
     22          1           0        0.046906   -0.328856   -2.290615
     23          1           0        0.004889    1.103064    1.748019
     24          1           0        2.379259    2.158219    0.272568
     25          1           0        2.352126    1.236873    1.773986
     26          1           0       -0.298942    3.220589    1.067895
     27          1           0        0.220808    2.976966   -0.464316
     28          1           0       -1.798995    1.798497   -0.230267
     29          1           0        0.103520   -1.868622    2.022897
     30          1           0        1.867975   -2.049658    2.016508
     31          1           0        1.132824   -0.517313    2.481789
 ---------------------------------------------------------------------

 SCF Done:  E(UB3LYP) =  -1032.02700589     A.U. after   28 cycles

 The electronic state is 2-A.
 Alpha  occ. eigenvalues --  -88.97014 -19.05329 -19.02031 -19.01816 -14.22002
 Alpha  occ. eigenvalues --  -10.12092 -10.11947 -10.10579 -10.08548 -10.08278
 Alpha  occ. eigenvalues --  -10.07606 -10.07284 -10.06923 -10.06727  -8.03102
 Alpha  occ. eigenvalues --   -5.99476  -5.99310  -5.99143  -1.03944  -0.92673
 Alpha  occ. eigenvalues --   -0.91094  -0.82593  -0.77950  -0.67777  -0.66332
 Alpha  occ. eigenvalues --   -0.65166  -0.59067  -0.56251  -0.54423  -0.52414
 Alpha  occ. eigenvalues --   -0.48494  -0.45762  -0.43989  -0.40880  -0.39836
 Alpha  occ. eigenvalues --   -0.38553  -0.37837  -0.37220  -0.35208  -0.33355
 Alpha  occ. eigenvalues --   -0.33137  -0.31639  -0.31394  -0.30435  -0.29812
 Alpha  occ. eigenvalues --   -0.28908  -0.28625  -0.27265  -0.26656  -0.25495
 Alpha  occ. eigenvalues --   -0.25005  -0.24258  -0.23954  -0.21929  -0.21462
 Alpha  occ. eigenvalues --   -0.21336  -0.20385  -0.19750  -0.17423   0.03826
 Alpha virt. eigenvalues --    0.06493   0.07321   0.08137   0.09051   0.09443
 Alpha virt. eigenvalues --    0.10320   0.10845   0.11013   0.12230   0.12612
 Alpha virt. eigenvalues --    0.12988   0.13318   0.13745   0.14050   0.15317

  Beta  occ. eigenvalues --  -88.97011 -19.05318 -19.02025 -19.01812 -14.21912
  Beta  occ. eigenvalues --  -10.12088 -10.11934 -10.10578 -10.08538 -10.08259
  Beta  occ. eigenvalues --  -10.07582 -10.07243 -10.06912 -10.06715  -8.03098
  Beta  occ. eigenvalues --   -5.99472  -5.99308  -5.99140  -1.03927  -0.92650
  Beta  occ. eigenvalues --   -0.91080  -0.82513  -0.77861  -0.67750  -0.66296
  Beta  occ. eigenvalues --   -0.65097  -0.59037  -0.56204  -0.54380  -0.52327
  Beta  occ. eigenvalues --   -0.48467  -0.45703  -0.43926  -0.40841  -0.39798
  Beta  occ. eigenvalues --   -0.38486  -0.37784  -0.37195  -0.35187  -0.33317
  Beta  occ. eigenvalues --   -0.33098  -0.31609  -0.31346  -0.30402  -0.29778
  Beta  occ. eigenvalues --   -0.28867  -0.28606  -0.27220  -0.26634  -0.25478
  Beta  occ. eigenvalues --   -0.24979  -0.24233  -0.23930  -0.21907  -0.21437
  Beta  occ. eigenvalues --   -0.21303  -0.20370  -0.19739  -0.17349
  Beta virt. eigenvalues --    0.06406   0.07719   0.08063   0.08703   0.09673
  Beta virt. eigenvalues --    0.10039   0.10866   0.11079   0.11213   0.12708
  Beta virt. eigenvalues --    0.13074   0.13299   0.13680   0.13948   0.14210

 Mulliken charges and spin densities:
               1          2
     1  C    0.054080  -0.501410
     2  C    0.349340  -0.485040
     3  C   -3.009579   3.374759
     4  C    1.244147  -1.896862
     5  C   -0.745884   0.410630
     6  C    0.962059  -1.107649
     7  C   -1.270507   0.469075
     8  C    2.547401  -3.190973
     9  N   -0.525346   0.197077
    10  S    0.760358  -0.167881
    11  O   -0.107040  -0.005467
    12  O   -0.116896   0.025241
    13  O   -0.179461   0.007179
    14  C    0.158997  -0.703580
    15  H    0.048582   0.098844
    16  H    0.180619  -0.010242
    17  H    0.156309   0.015115
    18  H   -0.494317   0.751181
    19  H    0.038718   0.103648
    20  H   -0.498575   0.679914
    21  H    0.017372   0.137372
    22  H    0.046163   0.148207
    23  H   -0.022572   0.295689
    24  H   -0.393350   0.571071
    25  H   -0.329207   0.501748
    26  H   -0.431517   0.711511
    27  H   -0.145712   0.420935
    28  H    0.317816   0.048639
    29  H    0.151580   0.026957
    30  H    0.074827   0.076504
    31  H    0.161595  -0.002191
 Sum of Mulliken charges =  -1.00000   1.00000

 Dipole moment (field-independent basis, Debye):
    X=             -0.5129    Y=             -6.1349    Z=             -0.8348  Tot=              6.2126
 Quadrupole moment (field-independent basis, Debye-Ang):
   XX=           -147.2083   YY=           -148.2468   ZZ=           -128.2648
   XY=            -12.0098   XZ=             -0.4236   YZ=             -3.8787

 Summary of Natural Population Analysis:

                                       Natural Population
                Natural  -----------------------------------------------
    Atom  No    Charge         Core      Valence    Rydberg      Total
 -----------------------------------------------------------------------
      C    1   -0.28814      0.99961     2.28211    0.00641     3.28814
      C    2   -0.03738      0.99952     2.02282    0.01504     3.03738
      C    3   -0.10548      0.99956     2.09194    0.01398     3.10548
      C    4   -0.19067      0.99963     2.18194    0.00910     3.19067
      C    5   -0.20523      0.99958     2.19306    0.01259     3.20523
      C    6   -0.13150      0.99937     2.11122    0.02091     3.13150
      C    7   -0.02415      0.99951     2.00734    0.01731     3.02415
      C    8   -0.19618      0.99960     2.18444    0.01214     3.19618
      N    9   -0.43447      0.99975     2.92221    0.01250     3.93447
      S   10    1.14935      4.99905     1.74959    0.10202     6.85065
      O   11   -0.45926      0.99990     3.45380    0.00555     4.45926
      O   12   -0.46296      0.99990     3.45765    0.00541     4.46296
      O   13   -0.45540      0.99990     3.44985    0.00566     4.45540
      C   14   -0.28929      0.99961     2.28216    0.00751     3.28929
      H   15    0.09970      0.00000     0.39952    0.00077     0.40030
      H   16    0.10336      0.00000     0.39586    0.00078     0.39664
      H   17    0.10802      0.00000     0.39108    0.00089     0.39198
      H   18    0.10581      0.00000     0.39298    0.00121     0.39419
      H   19    0.10063      0.00000     0.39834    0.00103     0.39937
      H   20    0.10545      0.00000     0.39307    0.00147     0.39455
      H   21    0.10896      0.00000     0.38969    0.00135     0.39104
      H   22    0.11278      0.00000     0.38624    0.00098     0.38722
      H   23    0.11140      0.00000     0.38693    0.00168     0.38860
      H   24    0.10829      0.00000     0.38839    0.00332     0.39171
      H   25    0.10847      0.00000     0.38966    0.00187     0.39153
      H   26    0.19710      0.00000     0.29599    0.00691     0.30290
      H   27    0.19096      0.00000     0.30183    0.00721     0.30904
      H   28    0.25601      0.00000     0.23918    0.00480     0.24399
      H   29    0.10993      0.00000     0.38920    0.00087     0.39007
      H   30    0.09990      0.00000     0.39938    0.00073     0.40010
      H   31    0.10399      0.00000     0.39517    0.00085     0.39601
 =======================================================================
   * Total *   -0.00000     17.99450    40.72263    0.28287    59.00000

 Normal termination of Gaussian 16 at Thu Dec 10 11:44:29 2020.
