 Gaussian 16, Revision A.03,

 -----------------------------------------------------------
 # opt freq B3LYP/6-31G(d) empiricaldispersion=gd3bj scf=xqc
 -----------------------------------------------------------

 ------------------------------
 CID_66672340_JID_4239_neutraal
 ------------------------------
 Symbolic Z-matrix:
 Charge =  0 Multiplicity = 1

 SCF Done:  E(RB3LYP) =  -666.975631217     A.U. after   15 cycles
 SCF Done:  E(RB3LYP) =  -666.982042528     A.U. after   12 cycles
 SCF Done:  E(RB3LYP) =  -666.982338057     A.U. after   11 cycles
 SCF Done:  E(RB3LYP) =  -666.982370776     A.U. after   11 cycles
 SCF Done:  E(RB3LYP) =  -666.982376697     A.U. after    9 cycles
 SCF Done:  E(RB3LYP) =  -666.982377252     A.U. after    8 cycles
 SCF Done:  E(RB3LYP) =  -666.982377402     A.U. after    7 cycles
 SCF Done:  E(RB3LYP) =  -666.982377496     A.U. after    7 cycles
 SCF Done:  E(RB3LYP) =  -666.982377609     A.U. after    7 cycles
 SCF Done:  E(RB3LYP) =  -666.982377726     A.U. after    7 cycles
 SCF Done:  E(RB3LYP) =  -666.982377854     A.U. after    7 cycles
 SCF Done:  E(RB3LYP) =  -666.982377978     A.U. after    7 cycles
 SCF Done:  E(RB3LYP) =  -666.982378089     A.U. after    7 cycles
 SCF Done:  E(RB3LYP) =  -666.982378171     A.U. after    7 cycles
 SCF Done:  E(RB3LYP) =  -666.982378224     A.U. after    7 cycles
 Optimization completed.
    -- Stationary point found.
 Normal termination of Gaussian 16 at Thu Dec 10 09:19:51 2020.

 --------------------------------------------------------------------
 #N Geom=AllCheck Guess=TCheck SCRF=Check GenChk RB3LYP/6-31G(d) Freq
 --------------------------------------------------------------------

 Structure from the checkpoint file:  "JID_4239.chk"
 ------------------------------
 CID_66672340_JID_4239_neutraal
 ------------------------------
 Charge =  0 Multiplicity = 1

 SCF Done:  E(RB3LYP) =  -666.982378224     A.U. after    1 cycles

  Exact polarizability: 164.940   2.868 138.339  -0.005   0.001  52.822
 Approx polarizability: 248.463  18.888 250.641  -0.015  -0.005  81.158

                      1                      2                      3
                      A                      A                      A
 Frequencies --     58.2640                70.7003                99.8131
 Red. masses --      1.1496                 2.7738                 4.9241
 Frc consts  --      0.0023                 0.0082                 0.0289
 IR Inten    --      0.1078                 1.2475                 1.6614

                      4                      5                      6
                      A                      A                      A
 Frequencies --    142.7121               166.0036               181.7955
 Red. masses --     10.0524                 5.5971                 5.7029
 Frc consts  --      0.1206                 0.0909                 0.1110
 IR Inten    --      2.6982                 0.0002                 0.4063

                      7                      8                      9
                      A                      A                      A
 Frequencies --    214.6222               232.4485               255.2007
 Red. masses --      1.9910                 3.0639                 1.7557
 Frc consts  --      0.0540                 0.0975                 0.0674
 IR Inten    --      0.1806                 1.0477                 0.8465

                     10                     11                     12
                      A                      A                      A
 Frequencies --    301.7930               307.2353               364.4112
 Red. masses --      6.6864                 2.9715                 4.9921
 Frc consts  --      0.3588                 0.1653                 0.3906
 IR Inten    --     10.6683                 1.3965                 0.2202

                     13                     14                     15
                      A                      A                      A
 Frequencies --    418.4608               497.5553               528.6554
 Red. masses --      6.1391                 4.9233                 5.2688
 Frc consts  --      0.6334                 0.7181                 0.8676
 IR Inten    --      7.2453                 1.0460                 1.4046

                     16                     17                     18
                      A                      A                      A
 Frequencies --    554.4750               561.6911               589.3209
 Red. masses --      1.0996                 6.0505                 4.4696
 Frc consts  --      0.1992                 1.1247                 0.9146
 IR Inten    --    122.9179                23.6361                 1.1085

                     19                     20                     21
                      A                      A                      A
 Frequencies --    592.3371               648.0567               684.5943
 Red. masses --      4.8198                12.1117                 3.2504
 Frc consts  --      0.9964                 2.9970                 0.8975
 IR Inten    --      7.0497                15.9911                 1.8266

                     22                     23                     24
                      A                      A                      A
 Frequencies --    696.7980               744.9102               749.6327
 Red. masses --      4.6908                 4.1254                 9.2872
 Frc consts  --      1.3419                 1.3487                 3.0749
 IR Inten    --      4.7863                11.0765                25.2878

                     25                     26                     27
                      A                      A                      A
 Frequencies --    787.4347               868.6324               897.1321
 Red. masses --      8.6780                 1.4276                 1.4342
 Frc consts  --      3.1703                 0.6346                 0.6801
 IR Inten    --      0.2218                16.4513                13.6244

                     28                     29                     30
                      A                      A                      A
 Frequencies --    926.4711               991.1278              1036.5203
 Red. masses --      4.3347                 5.0403                 1.9608
 Frc consts  --      2.1922                 2.9172                 1.2412
 IR Inten    --      7.1461                 4.7664                35.4924

                     31                     32                     33
                      A                      A                      A
 Frequencies --   1060.8007              1073.2476              1086.3535
 Red. masses --      3.4945                 1.5186                 2.3931
 Frc consts  --      2.3169                 1.0306                 1.6640
 IR Inten    --     61.0279                 4.1978                18.4242

                     34                     35                     36
                      A                      A                      A
 Frequencies --   1180.8353              1184.9103              1188.3278
 Red. masses --      2.0289                 1.2704                 4.9437
 Frc consts  --      1.6668                 1.0509                 4.1131
 IR Inten    --     35.1703                 0.7438               108.0720

                     37                     38                     39
                      A                      A                      A
 Frequencies --   1227.5190              1283.9486              1331.6236
 Red. masses --      1.5871                 1.5076                 6.4023
 Frc consts  --      1.4090                 1.4643                 6.6888
 IR Inten    --     36.2724                 8.8298               126.1939

                     40                     41                     42
                      A                      A                      A
 Frequencies --   1339.0748              1352.6783              1412.7012
 Red. masses --      6.3920                 1.8609                 6.9559
 Frc consts  --      6.7530                 2.0062                 8.1790
 IR Inten    --    275.2977                13.4040               226.2110

                     43                     44                     45
                      A                      A                      A
 Frequencies --   1444.8044              1459.3899              1499.5420
 Red. masses --      1.3391                 2.6070                 1.2953
 Frc consts  --      1.6469                 3.2714                 1.7160
 IR Inten    --      1.3973                11.3399                27.7784

                     46                     47                     48
                      A                      A                      A
 Frequencies --   1506.8930              1521.1588              1522.4978
 Red. masses --      1.0434                 1.2880                 1.0473
 Frc consts  --      1.3959                 1.7560                 1.4303
 IR Inten    --      6.5817                 6.9942                 6.3030

                     49                     50                     51
                      A                      A                      A
 Frequencies --   1530.9243              1543.3845              1653.3992
 Red. masses --      1.2338                 2.0458                 8.8016
 Frc consts  --      1.7038                 2.8712                14.1764
 IR Inten    --     94.7587                41.9337                30.0597

                     52                     53                     54
                      A                      A                      A
 Frequencies --   1675.7464              1824.3479              1856.6078
 Red. masses --      7.0836                 9.8914                12.7686
 Frc consts  --     11.7199                19.3965                25.9319
 IR Inten    --    142.3285               607.9987               167.1774

                     55                     56                     57
                      A                      A                      A
 Frequencies --   3034.6036              3063.2685              3097.3920
 Red. masses --      1.0344                 1.0354                 1.1071
 Frc consts  --      5.6123                 5.7245                 6.2579
 IR Inten    --     47.9229                13.4015                36.2951

                     58                     59                     60
                      A                      A                      A
 Frequencies --   3124.5338              3140.1515              3169.2150
 Red. masses --      1.1000                 1.1045                 1.1005
 Frc consts  --      6.3275                 6.4166                 6.5123
 IR Inten    --      6.4625                18.3775                21.8511

                     61                     62                     63
                      A                      A                      A
 Frequencies --   3225.8477              3236.0652              3645.1507
 Red. masses --      1.0890                 1.0922                 1.0797
 Frc consts  --      6.6767                 6.7389                 8.4522
 IR Inten    --      9.3322                 0.7947                88.6844

 - Thermochemistry -
 -------------------
 Temperature   298.150 Kelvin.  Pressure   1.00000 Atm.
 Atom     1 has atomic number  6 and mass  12.00000

 Molecular mass:   191.05824 amu.
 Principal axes and moments of inertia in atomic units:
                           1         2         3
     Eigenvalues --  1616.095383369.734224963.26729
           X            0.99995  -0.00958   0.00001
           Y            0.00958   0.99995   0.00000
           Z           -0.00001  -0.00000   1.00000
 This molecule is an asymmetric top.
 Rotational symmetry number  1.
 Warning -- assumption of classical behavior for rotation
           may cause significant error
 Rotational temperatures (Kelvin)      0.05359     0.02570     0.01745
 Rotational constants (GHZ):           1.11673     0.53557     0.36362
 Zero-point vibrational energy     464544.3 (Joules/Mol)
                                  111.02876 (Kcal/Mol)
 Warning -- explicit consideration of  19 degrees of freedom as
           vibrations may cause significant error
 Vibrational temperatures:     83.83   101.72   143.61   205.33   238.84
          (Kelvin)            261.56   308.79   334.44   367.18   434.21
                              442.04   524.31   602.07   715.87   760.62
                              797.77   808.15   847.90   852.24   932.41
                              984.98  1002.54  1071.76  1078.55  1132.94
                             1249.77  1290.77  1332.99  1426.01  1491.32
                             1526.26  1544.16  1563.02  1698.96  1704.82
                             1709.74  1766.13  1847.32  1915.91  1926.63
                             1946.20  2032.56  2078.75  2099.74  2157.51
                             2168.08  2188.61  2190.53  2202.66  2220.59
                             2378.87  2411.03  2624.83  2671.24  4366.12
                             4407.36  4456.46  4495.51  4517.98  4559.79
                             4641.28  4655.98  5244.56

 Zero-point correction=                           0.176936 (Hartree/Particle)
 Thermal correction to Energy=                    0.189220
 Thermal correction to Enthalpy=                  0.190164
 Thermal correction to Gibbs Free Energy=         0.138133
 Sum of electronic and zero-point Energies=           -666.805443
 Sum of electronic and thermal Energies=              -666.793159
 Sum of electronic and thermal Enthalpies=            -666.792214
 Sum of electronic and thermal Free Energies=         -666.844245

                     E (Thermal)             CV                S
                      KCal/Mol        Cal/Mol-Kelvin    Cal/Mol-Kelvin
 Total                  118.737             46.103            109.508
 Electronic               0.000              0.000              0.000
 Translational            0.889              2.981             41.648
 Rotational               0.889              2.981             31.669
 Vibrational            116.960             40.141             36.191
 Vibration     1          0.596              1.974              4.515
 Vibration     2          0.598              1.968              4.134
 Vibration     3          0.604              1.949              3.458
 Vibration     4          0.616              1.910              2.767
 Vibration     5          0.624              1.884              2.480
 Vibration     6          0.630              1.865              2.310
 Vibration     7          0.645              1.819              2.004
 Vibration     8          0.653              1.791              1.860
 Vibration     9          0.666              1.754              1.694
 Vibration    10          0.694              1.670              1.407
 Vibration    11          0.697              1.660              1.377
 Vibration    12          0.738              1.546              1.103
 Vibration    13          0.781              1.430              0.897
 Vibration    14          0.853              1.255              0.664
 Vibration    15          0.884              1.187              0.590
 Vibration    16          0.910              1.130              0.535
 Vibration    17          0.917              1.114              0.520
 Vibration    18          0.947              1.055              0.468
 Vibration    19          0.950              1.048              0.463

                           ! Non-Optimized Parameters !
 Normal termination of Gaussian 16 at Thu Dec 10 09:25:52 2020.

 ----------------------------------------------------------------------
 # B3LYP/6-311++G(d,p) empiricaldispersion=gd3bj scf=xqc pop=npa geom=c
 heck
 ----------------------------------------------------------------------

 --------------------------------------
 CID_66672340_JID_4239_Energie_neutraal
 --------------------------------------
 Structure from the checkpoint file:  "JID_4239.chk"
 Charge =  0 Multiplicity = 1

 SCF Done:  E(RB3LYP) =  -667.169303634     A.U. after   15 cycles
 Normal termination of Gaussian 16 at Thu Dec 10 09:28:15 2020.

 ----------------------------------------------------------------------
 # B3LYP/6-311++G(d,p) empiricaldispersion=gd3bj scf=xqc pop=npa geom=c
 heck
 ----------------------------------------------------------------------

 ------------------------------------
 CID_66672340_JID_4239_Energie_kation
 ------------------------------------
 Structure from the checkpoint file:  "JID_4239.chk"
 Charge =  1 Multiplicity = 2

 SCF Done:  E(UB3LYP) =  -666.850586432     A.U. after   24 cycles
 Normal termination of Gaussian 16 at Thu Dec 10 09:33:47 2020.
 Gaussian 16:  ES64L-G16RevA.03 25-Dec-2016

 ----------------------------------------------------------------------
 # B3LYP/6-311++G(d,p) empiricaldispersion=gd3bj scf=xqc pop=npa geom=c
 heck
 ----------------------------------------------------------------------

 -----------------------------------
 CID_66672340_JID_4239_Energie_anion
 -----------------------------------
 Structure from the checkpoint file:  "JID_4239.chk"
 Charge = -1 Multiplicity = 2

                         Standard orientation:
 ---------------------------------------------------------------------
 Center     Atomic      Atomic             Coordinates (Angstroms)
 Number     Number       Type             X           Y           Z
 ---------------------------------------------------------------------
      1          6           0       -0.034230    2.917536    0.000123
      2          6           0       -0.288892    1.433749    0.000142
      3          6           0       -1.594191    0.915185    0.000284
      4          6           0       -1.841842   -0.467694    0.000309
      5          6           0       -0.777295   -1.390195    0.000241
      6          6           0        0.498618   -0.871487    0.000121
      7          6           0        0.751526    0.506537    0.000058
      8          6           0        2.221322    0.714601   -0.000050
      9          8           0        2.861433    1.748131   -0.000337
     10          7           0        2.772160   -0.580684    0.000059
     11          6           0        1.808641   -1.595626   -0.000002
     12          8           0        2.024192   -2.789271   -0.000205
     13          8           0       -3.082505   -1.016681    0.000500
     14          6           0       -4.210035   -0.151796   -0.000772
     15          1           0       -0.972747    3.479199    0.000168
     16          1           0        0.553967    3.212337    0.875139
     17          1           0        0.553893    3.212331   -0.874941
     18          1           0       -2.423065    1.613184    0.000428
     19          1           0       -0.973372   -2.456338    0.000258
     20          1           0        3.767252   -0.758100   -0.000547
     21          1           0       -4.227874    0.482321    0.894400
     22          1           0       -4.226069    0.482011   -0.896190
     23          1           0       -5.083800   -0.804455   -0.001514
 ---------------------------------------------------------------------

 SCF Done:  E(UB3LYP) =  -667.194021219     A.U. after   23 cycles

 The electronic state is 2-A.
 Alpha  occ. eigenvalues --  -19.03461 -18.93154 -18.92824 -14.18944 -10.12579
 Alpha  occ. eigenvalues --  -10.10452 -10.09927 -10.09361 -10.05341 -10.04312
 Alpha  occ. eigenvalues --  -10.03307 -10.02708 -10.01471 -10.01282  -0.95319
 Alpha  occ. eigenvalues --   -0.89204  -0.87466  -0.77930  -0.71728  -0.64990
 Alpha  occ. eigenvalues --   -0.62745  -0.59178  -0.55948  -0.50314  -0.48952
 Alpha  occ. eigenvalues --   -0.44783  -0.41808  -0.39708  -0.36836  -0.36626
 Alpha  occ. eigenvalues --   -0.34733  -0.33093  -0.30644  -0.30003  -0.28577
 Alpha  occ. eigenvalues --   -0.28570  -0.28121  -0.27260  -0.26394  -0.25208
 Alpha  occ. eigenvalues --   -0.24557  -0.23409  -0.23139  -0.20729  -0.18699
 Alpha  occ. eigenvalues --   -0.13216  -0.12073  -0.11653  -0.09543  -0.09271
 Alpha  occ. eigenvalues --    0.03904
 Alpha virt. eigenvalues --    0.07034   0.09136   0.10643   0.10688   0.11515
 Alpha virt. eigenvalues --    0.11650   0.12062   0.13112   0.13970   0.14340
 Alpha virt. eigenvalues --    0.15239   0.16738   0.17035   0.17322   0.17885

  Beta  occ. eigenvalues --  -19.03401 -18.92730 -18.92362 -14.19046 -10.12583
  Beta  occ. eigenvalues --  -10.10221 -10.09678 -10.09200 -10.05384 -10.04312
  Beta  occ. eigenvalues --  -10.03205 -10.02712 -10.01203 -10.01127  -0.95183
  Beta  occ. eigenvalues --   -0.88547  -0.86677  -0.77588  -0.71520  -0.64837
  Beta  occ. eigenvalues --   -0.62410  -0.59021  -0.55760  -0.49784  -0.48484
  Beta  occ. eigenvalues --   -0.44483  -0.41676  -0.39548  -0.36675  -0.36484
  Beta  occ. eigenvalues --   -0.34559  -0.32853  -0.29906  -0.29637  -0.28450
  Beta  occ. eigenvalues --   -0.27895  -0.27849  -0.27105  -0.26036  -0.24642
  Beta  occ. eigenvalues --   -0.24269  -0.23278  -0.20839  -0.20607  -0.18041
  Beta  occ. eigenvalues --   -0.11665  -0.11647  -0.10643  -0.09106  -0.08242
  Beta virt. eigenvalues --    0.07021   0.09122   0.10390   0.10674   0.10827
  Beta virt. eigenvalues --    0.11653   0.11835   0.12060   0.13097   0.14026
  Beta virt. eigenvalues --    0.14339   0.15243   0.16976   0.17065   0.17852

 Mulliken charges and spin densities:
               1          2
     1  C   -0.496539   0.010689
     2  C    0.266141  -0.031323
     3  C    0.179799   0.075452
     4  C   -0.710448   0.100205
     5  C   -0.756937   0.003614
     6  C    0.654642   0.173305
     7  C   -0.229407   0.115527
     8  C    0.017361   0.148942
     9  O   -0.458535   0.145651
    10  N   -0.257097  -0.066601
    11  C    0.375022   0.161357
    12  O   -0.476719   0.162001
    13  O   -0.163846   0.009481
    14  C   -0.318918   0.001361
    15  H    0.105720  -0.000270
    16  H    0.163746  -0.000400
    17  H    0.163749  -0.000398
    18  H    0.055365  -0.009469
    19  H    0.159511  -0.000084
    20  H    0.300014   0.000642
    21  H    0.136380   0.000195
    22  H    0.136400   0.000204
    23  H    0.154595  -0.000083
 Sum of Mulliken charges =  -1.00000   1.00000

 Dipole moment (field-independent basis, Debye):
    X=             -6.7154    Y=              2.8818    Z=             -0.0014  Tot=              7.3076
 Quadrupole moment (field-independent basis, Debye-Ang):
   XX=           -102.6951   YY=           -113.8406   ZZ=            -87.0430
   XY=             -3.6108   XZ=              0.0053   YZ=              0.0020

 Summary of Natural Population Analysis:

                                       Natural Population
                Natural  -----------------------------------------------
    Atom  No    Charge         Core      Valence    Rydberg      Total
 -----------------------------------------------------------------------
      C    1   -0.28784      0.99959     2.28311    0.00513     3.28784
      C    2    0.00358      0.99935     1.98860    0.00846     2.99642
      C    3   -0.13995      0.99945     2.13248    0.00803     3.13995
      C    4    0.18568      0.99942     1.80321    0.01169     2.81432
      C    5   -0.11552      0.99949     2.10671    0.00931     3.11552
      C    6    0.01128      0.99944     1.98071    0.00856     2.98872
      C    7   -0.05202      0.99940     2.04332    0.00929     3.05202
      C    8    0.36669      0.99965     1.61148    0.02218     2.63331
      O    9   -0.28083      0.99987     3.27451    0.00644     4.28083
      N   10   -0.35060      0.99966     2.84028    0.01066     3.85060
      C   11    0.36787      0.99966     1.61013    0.02234     2.63213
      O   12   -0.27082      0.99987     3.26473    0.00621     4.27082
      O   13   -0.27224      0.99985     3.26214    0.01025     4.27224
      C   14   -0.10065      0.99961     2.09282    0.00821     3.10065
      H   15    0.08763      0.00000     0.41096    0.00141     0.41237
      H   16    0.10692      0.00000     0.39173    0.00134     0.39308
      H   17    0.10693      0.00000     0.39173    0.00134     0.39307
      H   18    0.09030      0.00000     0.40824    0.00147     0.40970
      H   19    0.10496      0.00000     0.39329    0.00174     0.39504
      H   20    0.19203      0.00000     0.30582    0.00214     0.30797
      H   21    0.08026      0.00000     0.41801    0.00173     0.41974
      H   22    0.08028      0.00000     0.41799    0.00173     0.41972
      H   23    0.08607      0.00000     0.41310    0.00083     0.41393
 =======================================================================
   * Total *    0.00001     13.99434    35.84515    0.16050    49.99999

 Normal termination of Gaussian 16 at Thu Dec 10 09:39:16 2020.
