 Gaussian 16, Revision A.03,

 -----------------------------------------------------------
 # opt freq B3LYP/6-31G(d) empiricaldispersion=gd3bj scf=xqc
 -----------------------------------------------------------

 ------------------------------
 CID_63968622_JID_1315_neutraal
 ------------------------------
 Symbolic Z-matrix:
 Charge =  0 Multiplicity = 1

 SCF Done:  E(RB3LYP) =  -459.693759212     A.U. after   14 cycles
 SCF Done:  E(RB3LYP) =  -459.696971041     A.U. after   12 cycles
 SCF Done:  E(RB3LYP) =  -459.697580780     A.U. after   12 cycles
 SCF Done:  E(RB3LYP) =  -459.698325276     A.U. after   14 cycles
 SCF Done:  E(RB3LYP) =  -459.698515101     A.U. after   12 cycles
 SCF Done:  E(RB3LYP) =  -459.698784707     A.U. after   12 cycles
 SCF Done:  E(RB3LYP) =  -459.699070601     A.U. after   12 cycles
 SCF Done:  E(RB3LYP) =  -459.699151214     A.U. after   11 cycles
 SCF Done:  E(RB3LYP) =  -459.699218367     A.U. after   10 cycles
 SCF Done:  E(RB3LYP) =  -459.699225686     A.U. after   10 cycles
 SCF Done:  E(RB3LYP) =  -459.699230431     A.U. after    8 cycles
 SCF Done:  E(RB3LYP) =  -459.699232601     A.U. after   10 cycles
 SCF Done:  E(RB3LYP) =  -459.699233258     A.U. after    8 cycles
 SCF Done:  E(RB3LYP) =  -459.699233303     A.U. after    7 cycles
 Optimization completed.
    -- Stationary point found.

 1\1\GINC-NODE102\FOpt\RB3LYP\6-31G(d)\C9H12N2\VSC10255\08-Dec-2020\0\\
 # opt freq B3LYP/6-31G(d) empiricaldispersion=gd3bj scf=xqc\\CID_63968
 622_JID_1315_neutraal\\0,1\C,1.3987622709,-0.2730515283,0.1743988825\C
 ,0.7608671651,-1.632705367,-0.0137474933\C,-0.0139538361,-2.1358642008
 ,0.9685697455\C,-0.7186221524,-3.4595989572,1.0709132056\N,-1.07443119
 48,-3.7078115593,2.4789138874\C,1.035221325,-2.3338228743,-1.286782050
 9\C,2.0568039658,-1.8980125688,-2.1530828471\C,2.2830829186,-2.5764711
 676,-3.3458330402\C,1.4882939201,-3.6768051057,-3.660329279\C,0.497436

 Normal termination of Gaussian 16 at Tue Dec  8 19:41:55 2020.

 --------------------------------------------------------------------
 #N Geom=AllCheck Guess=TCheck SCRF=Check GenChk RB3LYP/6-31G(d) Freq
 --------------------------------------------------------------------

 Structure from the checkpoint file:  "JID_1315.chk"
 ------------------------------
 CID_63968622_JID_1315_neutraal
 ------------------------------
 Charge =  0 Multiplicity = 1

 SCF Done:  E(RB3LYP) =  -459.699233303     A.U. after    1 cycles

  Exact polarizability: 156.476  -1.366 115.660   4.668   6.016  53.894
 Approx polarizability: 235.900   1.400 179.973  12.079  13.916  82.578

                      1                      2                      3
                      A                      A                      A
 Frequencies --     29.5201               101.6482               124.8134
 Red. masses --      4.0300                 2.5544                 3.8335
 Frc consts  --      0.0021                 0.0156                 0.0352
 IR Inten    --      0.5755                 2.3798                 0.6240

                      4                      5                      6
                      A                      A                      A
 Frequencies --    171.8801               198.9156               244.1009
 Red. masses --      3.8141                 1.5782                 1.2607
 Frc consts  --      0.0664                 0.0368                 0.0443
 IR Inten    --      5.0371                16.8364                 1.3413

                      7                      8                      9
                      A                      A                      A
 Frequencies --    273.0169               304.6732               357.1692
 Red. masses --      2.0630                 1.4504                 4.1006
 Frc consts  --      0.0906                 0.0793                 0.3082
 IR Inten    --     18.4148                22.9349                 3.7079

                     10                     11                     12
                      A                      A                      A
 Frequencies --    372.4494               413.0886               422.2081
 Red. masses --      3.5721                 3.0501                 3.9416
 Frc consts  --      0.2919                 0.3067                 0.4140
 IR Inten    --      2.9580                 3.3857                 0.8380

                     13                     14                     15
                      A                      A                      A
 Frequencies --    562.9009               576.4985               594.4647
 Red. masses --      3.8567                 4.2681                 2.8690
 Frc consts  --      0.7200                 0.8357                 0.5973
 IR Inten    --      6.8663                 3.3465                 3.2910

                     16                     17                     18
                      A                      A                      A
 Frequencies --    643.7205               758.1654               772.7740
 Red. masses --      6.7462                 1.7370                 3.1743
 Frc consts  --      1.6470                 0.5883                 1.1169
 IR Inten    --      1.4091                13.2572                 3.8861

                     19                     20                     21
                      A                      A                      A
 Frequencies --    787.9716               837.6750               896.1770
 Red. masses --      1.8519                 1.5430                 1.2960
 Frc consts  --      0.6775                 0.6379                 0.6132
 IR Inten    --     10.5376                35.6417               114.9588

                     22                     23                     24
                      A                      A                      A
 Frequencies --    905.2510               967.3535               975.0207
 Red. masses --      1.3912                 1.6327                 1.4136
 Frc consts  --      0.6717                 0.9001                 0.7918
 IR Inten    --     19.4367                 7.1009                 1.2001

                     25                     26                     27
                      A                      A                      A
 Frequencies --   1001.8621              1010.6890              1034.5002
 Red. masses --      1.2829                 6.5528                 3.4644
 Frc consts  --      0.7587                 3.9438                 2.1845
 IR Inten    --      0.0244                 1.6524                19.8994

                     28                     29                     30
                      A                      A                      A
 Frequencies --   1049.8822              1080.3558              1086.7726
 Red. masses --      1.7118                 2.6037                 1.4958
 Frc consts  --      1.1117                 1.7905                 1.0409
 IR Inten    --      7.3970                 7.8192                 2.0365

                     31                     32                     33
                      A                      A                      A
 Frequencies --   1114.1928              1136.9885              1149.1818
 Red. masses --      2.2010                 1.8527                 2.0729
 Frc consts  --      1.6099                 1.4111                 1.6129
 IR Inten    --      2.1714                 4.0462                16.0388

                     34                     35                     36
                      A                      A                      A
 Frequencies --   1182.4691              1194.4065              1260.8308
 Red. masses --      1.2783                 1.1362                 1.6928
 Frc consts  --      1.0531                 0.9550                 1.5855
 IR Inten    --     32.7855                 2.2657                 0.5437

                     37                     38                     39
                      A                      A                      A
 Frequencies --   1307.2659              1322.3031              1342.4369
 Red. masses --      2.7165                 1.9115                 1.4557
 Frc consts  --      2.7352                 1.9692                 1.5456
 IR Inten    --      3.8072                 2.0262                 2.7316

                     40                     41                     42
                      A                      A                      A
 Frequencies --   1395.6098              1429.3236              1445.7522
 Red. masses --      1.5946                 1.5680                 1.2389
 Frc consts  --      1.8299                 1.8873                 1.5257
 IR Inten    --      7.2737                24.0243                 1.9179

                     43                     44                     45
                      A                      A                      A
 Frequencies --   1474.9541              1498.5098              1515.6060
 Red. masses --      2.0268                 1.1003                 1.0535
 Frc consts  --      2.5978                 1.4557                 1.4258
 IR Inten    --     26.4537                 0.6481                 6.6287

                     46                     47                     48
                      A                      A                      A
 Frequencies --   1524.5931              1532.6901              1620.3026
 Red. masses --      2.3027                 1.0672                 4.9786
 Frc consts  --      3.1535                 1.4771                 7.7011
 IR Inten    --     38.8162                 6.2839                17.9111

                     49                     50                     51
                      A                      A                      A
 Frequencies --   1647.8125              1697.6986              1715.8196
 Red. masses --      5.4022                 1.1022                 6.6269
 Frc consts  --      8.6425                 1.8716                11.4948
 IR Inten    --     68.2418                26.7181                11.5649

                     52                     53                     54
                      A                      A                      A
 Frequencies --   3023.1532              3033.6390              3056.6712
 Red. masses --      1.0652                 1.0406                 1.0959
 Frc consts  --      5.7357                 5.6425                 6.0329
 IR Inten    --     34.3472                30.7617                21.4679

                     55                     56                     57
                      A                      A                      A
 Frequencies --   3081.6134              3134.0044              3154.0954
 Red. masses --      1.0992                 1.0983                 1.0878
 Frc consts  --      6.1499                 6.3559                 6.3760
 IR Inten    --     25.9651                14.8584                21.0144

                     58                     59                     60
                      A                      A                      A
 Frequencies --   3163.1804              3192.2622              3215.0909
 Red. masses --      1.0892                 1.0885                 1.0953
 Frc consts  --      6.4209                 6.5354                 6.6710
 IR Inten    --     28.4041                12.2457                25.0273

                     61                     62                     63
                      A                      A                      A
 Frequencies --   3232.2318              3458.3843              3544.4539
 Red. masses --      1.0926                 1.0505                 1.0915
 Frc consts  --      6.7255                 7.4028                 8.0791
 IR Inten    --      9.5392                 5.0702                 0.8681

 - Thermochemistry -
 -------------------
 Temperature   298.150 Kelvin.  Pressure   1.00000 Atm.
 Atom     1 has atomic number  6 and mass  12.00000

 Molecular mass:   148.10005 amu.
 Principal axes and moments of inertia in atomic units:
                           1         2         3
     Eigenvalues --   946.431822487.012113352.81882
           X            0.99997   0.00808  -0.00188
           Y           -0.00809   0.99997  -0.00130
           Z            0.00187   0.00132   1.00000
 This molecule is an asymmetric top.
 Rotational symmetry number  1.
 Warning -- assumption of classical behavior for rotation
           may cause significant error
 Rotational temperatures (Kelvin)      0.09152     0.03483     0.02583
 Rotational constants (GHZ):           1.90689     0.72567     0.53828
 Zero-point vibrational energy     516505.9 (Joules/Mol)
                                  123.44788 (Kcal/Mol)
 Warning -- explicit consideration of  15 degrees of freedom as
           vibrations may cause significant error
 Vibrational temperatures:     42.47   146.25   179.58   247.30   286.20
          (Kelvin)            351.21   392.81   438.36   513.89   535.87
                              594.34   607.46   809.89   829.45   855.30
                              926.17  1090.83  1111.85  1133.72  1205.23
                             1289.40  1302.45  1391.81  1402.84  1441.46
                             1454.16  1488.41  1510.55  1554.39  1563.62
                             1603.07  1635.87  1653.42  1701.31  1718.48
                             1814.05  1880.86  1902.50  1931.47  2007.97
                             2056.48  2080.11  2122.13  2156.02  2180.62
                             2193.55  2205.20  2331.25  2370.83  2442.61
                             2468.68  4349.64  4364.73  4397.87  4433.75
                             4509.13  4538.04  4551.11  4592.95  4625.80
                             4650.46  4975.84  5099.68

 Zero-point correction=                           0.196727 (Hartree/Particle)
 Thermal correction to Energy=                    0.207225
 Thermal correction to Enthalpy=                  0.208170
 Thermal correction to Gibbs Free Energy=         0.160127
 Sum of electronic and zero-point Energies=           -459.502507
 Sum of electronic and thermal Energies=              -459.492008
 Sum of electronic and thermal Enthalpies=            -459.491064
 Sum of electronic and thermal Free Energies=         -459.539106

                     E (Thermal)             CV                S
                      KCal/Mol        Cal/Mol-Kelvin    Cal/Mol-Kelvin
 Total                  130.036             39.911            101.114
 Electronic               0.000              0.000              0.000
 Translational            0.889              2.981             40.889
 Rotational               0.889              2.981             30.446
 Vibrational            128.258             33.950             29.780
 Vibration     1          0.593              1.984              5.861
 Vibration     2          0.604              1.948              3.422
 Vibration     3          0.610              1.928              3.024
 Vibration     4          0.626              1.877              2.415
 Vibration     5          0.637              1.841              2.143
 Vibration     6          0.659              1.773              1.773
 Vibration     7          0.676              1.723              1.577
 Vibration     8          0.696              1.665              1.391
 Vibration     9          0.732              1.561              1.134
 Vibration    10          0.744              1.529              1.070
 Vibration    11          0.777              1.442              0.916
 Vibration    12          0.785              1.422              0.884
 Vibration    13          0.919              1.112              0.518
 Vibration    14          0.933              1.082              0.492
 Vibration    15          0.952              1.044              0.459

 Optimization completed.
    -- Stationary point found.

 1\1\GINC-NODE102\Freq\RB3LYP\6-31G(d)\C9H12N2\VSC10255\08-Dec-2020\0\\
 #N Geom=AllCheck Guess=TCheck SCRF=Check GenChk RB3LYP/6-31G(d) Freq\\
 CID_63968622_JID_1315_neutraal\\0,1\C,1.3987622709,-0.2730515283,0.174
 3988825\C,0.7608671651,-1.632705367,-0.0137474933\C,-0.0139538361,-2.1
 358642008,0.9685697455\C,-0.7186221524,-3.4595989572,1.0709132056\N,-1
 .0744311948,-3.7078115593,2.4789138874\C,1.035221325,-2.3338228743,-1.
 2867820509\C,2.0568039658,-1.8980125688,-2.1530828471\C,2.2830829186,-
 2.5764711676,-3.3458330402\C,1.4882939201,-3.6768051057,-3.660329279\C

 Normal termination of Gaussian 16 at Tue Dec  8 19:46:27 2020.

 ----------------------------------------------------------------------
 # B3LYP/6-311++G(d,p) empiricaldispersion=gd3bj scf=xqc pop=npa geom=c
 heck
 ----------------------------------------------------------------------

 --------------------------------------
 CID_63968622_JID_1315_Energie_neutraal
 --------------------------------------
 Structure from the checkpoint file:  "JID_1315.chk"
 Charge =  0 Multiplicity = 1

 SCF Done:  E(RB3LYP) =  -459.829427642     A.U. after   16 cycles
 Normal termination of Gaussian 16 at Tue Dec  8 19:49:00 2020.

 ----------------------------------------------------------------------
 # B3LYP/6-311++G(d,p) empiricaldispersion=gd3bj scf=xqc pop=npa geom=c
 heck
 ----------------------------------------------------------------------

 ------------------------------------
 CID_63968622_JID_1315_Energie_kation
 ------------------------------------
 Structure from the checkpoint file:  "JID_1315.chk"
 Charge =  1 Multiplicity = 2

 SCF Done:  E(UB3LYP) =  -459.536971350     A.U. after   23 cycles
 Normal termination of Gaussian 16 at Tue Dec  8 19:54:42 2020.
 Gaussian 16:  ES64L-G16RevA.03 25-Dec-2016

 -----------------------------------
 CID_63968622_JID_1315_Energie_anion
 -----------------------------------
 Structure from the checkpoint file:  "JID_1315.chk"
 Charge = -1 Multiplicity = 2

                         Standard orientation:
 ---------------------------------------------------------------------
 Center     Atomic      Atomic             Coordinates (Angstroms)
 Number     Number       Type             X           Y           Z
 ---------------------------------------------------------------------
      1          6           0       -0.594377    2.589744   -0.163668
      2          6           0       -0.687839    1.079722   -0.118209
      3          6           0       -1.903320    0.496234   -0.142963
      4          6           0       -2.288594   -0.954256   -0.059618
      5          7           0       -3.715529   -1.053677    0.293438
      6          6           0        0.584553    0.329077   -0.047493
      7          6           0        1.798270    0.978946    0.250166
      8          6           0        2.977570    0.243579    0.301633
      9          6           0        2.932485   -1.126789    0.053863
     10          6           0        1.690060   -1.691127   -0.235378
     11          7           0        0.551739   -0.999044   -0.292660
     12          1           0       -1.582692    3.032465   -0.311866
     13          1           0        0.056345    2.932350   -0.978183
     14          1           0       -0.185212    3.002965    0.768033
     15          1           0       -2.767441    1.154724   -0.230914
     16          1           0       -2.149446   -1.425534   -1.041700
     17          1           0       -1.608851   -1.492816    0.615368
     18          1           0       -3.998490   -2.031944    0.268133
     19          1           0       -3.840327   -0.755794    1.260818
     20          1           0        1.817832    2.044617    0.443974
     21          1           0        3.918551    0.735563    0.532401
     22          1           0        3.827329   -1.740593    0.078406
     23          1           0        1.606081   -2.757742   -0.439911
 ---------------------------------------------------------------------

 SCF Done:  E(UB3LYP) =  -459.821959542     A.U. after   33 cycles
 SCF Done:  E(UB3LYP) =  -459.821959542     a.u. after    1 cycles

 The electronic state is 2-A.
 Alpha  occ. eigenvalues --  -14.16095 -14.14644 -10.06262 -10.04979 -10.04651
 Alpha  occ. eigenvalues --  -10.04210 -10.03708 -10.03412 -10.02631 -10.02363
 Alpha  occ. eigenvalues --  -10.00840  -0.79203  -0.74734  -0.66633  -0.65736
 Alpha  occ. eigenvalues --   -0.60352  -0.57188  -0.50623  -0.48319  -0.47280
 Alpha  occ. eigenvalues --   -0.40972  -0.36909  -0.35007  -0.34134  -0.32313
 Alpha  occ. eigenvalues --   -0.30432  -0.29934  -0.29070  -0.26455  -0.25804
 Alpha  occ. eigenvalues --   -0.25329  -0.24979  -0.23918  -0.22420  -0.19332
 Alpha  occ. eigenvalues --   -0.15616  -0.14005  -0.11990  -0.10260  -0.08554
 Alpha  occ. eigenvalues --    0.05570
 Alpha virt. eigenvalues --    0.08174   0.08233   0.09023   0.10110   0.10781
 Alpha virt. eigenvalues --    0.11044   0.11777   0.12330   0.12943   0.13672
 Alpha virt. eigenvalues --    0.13864   0.14846   0.16258   0.16955   0.17496

  Beta  occ. eigenvalues --  -14.16054 -14.14394 -10.06326 -10.04720 -10.04664
  Beta  occ. eigenvalues --  -10.04115 -10.03704 -10.03441 -10.02401 -10.02358
  Beta  occ. eigenvalues --  -10.00548  -0.78767  -0.74629  -0.66324  -0.65383
  Beta  occ. eigenvalues --   -0.60050  -0.56951  -0.50316  -0.48176  -0.46972
  Beta  occ. eigenvalues --   -0.40707  -0.36777  -0.34834  -0.33961  -0.32136
  Beta  occ. eigenvalues --   -0.30329  -0.29806  -0.28865  -0.26337  -0.25483
  Beta  occ. eigenvalues --   -0.25228  -0.24299  -0.23784  -0.22255  -0.19139
  Beta  occ. eigenvalues --   -0.14358  -0.13238  -0.11779  -0.09916  -0.07403
  Beta virt. eigenvalues --    0.08030   0.08670   0.09031   0.10081   0.10738
  Beta virt. eigenvalues --    0.10951   0.11279   0.11973   0.12381   0.13018
  Beta virt. eigenvalues --    0.13676   0.13783   0.14948   0.16288   0.17171

 Mulliken charges and spin densities:
               1          2
     1  C   -0.444939  -0.344182
     2  C    1.575732  -0.817471
     3  C   -0.452057   0.612632
     4  C    0.301528  -0.729595
     5  N   -0.322341  -0.029482
     6  C   -1.689294   0.932911
     7  C   -0.171524   0.176359
     8  C   -0.215720  -0.205463
     9  C    0.022761  -0.047421
    10  C   -0.178685   0.099169
    11  N    0.039935   0.142615
    12  H    0.082313   0.045459
    13  H    0.131237  -0.011151
    14  H   -0.024071   0.144934
    15  H    0.094079   0.012258
    16  H    0.100909   0.072570
    17  H    0.094036   0.087137
    18  H   -0.066593   0.280593
    19  H   -0.057204   0.259459
    20  H    0.055533   0.084643
    21  H    0.000311   0.123772
    22  H    0.068420   0.034591
    23  H    0.055633   0.075663
 Sum of Mulliken charges =  -1.00000   1.00000

 Dipole moment (field-independent basis, Debye):
    X=              3.5004    Y=              1.0288    Z=             -0.4865  Tot=              3.6807
 Quadrupole moment (field-independent basis, Debye-Ang):
   XX=           -116.3154   YY=            -85.0996   ZZ=            -82.0348
   XY=             -3.3271   XZ=              1.1299   YZ=             -2.2114

 Summary of Natural Population Analysis:

                                       Natural Population
                Natural  -----------------------------------------------
    Atom  No    Charge         Core      Valence    Rydberg      Total
 -----------------------------------------------------------------------
      C    1   -0.28979      0.99965     2.28466    0.00548     3.28979
      C    2   -0.04503      0.99947     2.03581    0.00975     3.04503
      C    3   -0.01791      0.99949     2.00779    0.01064     3.01791
      C    4   -0.11366      0.99961     2.10018    0.01387     3.11366
      N    5   -0.42584      0.99978     2.91496    0.01110     3.92584
      C    6    0.13304      0.99949     1.85363    0.01384     2.86696
      C    7   -0.12788      0.99953     2.12018    0.00816     3.12788
      C    8   -0.07867      0.99957     2.06862    0.01048     3.07867
      C    9   -0.10263      0.99956     2.09233    0.01074     3.10263
      C   10    0.01149      0.99960     1.97394    0.01497     2.98851
      N   11   -0.20856      0.99969     2.69809    0.01078     3.70856
      H   12    0.09773      0.00000     0.40149    0.00078     0.40227
      H   13    0.09381      0.00000     0.40514    0.00105     0.40619
      H   14    0.09522      0.00000     0.40341    0.00137     0.40478
      H   15    0.08475      0.00000     0.41395    0.00130     0.41525
      H   16    0.09902      0.00000     0.39960    0.00138     0.40098
      H   17    0.09686      0.00000     0.40123    0.00190     0.40314
      H   18    0.16974      0.00000     0.32824    0.00203     0.33026
      H   19    0.16934      0.00000     0.32843    0.00223     0.33066
      H   20    0.09716      0.00000     0.40170    0.00113     0.40284
      H   21    0.09081      0.00000     0.40828    0.00092     0.40919
      H   22    0.09103      0.00000     0.40804    0.00093     0.40897
      H   23    0.07997      0.00000     0.41883    0.00120     0.42003
 =======================================================================
   * Total *   -0.00000     10.99544    28.86853    0.13603    40.00000

 Normal termination of Gaussian 16 at Tue Dec  8 20:02:03 2020.
