 Gaussian 16, Revision A.03,

 -----------------------------------------------------------
 # opt freq B3LYP/6-31G(d) empiricaldispersion=gd3bj scf=xqc
 -----------------------------------------------------------

 -----------------------------
 CID_10964577_JID_321_neutraal
 -----------------------------
 Symbolic Z-matrix:
 Charge =  0 Multiplicity = 1

 SCF Done:  E(RB3LYP) =  -421.637667462     A.U. after   14 cycles
 SCF Done:  E(RB3LYP) =  -421.641150920     A.U. after   12 cycles
 SCF Done:  E(RB3LYP) =  -421.641812001     A.U. after   11 cycles
 SCF Done:  E(RB3LYP) =  -421.642114716     A.U. after   11 cycles
 SCF Done:  E(RB3LYP) =  -421.642180609     A.U. after   10 cycles
 SCF Done:  E(RB3LYP) =  -421.642199284     A.U. after    9 cycles
 SCF Done:  E(RB3LYP) =  -421.642204123     A.U. after    8 cycles
 SCF Done:  E(RB3LYP) =  -421.642204910     A.U. after    7 cycles
 SCF Done:  E(RB3LYP) =  -421.642205409     A.U. after    7 cycles
 SCF Done:  E(RB3LYP) =  -421.642205507     A.U. after    7 cycles
 SCF Done:  E(RB3LYP) =  -421.642205555     A.U. after    7 cycles
 Optimization completed.
    -- Stationary point found.

 1\1\GINC-NODE103\FOpt\RB3LYP\6-31G(d)\C8H12N2\VSC10255\08-Dec-2020\0\\
 # opt freq B3LYP/6-31G(d) empiricaldispersion=gd3bj scf=xqc\\CID_10964
 577_JID_321_neutraal\\0,1\C,0.9089327936,0.0783911236,-0.0164206371\C,
 0.5027731609,-1.1076361696,0.8200905649\C,0.9551112977,-2.3979928141,0
 .5277515434\C,0.5807342868,-3.4961831465,1.2927380049\C,-0.2723977156,
 -3.2338035549,2.3860403139\N,-0.7156219985,-2.0095296164,2.6925570949\
 C,-0.3477126261,-0.9702335095,1.9291032517\C,-0.8942320048,0.376414568
 7,2.3295457915\N,-0.7478875798,-4.2721507863,3.1818839219\C,1.03519008

 Normal termination of Gaussian 16 at Tue Dec  8 10:23:05 2020.

 --------------------------------------------------------------------
 #N Geom=AllCheck Guess=TCheck SCRF=Check GenChk RB3LYP/6-31G(d) Freq
 --------------------------------------------------------------------

 Structure from the checkpoint file:  "JID_321.chk"
 -----------------------------
 CID_10964577_JID_321_neutraal
 -----------------------------
 Charge =  0 Multiplicity = 1

 SCF Done:  E(RB3LYP) =  -421.642205555     A.U. after    1 cycles

  Exact polarizability: 134.584  -2.259 104.961   0.760   0.089  52.001
 Approx polarizability: 195.767  -7.543 167.148   0.052   1.221  78.060

                      1                      2                      3
                      A                      A                      A
 Frequencies --    104.3516               123.1895               142.7428
 Red. masses --      2.9798                 1.0300                 1.2634
 Frc consts  --      0.0191                 0.0092                 0.0152
 IR Inten    --      0.3680                 0.1795                 2.5979

                      4                      5                      6
                      A                      A                      A
 Frequencies --    173.5308               188.0810               270.3687
 Red. masses --      1.2774                 1.4615                 3.1451
 Frc consts  --      0.0227                 0.0305                 0.1355
 IR Inten    --      2.4926                 1.3544                 5.3395

                      7                      8                      9
                      A                      A                      A
 Frequencies --    280.2742               301.0642               321.7761
 Red. masses --      2.5916                 2.4861                 2.8090
 Frc consts  --      0.1199                 0.1328                 0.1714
 IR Inten    --      0.2067                 0.5124                 2.2411

                     10                     11                     12
                      A                      A                      A
 Frequencies --    353.5222               389.5540               460.3798
 Red. masses --      2.4961                 1.2901                 3.5015
 Frc consts  --      0.1838                 0.1153                 0.4373
 IR Inten    --      6.1292                48.3994                 7.4796

                     13                     14                     15
                      A                      A                      A
 Frequencies --    465.3443               530.7071               546.9160
 Red. masses --      4.7896                 4.9364                 2.6870
 Frc consts  --      0.6111                 0.8192                 0.4735
 IR Inten    --      2.8038                 2.2951                 0.3966

                     16                     17                     18
                      A                      A                      A
 Frequencies --    614.0127               664.7481               699.9666
 Red. masses --      1.7746                 2.8110                 2.9716
 Frc consts  --      0.3942                 0.7319                 0.8578
 IR Inten    --    169.3245                89.5607                43.5685

                     19                     20                     21
                      A                      A                      A
 Frequencies --    749.1186               776.5210               844.5846
 Red. masses --      6.4352                 5.5784                 2.9374
 Frc consts  --      2.1277                 1.9818                 1.2345
 IR Inten    --      2.5138                43.1123                 3.6725

                     22                     23                     24
                      A                      A                      A
 Frequencies --    923.5305              1010.7533              1023.4248
 Red. masses --      1.2981                 1.6201                 1.3905
 Frc consts  --      0.6523                 0.9752                 0.8581
 IR Inten    --      6.8386                10.2890                12.9709

                     25                     26                     27
                      A                      A                      A
 Frequencies --   1045.0875              1056.3045              1075.8284
 Red. masses --      1.5485                 1.4278                 1.4701
 Frc consts  --      0.9965                 0.9386                 1.0025
 IR Inten    --     13.2628                 4.1376                 2.1996

                     28                     29                     30
                      A                      A                      A
 Frequencies --   1083.8355              1133.1937              1144.3460
 Red. masses --      1.5769                 3.3477                 1.7962
 Frc consts  --      1.0914                 2.5329                 1.3859
 IR Inten    --      0.0123                 7.6419                 1.0618

                     31                     32                     33
                      A                      A                      A
 Frequencies --   1247.2547              1286.3677              1344.9750
 Red. masses --      2.6874                 1.9661                 4.3030
 Frc consts  --      2.4632                 1.9168                 4.5862
 IR Inten    --      5.5825                 4.2500                 9.7737

                     34                     35                     36
                      A                      A                      A
 Frequencies --   1367.0957              1425.5553              1439.9414
 Red. masses --      4.4256                 1.3975                 1.3064
 Frc consts  --      4.8733                 1.6733                 1.5960
 IR Inten    --     22.9834                 2.6462                 0.8382

                     37                     38                     39
                      A                      A                      A
 Frequencies --   1448.3918              1470.3478              1495.3225
 Red. masses --      1.2373                 2.3417                 2.9448
 Frc consts  --      1.5294                 2.9828                 3.8794
 IR Inten    --      1.8195                 0.7907               160.1483

                     40                     41                     42
                      A                      A                      A
 Frequencies --   1507.8314              1512.4871              1513.2761
 Red. masses --      1.0454                 1.0622                 1.1354
 Frc consts  --      1.4004                 1.4317                 1.5319
 IR Inten    --      0.0164                 5.5927                 5.2774

                     43                     44                     45
                      A                      A                      A
 Frequencies --   1521.8338              1531.4657              1536.6727
 Red. masses --      1.0443                 1.2067                 1.2401
 Frc consts  --      1.4250                 1.6674                 1.7253
 IR Inten    --     14.2512                25.1249                21.5731

                     46                     47                     48
                      A                      A                      A
 Frequencies --   1627.3456              1661.5113              1681.3925
 Red. masses --      5.6580                 1.8255                 2.3254
 Frc consts  --      8.8282                 2.9692                 3.8733
 IR Inten    --     61.3582                31.0309               155.9646

                     49                     50                     51
                      A                      A                      A
 Frequencies --   3018.2244              3033.4666              3039.6935
 Red. masses --      1.0460                 1.0381                 1.0400
 Frc consts  --      5.6144                 5.6281                 5.6618
 IR Inten    --     47.5825                39.6590                29.0471

                     52                     53                     54
                      A                      A                      A
 Frequencies --   3071.5060              3079.2348              3086.3674
 Red. masses --      1.0923                 1.1006                 1.0999
 Frc consts  --      6.0716                 6.1483                 6.1729
 IR Inten    --     22.8630                31.8798                14.2240

                     55                     56                     57
                      A                      A                      A
 Frequencies --   3118.6900              3125.0474              3158.0990
 Red. masses --      1.0999                 1.0990                 1.0986
 Frc consts  --      6.3030                 6.3237                 6.4555
 IR Inten    --     20.8730                14.8092                10.7955

                     58                     59                     60
                      A                      A                      A
 Frequencies --   3166.1744              3551.8399              3660.3443
 Red. masses --      1.0901                 1.0470                 1.0989
 Frc consts  --      6.4387                 7.7822                 8.6749
 IR Inten    --     25.0287                16.0801                14.7910

 - Thermochemistry -
 -------------------
 Temperature   298.150 Kelvin.  Pressure   1.00000 Atm.
 Atom     1 has atomic number  6 and mass  12.00000

 Molecular mass:   136.10005 amu.
 Principal axes and moments of inertia in atomic units:
                           1         2         3
     Eigenvalues --   812.755661646.398382423.77573
           X            0.99987   0.01596   0.00305
           Y           -0.01595   0.99987  -0.00362
           Z           -0.00311   0.00357   0.99999
 This molecule is an asymmetric top.
 Rotational symmetry number  1.
 Warning -- assumption of classical behavior for rotation
           may cause significant error
 Rotational temperatures (Kelvin)      0.10657     0.05261     0.03574
 Rotational constants (GHZ):           2.22052     1.09618     0.74460
 Zero-point vibrational energy     497794.9 (Joules/Mol)
                                  118.97585 (Kcal/Mol)
 Warning -- explicit consideration of  16 degrees of freedom as
           vibrations may cause significant error
 Vibrational temperatures:    150.14   177.24   205.37   249.67   270.61
          (Kelvin)            389.00   403.25   433.16   462.96   508.64
                              560.48   662.38   669.53   763.57   786.89
                              883.43   956.42  1007.10  1077.81  1117.24
                             1215.17  1328.75  1454.25  1472.48  1503.65
                             1519.79  1547.88  1559.40  1630.41  1646.46
                             1794.52  1850.80  1935.12  1966.95  2051.06
                             2071.75  2083.91  2115.50  2151.44  2169.43
                             2176.13  2177.27  2189.58  2203.44  2210.93
                             2341.39  2390.54  2419.15  4342.55  4364.48
                             4373.44  4419.21  4430.33  4440.59  4487.10
                             4496.25  4543.80  4555.42  5110.31  5266.42

 Zero-point correction=                           0.189600 (Hartree/Particle)
 Thermal correction to Energy=                    0.200006
 Thermal correction to Enthalpy=                  0.200950
 Thermal correction to Gibbs Free Energy=         0.154688
 Sum of electronic and zero-point Energies=           -421.452605
 Sum of electronic and thermal Energies=              -421.442200
 Sum of electronic and thermal Enthalpies=            -421.441256
 Sum of electronic and thermal Free Energies=         -421.487518

                     E (Thermal)             CV                S
                      KCal/Mol        Cal/Mol-Kelvin    Cal/Mol-Kelvin
 Total                  125.505             39.505             97.367
 Electronic               0.000              0.000              0.000
 Translational            0.889              2.981             40.637
 Rotational               0.889              2.981             29.563
 Vibrational            123.728             33.543             27.167
 Vibration     1          0.605              1.946              3.371
 Vibration     2          0.610              1.930              3.050
 Vibration     3          0.616              1.910              2.767
 Vibration     4          0.627              1.875              2.397
 Vibration     5          0.633              1.856              2.247
 Vibration     6          0.674              1.728              1.594
 Vibration     7          0.680              1.710              1.532
 Vibration     8          0.693              1.672              1.411
 Vibration     9          0.707              1.632              1.301
 Vibration    10          0.730              1.568              1.150
 Vibration    11          0.757              1.493              1.002
 Vibration    12          0.818              1.338              0.765
 Vibration    13          0.823              1.327              0.751
 Vibration    14          0.886              1.182              0.586
 Vibration    15          0.902              1.146              0.551
 Vibration    16          0.973              1.002              0.426

                           ! Non-Optimized Parameters !

 1\1\GINC-NODE103\Freq\RB3LYP\6-31G(d)\C8H12N2\VSC10255\08-Dec-2020\0\\
 #N Geom=AllCheck Guess=TCheck SCRF=Check GenChk RB3LYP/6-31G(d) Freq\\
 CID_10964577_JID_321_neutraal\\0,1\C,0.9089327936,0.0783911236,-0.0164
 206371\C,0.5027731609,-1.1076361696,0.8200905649\C,0.9551112977,-2.397
 9928141,0.5277515434\C,0.5807342868,-3.4961831465,1.2927380049\C,-0.27
 23977156,-3.2338035549,2.3860403139\N,-0.7156219985,-2.0095296164,2.69
 25570949\C,-0.3477126261,-0.9702335095,1.9291032517\C,-0.8942320048,0.
 3764145687,2.3295457915\N,-0.7478875798,-4.2721507863,3.1818839219\C,1

 Normal termination of Gaussian 16 at Tue Dec  8 10:27:05 2020.

 ----------------------------------------------------------------------
 # B3LYP/6-311++G(d,p) empiricaldispersion=gd3bj scf=xqc pop=npa geom=c
 heck
 ----------------------------------------------------------------------

 -------------------------------------
 CID_10964577_JID_321_Energie_neutraal
 -------------------------------------
 Structure from the checkpoint file:  "JID_321.chk"
 Charge =  0 Multiplicity = 1

 SCF Done:  E(RB3LYP) =  -421.760910641     A.U. after   15 cycles
 Normal termination of Gaussian 16 at Tue Dec  8 10:28:53 2020.

 ----------------------------------------------------------------------
 # B3LYP/6-311++G(d,p) empiricaldispersion=gd3bj scf=xqc pop=npa geom=c
 heck
 ----------------------------------------------------------------------

 -----------------------------------
 CID_10964577_JID_321_Energie_kation
 -----------------------------------
 Structure from the checkpoint file:  "JID_321.chk"
 Charge =  1 Multiplicity = 2

 SCF Done:  E(UB3LYP) =  -421.482820308     A.U. after   18 cycles
 Normal termination of Gaussian 16 at Tue Dec  8 10:31:53 2020.
 Gaussian 16:  ES64L-G16RevA.03 25-Dec-2016

 ----------------------------------
 CID_10964577_JID_321_Energie_anion
 ----------------------------------
 Structure from the checkpoint file:  "JID_321.chk"
 Charge = -1 Multiplicity = 2

                         Standard orientation:
 ---------------------------------------------------------------------
 Center     Atomic      Atomic             Coordinates (Angstroms)
 Number     Number       Type             X           Y           Z
 ---------------------------------------------------------------------
      1          6           0       -2.479895    1.501170    0.010874
      2          6           0       -1.183505    0.732584    0.005834
      3          6           0        0.053320    1.384769    0.009131
      4          6           0        1.252067    0.681695    0.000214
      5          6           0        1.150194   -0.726000   -0.001862
      6          7           0       -0.018728   -1.376278    0.000879
      7          6           0       -1.159620   -0.671505   -0.002963
      8          6           0       -2.436800   -1.472294   -0.009922
      9          7           0        2.290955   -1.521196   -0.064707
     10          6           0        2.593937    1.361667   -0.020906
     11          1           0       -3.092779    1.264905    0.890567
     12          1           0       -3.094053    1.273516   -0.870126
     13          1           0       -2.295194    2.580096    0.016052
     14          1           0        0.081140    2.473233    0.012044
     15          1           0       -2.199549   -2.537782   -0.011473
     16          1           0       -3.056691   -1.249141    0.868095
     17          1           0       -3.047460   -1.245420   -0.893405
     18          1           0        3.108642   -1.163890    0.412352
     19          1           0        2.093035   -2.489774    0.156682
     20          1           0        3.198145    1.023526   -0.872655
     21          1           0        2.483820    2.447876   -0.092143
     22          1           0        3.177170    1.152662    0.888405
 ---------------------------------------------------------------------

 SCF Done:  E(UB3LYP) =  -421.744655560     A.U. after   32 cycles

 The electronic state is 2-A.
 Alpha  occ. eigenvalues --  -14.20791 -14.18956 -10.12732 -10.10021 -10.07115
 Alpha  occ. eigenvalues --  -10.07059 -10.06738 -10.06374 -10.06201 -10.06025
 Alpha  occ. eigenvalues --   -0.85346  -0.78159  -0.70712  -0.67838  -0.62793
 Alpha  occ. eigenvalues --   -0.58740  -0.55452  -0.50838  -0.47944  -0.42008
 Alpha  occ. eigenvalues --   -0.40155  -0.36195  -0.33998  -0.33539  -0.31526
 Alpha  occ. eigenvalues --   -0.30700  -0.29923  -0.29860  -0.29053  -0.28166
 Alpha  occ. eigenvalues --   -0.27250  -0.26987  -0.24542  -0.20025  -0.16221
 Alpha  occ. eigenvalues --   -0.15352  -0.10251   0.04713
 Alpha virt. eigenvalues --    0.06451   0.07601   0.08351   0.08981   0.09693
 Alpha virt. eigenvalues --    0.10116   0.10805   0.10988   0.11584   0.11926
 Alpha virt. eigenvalues --    0.12482   0.13182   0.14545   0.14794   0.16172

  Beta  occ. eigenvalues --  -14.20750 -14.18939 -10.12728 -10.10018 -10.07108
  Beta  occ. eigenvalues --  -10.07049 -10.06735 -10.06339 -10.06183 -10.05972
  Beta  occ. eigenvalues --   -0.85321  -0.78112  -0.70687  -0.67804  -0.62753
  Beta  occ. eigenvalues --   -0.58672  -0.55388  -0.50796  -0.47882  -0.41978
  Beta  occ. eigenvalues --   -0.40088  -0.36152  -0.33968  -0.33486  -0.31478
  Beta  occ. eigenvalues --   -0.30651  -0.29891  -0.29825  -0.29009  -0.28120
  Beta  occ. eigenvalues --   -0.27212  -0.26953  -0.24510  -0.19993  -0.16193
  Beta  occ. eigenvalues --   -0.15282  -0.10221
  Beta virt. eigenvalues --    0.06956   0.07820   0.08284   0.08483   0.09687
  Beta virt. eigenvalues --    0.10328   0.10504   0.10858   0.11803   0.12036
  Beta virt. eigenvalues --    0.12603   0.12837   0.13337   0.15127   0.15231

 Mulliken charges and spin densities:
               1          2
     1  C    2.251027  -3.021972
     2  C   -0.805430   1.854724
     3  C    0.563071  -1.721171
     4  C   -0.505463   1.907453
     5  C   -0.990945   0.166110
     6  N   -0.036939   0.007497
     7  C   -1.911237   1.569722
     8  C    0.424776  -0.983669
     9  N   -0.361623   0.077647
    10  C    3.182923  -3.679471
    11  H   -0.126953   0.270172
    12  H   -0.092225   0.231474
    13  H   -0.584239   0.741143
    14  H   -0.343325   0.462194
    15  H    0.047388   0.107760
    16  H   -0.103562   0.250392
    17  H   -0.052686   0.196488
    18  H   -0.358298   0.614834
    19  H    0.003118   0.254344
    20  H   -0.286955   0.456267
    21  H   -0.355658   0.504329
    22  H   -0.556765   0.733732
 Sum of Mulliken charges =  -1.00000   1.00000

 Dipole moment (field-independent basis, Debye):
    X=             -3.4514    Y=             -2.3365    Z=             -1.1425  Tot=              4.3217
 Quadrupole moment (field-independent basis, Debye-Ang):
   XX=           -130.7230   YY=           -102.8130   ZZ=            -88.0356
   XY=              3.0636   XZ=             -2.8671   YZ=             -0.7189

 Summary of Natural Population Analysis:

                                       Natural Population
                Natural  -----------------------------------------------
    Atom  No    Charge         Core      Valence    Rydberg      Total
 -----------------------------------------------------------------------
      C    1   -0.29214      0.99965     2.28660    0.00590     3.29214
      C    2   -0.05277      0.99947     2.04308    0.01021     3.05277
      C    3   -0.07193      0.99948     2.06247    0.00998     3.07193
      C    4   -0.05145      0.99948     2.04138    0.01060     3.05145
      C    5    0.19919      0.99949     1.78634    0.01499     2.80081
      N    6   -0.26436      0.99964     2.75370    0.01101     3.76436
      C    7    0.11263      0.99950     1.87496    0.01291     2.88737
      C    8   -0.29858      0.99964     2.29410    0.00484     3.29858
      N    9   -0.39857      0.99971     2.88849    0.01037     3.89857
      C   10   -0.29603      0.99964     2.28999    0.00639     3.29603
      H   11    0.10311      0.00000     0.39539    0.00150     0.39689
      H   12    0.10197      0.00000     0.39669    0.00134     0.39803
      H   13    0.10292      0.00000     0.39576    0.00133     0.39708
      H   14    0.09844      0.00000     0.40045    0.00111     0.40156
      H   15    0.10734      0.00000     0.39120    0.00146     0.39266
      H   16    0.10251      0.00000     0.39600    0.00149     0.39749
      H   17    0.10170      0.00000     0.39688    0.00142     0.39830
      H   18    0.19133      0.00000     0.30406    0.00462     0.30867
      H   19    0.18858      0.00000     0.30890    0.00253     0.31142
      H   20    0.10615      0.00000     0.39221    0.00164     0.39385
      H   21    0.10419      0.00000     0.39428    0.00153     0.39581
      H   22    0.10578      0.00000     0.39099    0.00323     0.39422
 =======================================================================
   * Total *   -0.00000      9.99570    26.88391    0.12040    37.00000

 Normal termination of Gaussian 16 at Tue Dec  8 10:43:05 2020.
