 Gaussian 16, Revision A.03,

 -----------------------------------------------------------
 # opt freq B3LYP/6-31G(d) empiricaldispersion=gd3bj scf=xqc
 -----------------------------------------------------------

 ------------------------------
 CID_54794957_JID_3692_neutraal
 ------------------------------
 Symbolic Z-matrix:
 Charge =  0 Multiplicity = 1

 SCF Done:  E(RB3LYP) =  -555.604350694     A.U. after   14 cycles
 SCF Done:  E(RB3LYP) =  -555.609678963     A.U. after   12 cycles
 SCF Done:  E(RB3LYP) =  -555.610248564     A.U. after   11 cycles
 SCF Done:  E(RB3LYP) =  -555.610384243     A.U. after   10 cycles
 SCF Done:  E(RB3LYP) =  -555.610408403     A.U. after    9 cycles
 SCF Done:  E(RB3LYP) =  -555.610415803     A.U. after    9 cycles
 SCF Done:  E(RB3LYP) =  -555.610420499     A.U. after    9 cycles
 SCF Done:  E(RB3LYP) =  -555.610423193     A.U. after    8 cycles
 SCF Done:  E(RB3LYP) =  -555.610425318     A.U. after    9 cycles
 SCF Done:  E(RB3LYP) =  -555.610425610     A.U. after    7 cycles
 Optimization completed.
    -- Stationary point found.
 Normal termination of Gaussian 16 at Sun Dec 13 15:58:00 2020.

 --------------------------------------------------------------------
 #N Geom=AllCheck Guess=TCheck SCRF=Check GenChk RB3LYP/6-31G(d) Freq
 --------------------------------------------------------------------

 Structure from the checkpoint file:  "JID_3692.chk"
 ------------------------------
 CID_54794957_JID_3692_neutraal
 ------------------------------
 Charge =  0 Multiplicity = 1

 SCF Done:  E(RB3LYP) =  -555.610425610     A.U. after    1 cycles

  Exact polarizability: 181.642   6.423 132.447  -1.705   5.287  72.759
 Approx polarizability: 242.628  15.087 219.744  -1.386  15.445 108.690

                      1                      2                      3
                      A                      A                      A
 Frequencies --     43.1228                69.7166                90.1823
 Red. masses --      3.6302                 3.0676                 2.2159
 Frc consts  --      0.0040                 0.0088                 0.0106
 IR Inten    --      0.4868                 0.5091                 0.1006

                      4                      5                      6
                      A                      A                      A
 Frequencies --    118.2888               161.3636               222.1356
 Red. masses --      2.6649                 3.0835                 1.1585
 Frc consts  --      0.0220                 0.0473                 0.0337
 IR Inten    --      0.4487                 4.1496                 1.4641

                      7                      8                      9
                      A                      A                      A
 Frequencies --    226.0505               231.6301               248.3435
 Red. masses --      2.1081                 1.2038                 3.5091
 Frc consts  --      0.0635                 0.0381                 0.1275
 IR Inten    --     15.6626                16.8651                 0.2117

                     10                     11                     12
                      A                      A                      A
 Frequencies --    250.3249               277.1397               316.9856
 Red. masses --      2.0048                 1.4858                 1.9161
 Frc consts  --      0.0740                 0.0672                 0.1134
 IR Inten    --      1.2323                 3.5668                 4.8303

                     13                     14                     15
                      A                      A                      A
 Frequencies --    331.1676               357.3189               380.4706
 Red. masses --      2.5978                 3.3494                 2.0738
 Frc consts  --      0.1679                 0.2520                 0.1769
 IR Inten    --      3.8552                 1.3178                16.4351

                     16                     17                     18
                      A                      A                      A
 Frequencies --    448.3622               456.0516               482.8911
 Red. masses --      2.6241                 2.5082                 2.5637
 Frc consts  --      0.3108                 0.3074                 0.3522
 IR Inten    --      9.4294                 1.8987                 2.0028

                     19                     20                     21
                      A                      A                      A
 Frequencies --    528.0856               535.2092               601.5727
 Red. masses --      4.0460                 4.8558                 4.2991
 Frc consts  --      0.6648                 0.8195                 0.9166
 IR Inten    --      6.9694                 3.3911                 6.2942

                     22                     23                     24
                      A                      A                      A
 Frequencies --    607.9429               683.1239               714.2325
 Red. masses --      2.6786                 2.1945                 2.9313
 Frc consts  --      0.5833                 0.6034                 0.8810
 IR Inten    --     34.1577               227.4738                39.6620

                     25                     26                     27
                      A                      A                      A
 Frequencies --    720.2712               766.9752               790.3077
 Red. masses --      1.4985                 3.4432                 1.3305
 Frc consts  --      0.4580                 1.1934                 0.4896
 IR Inten    --    185.9196                62.9849                70.8057

                     28                     29                     30
                      A                      A                      A
 Frequencies --    793.1427               820.4518               831.0332
 Red. masses --      1.3335                 1.6290                 2.6157
 Frc consts  --      0.4943                 0.6461                 1.0643
 IR Inten    --     22.2146                52.7964                 7.4730

                     31                     32                     33
                      A                      A                      A
 Frequencies --    845.2263               880.9842               899.6826
 Red. masses --      1.6276                 1.4798                 1.3040
 Frc consts  --      0.6851                 0.6767                 0.6219
 IR Inten    --    155.6737                66.0757                10.0547

                     34                     35                     36
                      A                      A                      A
 Frequencies --    946.1511               989.3564               994.4524
 Red. masses --      1.7222                 2.1871                 1.3905
 Frc consts  --      0.9084                 1.2613                 0.8102
 IR Inten    --      4.5290                 4.0053                 1.4787

                     37                     38                     39
                      A                      A                      A
 Frequencies --   1020.2791              1065.3783              1106.9706
 Red. masses --      1.8125                 2.9664                 1.6675
 Frc consts  --      1.1116                 1.9837                 1.2039
 IR Inten    --      4.7476                 2.0277                 5.6708

                     40                     41                     42
                      A                      A                      A
 Frequencies --   1150.4038              1166.5237              1176.7666
 Red. masses --      1.3495                 2.0286                 1.5134
 Frc consts  --      1.0522                 1.6264                 1.2347
 IR Inten    --     11.0337                 6.5628                21.3955

                     43                     44                     45
                      A                      A                      A
 Frequencies --   1195.3671              1200.4424              1226.2485
 Red. masses --      1.7141                 1.7892                 2.1794
 Frc consts  --      1.4430                 1.5191                 1.9309
 IR Inten    --     51.2795                 4.1256                 7.4510

                     46                     47                     48
                      A                      A                      A
 Frequencies --   1271.8143              1305.8430              1336.8676
 Red. masses --      2.0524                 1.3064                 1.3804
 Frc consts  --      1.9559                 1.3125                 1.4535
 IR Inten    --    145.3159                10.3322                 8.8744

                     49                     50                     51
                      A                      A                      A
 Frequencies --   1348.2826              1352.4872              1380.2281
 Red. masses --      2.4384                 1.9018                 1.3034
 Frc consts  --      2.6117                 2.0496                 1.4630
 IR Inten    --     17.8799                20.8562                 2.1457

                     52                     53                     54
                      A                      A                      A
 Frequencies --   1403.1483              1415.1175              1436.3169
 Red. masses --      1.9628                 2.2170                 1.2769
 Frc consts  --      2.2769                 2.6158                 1.5521
 IR Inten    --      9.0767                 2.2829                12.1487

                     55                     56                     57
                      A                      A                      A
 Frequencies --   1442.7242              1501.1176              1515.4957
 Red. masses --      1.2386                 1.8238                 1.0667
 Frc consts  --      1.5190                 2.4214                 1.4434
 IR Inten    --      1.2778                39.3161                 1.2454

                     58                     59                     60
                      A                      A                      A
 Frequencies --   1521.1475              1530.4392              1532.6054
 Red. masses --      1.4760                 1.0423                 1.3292
 Frc consts  --      2.0122                 1.4383                 1.8395
 IR Inten    --      4.1121                 7.0429                11.9682

                     61                     62                     63
                      A                      A                      A
 Frequencies --   1537.1145              1542.9637              1571.3653
 Red. masses --      1.0763                 1.0606                 2.9535
 Frc consts  --      1.4983                 1.4877                 4.2967
 IR Inten    --      9.8195                 3.6078               256.0976

                     64                     65                     66
                      A                      A                      A
 Frequencies --   1650.4354              1671.7812              1692.5149
 Red. masses --      4.5837                 1.6318                 1.1822
 Frc consts  --      7.3564                 2.6871                 1.9953
 IR Inten    --      5.8373                24.6321                39.9397

                     67                     68                     69
                      A                      A                      A
 Frequencies --   1701.2862              3018.8327              3043.5898
 Red. masses --      2.3149                 1.0689                 1.0488
 Frc consts  --      3.9476                 5.7395                 5.7241
 IR Inten    --     89.3858                20.4804                 7.0454

                     70                     71                     72
                      A                      A                      A
 Frequencies --   3048.4696              3052.2790              3081.1013
 Red. masses --      1.0378                 1.0720                 1.0951
 Frc consts  --      5.6825                 5.8845                 6.1249
 IR Inten    --     34.1605                28.2525                15.4832

                     73                     74                     75
                      A                      A                      A
 Frequencies --   3111.6862              3112.2618              3123.7001
 Red. masses --      1.0998                 1.1004                 1.1009
 Frc consts  --      6.2741                 6.2800                 6.3292
 IR Inten    --     21.9593                60.8653                46.3561

                     76                     77                     78
                      A                      A                      A
 Frequencies --   3137.9584              3158.9796              3178.3003
 Red. masses --      1.1009                 1.0895                 1.0885
 Frc consts  --      6.3867                 6.4059                 6.4784
 IR Inten    --     28.3017                27.0111                23.2788

                     79                     80                     81
                      A                      A                      A
 Frequencies --   3214.2827              3479.2265              3488.1426
 Red. masses --      1.0911                 1.0711                 1.0538
 Frc consts  --      6.6417                 7.6394                 7.5547
 IR Inten    --     17.8306                 6.9332                 2.8126

                     82                     83                     84
                      A                      A                      A
 Frequencies --   3527.2891              3599.5393              3623.1679
 Red. masses --      1.0484                 1.0928                 1.0963
 Frc consts  --      7.6855                 8.3425                 8.4795
 IR Inten    --      3.0638                 6.7940                 3.6984

 - Thermochemistry -
 -------------------
 Temperature   298.150 Kelvin.  Pressure   1.00000 Atm.
 Atom     1 has atomic number  6 and mass  12.00000

 Molecular mass:   179.14225 amu.
 Principal axes and moments of inertia in atomic units:
                           1         2         3
     Eigenvalues --  1018.213744726.318335428.98515
           X            0.99998  -0.00566  -0.00225
           Y            0.00563   0.99992  -0.01166
           Z            0.00231   0.01165   0.99993
 This molecule is an asymmetric top.
 Rotational symmetry number  1.
 Warning -- assumption of classical behavior for rotation
           may cause significant error
 Rotational temperatures (Kelvin)      0.08506     0.01833     0.01595
 Rotational constants (GHZ):           1.77246     0.38185     0.33243
 Zero-point vibrational energy     697590.5 (Joules/Mol)
                                  166.72814 (Kcal/Mol)
 Warning -- explicit consideration of  22 degrees of freedom as
           vibrations may cause significant error
 Vibrational temperatures:     62.04   100.31   129.75   170.19   232.17
          (Kelvin)            319.60   325.24   333.26   357.31   360.16
                              398.74   456.07   476.48   514.10   547.41
                              645.09   656.16   694.77   759.80   770.05
                              865.53   874.69   982.86  1027.62  1036.31
                             1103.51  1137.08  1141.16  1180.45  1195.67
                             1216.09  1267.54  1294.44  1361.30  1423.46
                             1430.80  1467.95  1532.84  1592.68  1655.17
                             1678.37  1693.10  1719.87  1727.17  1764.30
                             1829.86  1878.82  1923.45  1939.88  1945.93
                             1985.84  2018.82  2036.04  2066.54  2075.76
                             2159.77  2180.46  2188.59  2201.96  2205.08
                             2211.56  2219.98  2260.84  2374.61  2405.32
                             2435.15  2447.77  4343.43  4379.05  4386.07
                             4391.55  4433.02  4477.02  4477.85  4494.31
                             4514.82  4545.07  4572.87  4624.64  5005.83
                             5018.66  5074.98  5178.93  5212.93

 Zero-point correction=                           0.265698 (Hartree/Particle)
 Thermal correction to Energy=                    0.279528
 Thermal correction to Enthalpy=                  0.280472
 Thermal correction to Gibbs Free Energy=         0.225827
 Sum of electronic and zero-point Energies=           -555.344727
 Sum of electronic and thermal Energies=              -555.330897
 Sum of electronic and thermal Enthalpies=            -555.329953
 Sum of electronic and thermal Free Energies=         -555.384599

                     E (Thermal)             CV                S
                      KCal/Mol        Cal/Mol-Kelvin    Cal/Mol-Kelvin
 Total                  175.407             53.712            115.012
 Electronic               0.000              0.000              0.000
 Translational            0.889              2.981             41.456
 Rotational               0.889              2.981             31.636
 Vibrational            173.629             47.750             41.920
 Vibration     1          0.595              1.980              5.110
 Vibration     2          0.598              1.969              4.161
 Vibration     3          0.602              1.956              3.656
 Vibration     4          0.608              1.934              3.128
 Vibration     5          0.622              1.890              2.534
 Vibration     6          0.648              1.807              1.942
 Vibration     7          0.650              1.801              1.910
 Vibration     8          0.653              1.793              1.866
 Vibration     9          0.662              1.766              1.742
 Vibration    10          0.663              1.762              1.728
 Vibration    11          0.678              1.716              1.551
 Vibration    12          0.704              1.641              1.326
 Vibration    13          0.714              1.613              1.254
 Vibration    14          0.732              1.560              1.134
 Vibration    15          0.750              1.512              1.037
 Vibration    16          0.807              1.365              0.801
 Vibration    17          0.814              1.348              0.778
 Vibration    18          0.839              1.288              0.702
 Vibration    19          0.883              1.188              0.591
 Vibration    20          0.890              1.172              0.576
 Vibration    21          0.960              1.028              0.447
 Vibration    22          0.967              1.015              0.436

 Optimization completed.
    -- Stationary point found.
 Normal termination of Gaussian 16 at Sun Dec 13 16:05:15 2020.

 ----------------------------------------------------------------------
 # B3LYP/6-311++G(d,p) empiricaldispersion=gd3bj scf=xqc pop=npa geom=c
 heck
 ----------------------------------------------------------------------

 --------------------------------------
 CID_54794957_JID_3692_Energie_neutraal
 --------------------------------------
 Structure from the checkpoint file:  "JID_3692.chk"
 Charge =  0 Multiplicity = 1

 SCF Done:  E(RB3LYP) =  -555.779108508     A.U. after   14 cycles
 Normal termination of Gaussian 16 at Sun Dec 13 16:08:04 2020.

 ----------------------------------------------------------------------
 # B3LYP/6-311++G(d,p) empiricaldispersion=gd3bj scf=xqc pop=npa geom=c
 heck
 ----------------------------------------------------------------------

 ------------------------------------
 CID_54794957_JID_3692_Energie_kation
 ------------------------------------
 Structure from the checkpoint file:  "JID_3692.chk"
 Charge =  1 Multiplicity = 2

 SCF Done:  E(UB3LYP) =  -555.539597638     A.U. after   19 cycles
 Normal termination of Gaussian 16 at Sun Dec 13 16:13:04 2020.
 Gaussian 16:  ES64L-G16RevA.03 25-Dec-2016

 ----------------------------------------------------------------------
 # B3LYP/6-311++G(d,p) empiricaldispersion=gd3bj scf=xqc pop=npa geom=c
 heck
 ----------------------------------------------------------------------

 -----------------------------------
 CID_54794957_JID_3692_Energie_anion
 -----------------------------------
 Structure from the checkpoint file:  "JID_3692.chk"
 Charge = -1 Multiplicity = 2

                         Standard orientation:
 ---------------------------------------------------------------------
 Center     Atomic      Atomic             Coordinates (Angstroms)
 Number     Number       Type             X           Y           Z
 ---------------------------------------------------------------------
      1          6           0        4.678881   -0.431380   -0.520938
      2          6           0        3.437953    0.455090   -0.393164
      3          6           0        2.152580   -0.305310   -0.035353
      4          6           0        2.254968   -1.032760    1.314692
      5          7           0        1.040171    0.644757   -0.083600
      6          6           0       -0.296241    0.186620   -0.085395
      7          6           0       -1.304008    1.171283    0.055639
      8          6           0       -2.647876    0.807877    0.054229
      9          6           0       -3.038674   -0.530460   -0.105856
     10          6           0       -2.046152   -1.496709   -0.284315
     11          6           0       -0.695164   -1.137625   -0.269274
     12          7           0       -4.406556   -0.866881   -0.165325
     13          7           0       -0.886178    2.506597    0.239319
     14          1           0        4.950222   -0.896040    0.432766
     15          1           0        5.541083    0.152868   -0.860015
     16          1           0        4.515167   -1.235203   -1.249306
     17          1           0        3.615186    1.227291    0.370807
     18          1           0        3.258267    0.986150   -1.335126
     19          1           0        1.972536   -1.042539   -0.827967
     20          1           0        2.539793   -0.324681    2.103690
     21          1           0        1.294849   -1.476708    1.591829
     22          1           0        3.004868   -1.830584    1.290989
     23          1           0        1.157069    1.376038    0.616317
     24          1           0       -3.407618    1.581375    0.154479
     25          1           0       -2.323176   -2.538048   -0.428140
     26          1           0        0.049792   -1.915679   -0.394035
     27          1           0       -4.991700   -0.264385    0.402865
     28          1           0       -4.585505   -1.836733    0.070010
     29          1           0       -1.651181    3.168666    0.163415
     30          1           0       -0.149319    2.757150   -0.416934
 ---------------------------------------------------------------------

 SCF Done:  E(UB3LYP) =  -555.764710767     A.U. after   33 cycles
 SCF Done:  E(UB3LYP) =  -555.764710767     a.u. after    1 cycles

 The electronic state is 2-A.
 Alpha  occ. eigenvalues --  -14.21680 -14.21539 -14.21031 -10.11072 -10.10515
 Alpha  occ. eigenvalues --  -10.10224 -10.09650 -10.07384 -10.06878 -10.06678
 Alpha  occ. eigenvalues --  -10.06591 -10.05989 -10.05851  -0.84380  -0.81092
 Alpha  occ. eigenvalues --   -0.80134  -0.72091  -0.69131  -0.63181  -0.63101
 Alpha  occ. eigenvalues --   -0.60353  -0.55375  -0.51991  -0.49123  -0.48062
 Alpha  occ. eigenvalues --   -0.43129  -0.42478  -0.40020  -0.38448  -0.37523
 Alpha  occ. eigenvalues --   -0.36296  -0.35125  -0.33733  -0.33012  -0.31602
 Alpha  occ. eigenvalues --   -0.31472  -0.30057  -0.29377  -0.27850  -0.27462
 Alpha  occ. eigenvalues --   -0.26626  -0.25021  -0.24111  -0.23913  -0.23324
 Alpha  occ. eigenvalues --   -0.20401  -0.16081  -0.12251  -0.07888   0.04198
 Alpha virt. eigenvalues --    0.05568   0.06322   0.07675   0.07867   0.07961
 Alpha virt. eigenvalues --    0.09324   0.09615   0.09984   0.10527   0.11196
 Alpha virt. eigenvalues --    0.11406   0.12184   0.12261   0.12801   0.13534

  Beta  occ. eigenvalues --  -14.21646 -14.21532 -14.20988 -10.11069 -10.10514
  Beta  occ. eigenvalues --  -10.10220 -10.09647 -10.07369 -10.06845 -10.06676
  Beta  occ. eigenvalues --  -10.06573 -10.05968 -10.05841  -0.84360  -0.81043
  Beta  occ. eigenvalues --   -0.80090  -0.72062  -0.69102  -0.63143  -0.63070
  Beta  occ. eigenvalues --   -0.60316  -0.55324  -0.51945  -0.49077  -0.48019
  Beta  occ. eigenvalues --   -0.43094  -0.42437  -0.39969  -0.38398  -0.37490
  Beta  occ. eigenvalues --   -0.36264  -0.35089  -0.33706  -0.32977  -0.31569
  Beta  occ. eigenvalues --   -0.31443  -0.30028  -0.29344  -0.27818  -0.27431
  Beta  occ. eigenvalues --   -0.26588  -0.24991  -0.24083  -0.23886  -0.23295
  Beta  occ. eigenvalues --   -0.20381  -0.16059  -0.12227  -0.07865
  Beta virt. eigenvalues --    0.06205   0.06855   0.07187   0.08119   0.08192
  Beta virt. eigenvalues --    0.08657   0.09650   0.09984   0.10445   0.10743
  Beta virt. eigenvalues --    0.11415   0.11537   0.12360   0.12737   0.13091

 Mulliken charges and spin densities:
               1          2
     1  C    1.331743  -2.007378
     2  C   -1.514456   1.367706
     3  C    0.374200  -0.532535
     4  C    0.483261  -1.000005
     5  N    0.096459   0.002393
     6  C    0.680465  -0.911045
     7  C   -0.658192   0.477315
     8  C    0.077892   0.183731
     9  C    1.105901  -1.511374
    10  C   -0.693103   0.437311
    11  C    0.110300  -0.109438
    12  N   -0.304284  -0.009039
    13  N   -0.470165   0.080038
    14  H   -0.180025   0.328167
    15  H   -0.395158   0.545360
    16  H   -0.153595   0.286301
    17  H   -0.121313   0.226641
    18  H   -0.023397   0.200516
    19  H    0.207089  -0.082650
    20  H   -0.041138   0.206673
    21  H    0.155442  -0.021634
    22  H   -0.053290   0.179976
    23  H    0.189224   0.036585
    24  H   -0.684959   0.838585
    25  H   -0.147839   0.289601
    26  H   -0.014108   0.167779
    27  H   -0.140061   0.377640
    28  H   -0.099111   0.334754
    29  H   -0.147530   0.402827
    30  H    0.029747   0.215198
 Sum of Mulliken charges =  -1.00000   1.00000

 Dipole moment (field-independent basis, Debye):
    X=              1.7882    Y=             -1.6568    Z=              0.0943  Tot=              2.4395
 Quadrupole moment (field-independent basis, Debye-Ang):
   XX=           -189.6055   YY=           -119.2703   ZZ=           -109.5453
   XY=              3.0809   XZ=              2.2572   YZ=              0.0350

 Summary of Natural Population Analysis:

                                       Natural Population
                Natural  -----------------------------------------------
    Atom  No    Charge         Core      Valence    Rydberg      Total
 -----------------------------------------------------------------------
      C    1   -0.28694      0.99967     2.28232    0.00495     3.28694
      C    2   -0.18979      0.99962     2.18013    0.01004     3.18979
      C    3   -0.00971      0.99960     1.99931    0.01080     3.00971
      C    4   -0.29622      0.99964     2.29193    0.00464     3.29622
      N    5   -0.32789      0.99969     2.81680    0.01140     3.82789
      C    6    0.05727      0.99944     1.93262    0.01066     2.94273
      C    7    0.07928      0.99947     1.91023    0.01102     2.92072
      C    8   -0.13954      0.99948     2.13028    0.00978     3.13954
      C    9    0.07784      0.99949     1.91170    0.01096     2.92216
      C   10   -0.13495      0.99953     2.12528    0.01015     3.13495
      C   11   -0.11709      0.99954     2.11024    0.00731     3.11709
      N   12   -0.40063      0.99972     2.89029    0.01062     3.90063
      N   13   -0.40724      0.99972     2.89679    0.01073     3.90724
      H   14    0.09733      0.00000     0.40145    0.00123     0.40267
      H   15    0.10121      0.00000     0.39762    0.00118     0.39879
      H   16    0.09541      0.00000     0.40351    0.00108     0.40459
      H   17    0.09234      0.00000     0.40642    0.00124     0.40766
      H   18    0.10151      0.00000     0.39714    0.00135     0.39849
      H   19    0.09084      0.00000     0.40703    0.00212     0.40916
      H   20    0.09652      0.00000     0.40223    0.00125     0.40348
      H   21    0.10551      0.00000     0.39331    0.00117     0.39449
      H   22    0.09972      0.00000     0.39930    0.00098     0.40028
      H   23    0.18272      0.00000     0.31404    0.00325     0.31728
      H   24    0.09922      0.00000     0.39923    0.00155     0.40078
      H   25    0.09686      0.00000     0.40225    0.00089     0.40314
      H   26    0.09913      0.00000     0.39955    0.00133     0.40087
      H   27    0.18416      0.00000     0.31263    0.00320     0.31584
      H   28    0.18199      0.00000     0.31561    0.00240     0.31801
      H   29    0.18516      0.00000     0.31242    0.00242     0.31484
      H   30    0.18596      0.00000     0.31183    0.00221     0.31404
 =======================================================================
   * Total *    0.00000     12.99461    35.85349    0.15190    49.00000

 Normal termination of Gaussian 16 at Sun Dec 13 16:21:43 2020.
