 Gaussian 16, Revision A.03,

 -----------------------------------------------------------
 # opt freq B3LYP/6-31G(d) empiricaldispersion=gd3bj scf=xqc
 -----------------------------------------------------------

 -------------------------------
 CID_144524300_JID_2940_neutraal
 -------------------------------
 Symbolic Z-matrix:
 Charge =  0 Multiplicity = 1

 SCF Done:  E(RB3LYP) =  -849.102356346     A.U. after   13 cycles
 SCF Done:  E(RB3LYP) =  -849.102779454     A.U. after   13 cycles
 SCF Done:  E(RB3LYP) =  -849.099373308     A.U. after   13 cycles
 SCF Done:  E(RB3LYP) =  -849.104603816     A.U. after   11 cycles
 SCF Done:  E(RB3LYP) =  -849.104501254     A.U. after   13 cycles
 SCF Done:  E(RB3LYP) =  -849.105718015     A.U. after   11 cycles
 SCF Done:  E(RB3LYP) =  -849.106378549     A.U. after   11 cycles
 SCF Done:  E(RB3LYP) =  -849.107282764     A.U. after   13 cycles
 SCF Done:  E(RB3LYP) =  -849.107374383     A.U. after   11 cycles
 SCF Done:  E(RB3LYP) =  -849.107998313     A.U. after   11 cycles
 SCF Done:  E(RB3LYP) =  -849.109932097     A.U. after    9 cycles
 SCF Done:  E(RB3LYP) =  -849.109932615     A.U. after    7 cycles
 SCF Done:  E(RB3LYP) =  -849.109932993     A.U. after    7 cycles
 SCF Done:  E(RB3LYP) =  -849.109932972     A.U. after    7 cycles
 SCF Done:  E(RB3LYP) =  -849.109933047     A.U. after    6 cycles
 SCF Done:  E(RB3LYP) =  -849.109933034     A.U. after    6 cycles
 Optimization completed.
    -- Stationary point found.
 Normal termination of Gaussian 16 at Wed Dec  9 18:39:51 2020.

 --------------------------------------------------------------------
 #N Geom=AllCheck Guess=TCheck SCRF=Check GenChk RB3LYP/6-31G(d) Freq
 --------------------------------------------------------------------

 Structure from the checkpoint file:  "JID_2940.chk"
 -------------------------------
 CID_144524300_JID_2940_neutraal
 -------------------------------
 Charge =  0 Multiplicity = 1

 SCF Done:  E(RB3LYP) =  -849.109933034     A.U. after    1 cycles

  Exact polarizability: 146.234   5.004 126.423   2.718  -1.131 119.989
 Approx polarizability: 179.947   5.048 173.621   6.261  -3.402 180.817

                      1                      2                      3
                      A                      A                      A
 Frequencies --     14.8210                18.7712                35.6484
 Red. masses --      3.6940                 3.9817                 2.5593
 Frc consts  --      0.0005                 0.0008                 0.0019
 IR Inten    --      0.7979                 0.2804                 0.0935

                      4                      5                      6
                      A                      A                      A
 Frequencies --     47.4887                51.0981                65.8650
 Red. masses --      3.4197                 3.7062                 3.3683
 Frc consts  --      0.0045                 0.0057                 0.0086
 IR Inten    --      0.1259                 0.5183                 0.2100

                      7                      8                      9
                      A                      A                      A
 Frequencies --     78.0934                87.6926               103.3103
 Red. masses --      3.5506                 2.8590                 1.9367
 Frc consts  --      0.0128                 0.0130                 0.0122
 IR Inten    --      0.0583                 0.1835                 0.2489

                     10                     11                     12
                      A                      A                      A
 Frequencies --    139.7775               189.4452               213.8232
 Red. masses --      2.6559                 1.2951                 1.1801
 Frc consts  --      0.0306                 0.0274                 0.0318
 IR Inten    --      3.7585                 0.0012                16.5250

                     13                     14                     15
                      A                      A                      A
 Frequencies --    230.1123               236.3473               250.9000
 Red. masses --      2.2517                 2.1881                 1.1197
 Frc consts  --      0.0702                 0.0720                 0.0415
 IR Inten    --      0.0538                 7.8274                 0.0346

                     16                     17                     18
                      A                      A                      A
 Frequencies --    262.9010               284.3167               304.6417
 Red. masses --      1.0653                 2.4561                 1.2120
 Frc consts  --      0.0434                 0.1170                 0.0663
 IR Inten    --      1.8382                 4.7866                 9.0930

                     19                     20                     21
                      A                      A                      A
 Frequencies --    308.4991               353.7533               398.1588
 Red. masses --      1.4911                 1.9805                 2.2081
 Frc consts  --      0.0836                 0.1460                 0.2062
 IR Inten    --      0.0904                 0.1526                 3.6897

                     22                     23                     24
                      A                      A                      A
 Frequencies --    417.0152               440.5441               505.4328
 Red. masses --      1.7940                 1.8622                 2.1868
 Frc consts  --      0.1838                 0.2129                 0.3291
 IR Inten    --      0.3660                 0.5053                14.3433

                     25                     26                     27
                      A                      A                      A
 Frequencies --    517.7722               644.1609               732.1502
 Red. masses --      2.2113                 4.1749                 1.2199
 Frc consts  --      0.3493                 1.0207                 0.3853
 IR Inten    --      0.0347                 3.5372                 8.4203

                     28                     29                     30
                      A                      A                      A
 Frequencies --    740.0295               763.7087               819.3478
 Red. masses --      1.6478                 1.5641                 2.0067
 Frc consts  --      0.5317                 0.5375                 0.7937
 IR Inten    --      9.0217                 1.3571                17.2517

                     31                     32                     33
                      A                      A                      A
 Frequencies --    835.5851               837.7536               910.2863
 Red. masses --      1.6580                 1.5994                 1.4643
 Frc consts  --      0.6821                 0.6614                 0.7149
 IR Inten    --      2.7952                 2.8325                 0.0728

                     34                     35                     36
                      A                      A                      A
 Frequencies --    930.0891               943.6718               970.2251
 Red. masses --      1.6564                 2.3093                 1.6026
 Frc consts  --      0.8442                 1.2116                 0.8888
 IR Inten    --      0.1467                 4.5604                 3.5888

                     37                     38                     39
                      A                      A                      A
 Frequencies --    976.7638              1039.0064              1052.8061
 Red. masses --      1.6234                 1.8302                 2.1548
 Frc consts  --      0.9125                 1.1641                 1.4072
 IR Inten    --      8.4199                 0.3651                 3.3001

                     40                     41                     42
                      A                      A                      A
 Frequencies --   1059.1505              1061.9351              1089.3031
 Red. masses --      1.4747                 1.3052                 1.4881
 Frc consts  --      0.9747                 0.8672                 1.0404
 IR Inten    --      0.4381                 1.0125                 5.9019

                     43                     44                     45
                      A                      A                      A
 Frequencies --   1093.9893              1113.2440              1136.1539
 Red. masses --      2.0326                 2.1123                 1.2737
 Frc consts  --      1.4333                 1.5424                 0.9687
 IR Inten    --     53.9152                 0.0670                11.1779

                     46                     47                     48
                      A                      A                      A
 Frequencies --   1172.2117              1180.5313              1183.5377
 Red. masses --      2.1461                 1.4151                 1.7947
 Frc consts  --      1.7374                 1.1619                 1.4812
 IR Inten    --      3.6412                16.6935                 0.6975

                     49                     50                     51
                      A                      A                      A
 Frequencies --   1193.3985              1255.8188              1266.5934
 Red. masses --      1.4227                 1.3422                 1.2579
 Frc consts  --      1.1938                 1.2471                 1.1889
 IR Inten    --      6.1250                 0.6285                 5.6549

                     52                     53                     54
                      A                      A                      A
 Frequencies --   1285.0586              1324.4933              1327.1979
 Red. masses --      1.3373                 1.5208                 1.1854
 Frc consts  --      1.3011                 1.5719                 1.2303
 IR Inten    --      0.2682                11.3172                 1.0030

                     55                     56                     57
                      A                      A                      A
 Frequencies --   1347.0098              1347.3741              1383.4072
 Red. masses --      1.8920                 1.2838                 1.3309
 Frc consts  --      2.0226                 1.3731                 1.5007
 IR Inten    --     13.1883                 3.5627                 9.4034

                     58                     59                     60
                      A                      A                      A
 Frequencies --   1397.9013              1399.7891              1412.3109
 Red. masses --      1.3549                 1.4477                 1.2938
 Frc consts  --      1.5600                 1.6713                 1.5205
 IR Inten    --     22.2917                 2.9925                12.6574

                     61                     62                     63
                      A                      A                      A
 Frequencies --   1413.2566              1420.9180              1440.5002
 Red. masses --      1.3375                 1.3956                 1.2995
 Frc consts  --      1.5739                 1.6601                 1.5888
 IR Inten    --      4.5913                 2.8841                 0.0867

                     64                     65                     66
                      A                      A                      A
 Frequencies --   1443.4946              1470.9190              1483.8752
 Red. masses --      1.2642                 1.1479                 1.1076
 Frc consts  --      1.5521                 1.4633                 1.4369
 IR Inten    --     13.3357                 1.8194                 0.8041

                     67                     68                     69
                      A                      A                      A
 Frequencies --   1489.5804              1500.4193              1504.7140
 Red. masses --      1.0847                 1.0480                 1.1003
 Frc consts  --      1.4180                 1.3900                 1.4678
 IR Inten    --      7.9427                 7.0541                13.7126

                     70                     71                     72
                      A                      A                      A
 Frequencies --   1510.1289              1517.4737              1519.8146
 Red. masses --      1.0719                 1.0700                 1.0917
 Frc consts  --      1.4402                 1.4518                 1.4857
 IR Inten    --      2.2976                 5.0149                14.5970

                     73                     74                     75
                      A                      A                      A
 Frequencies --   1523.9013              1529.9006              1533.6026
 Red. masses --      1.0735                 1.0549                 1.0606
 Frc consts  --      1.4688                 1.4547                 1.4698
 IR Inten    --      2.3479                 3.5249                 6.4511

                     76                     77                     78
                      A                      A                      A
 Frequencies --   1536.0063              1539.2260              1542.0470
 Red. masses --      1.0586                 1.0541                 1.0517
 Frc consts  --      1.4715                 1.4715                 1.4735
 IR Inten    --      4.1999                 3.6339                 1.0933

                     79                     80                     81
                      A                      A                      A
 Frequencies --   1549.1392              1556.1842              2693.4181
 Red. masses --      1.0839                 1.0633                 1.0385
 Frc consts  --      1.5325                 1.5171                 4.4387
 IR Inten    --      4.5799                 8.8928                16.3110

                     82                     83                     84
                      A                      A                      A
 Frequencies --   2943.5709              2965.5665              3015.7114
 Red. masses --      1.0612                 1.0597                 1.0698
 Frc consts  --      5.4176                 5.4908                 5.7322
 IR Inten    --     82.1644               131.9968                27.5515

                     85                     86                     87
                      A                      A                      A
 Frequencies --   3021.4230              3028.9333              3036.7122
 Red. masses --      1.0638                 1.0627                 1.0657
 Frc consts  --      5.7219                 5.7445                 5.7902
 IR Inten    --      6.5564                40.6875                69.6510

                     88                     89                     90
                      A                      A                      A
 Frequencies --   3040.7011              3042.1988              3044.6533
 Red. masses --      1.0524                 1.0393                 1.0547
 Frc consts  --      5.7329                 5.6669                 5.7604
 IR Inten    --      9.4491                40.5759                16.8813

                     91                     92                     93
                      A                      A                      A
 Frequencies --   3054.8790              3059.9569              3069.6650
 Red. masses --      1.0960                 1.0785                 1.0979
 Frc consts  --      6.0265                 5.9498                 6.0951
 IR Inten    --      6.4305                45.4220                51.9105

                     94                     95                     96
                      A                      A                      A
 Frequencies --   3072.0708              3077.7673              3085.8616
 Red. masses --      1.0708                 1.0606                 1.0967
 Frc consts  --      5.9542                 5.9192                 6.1533
 IR Inten    --     59.6533                17.7622                29.6654

                     97                     98                     99
                      A                      A                      A
 Frequencies --   3089.0837              3101.2349              3106.3243
 Red. masses --      1.0952                 1.0958                 1.1000
 Frc consts  --      6.1573                 6.2095                 6.2535
 IR Inten    --      2.9890                25.3319                20.0583

                    100                    101                    102
                      A                      A                      A
 Frequencies --   3108.0632              3113.6254              3118.0382
 Red. masses --      1.0999                 1.1018                 1.1037
 Frc consts  --      6.2600                 6.2936                 6.3224
 IR Inten    --     75.4890                52.3469                26.9980

                    103                    104                    105
                      A                      A                      A
 Frequencies --   3120.0626              3128.9428              3139.5844
 Red. masses --      1.1012                 1.1039                 1.0975
 Frc consts  --      6.3158                 6.3677                 6.3736
 IR Inten    --     52.1277                15.3527                19.1909

 - Thermochemistry -
 -------------------
 Temperature   298.150 Kelvin.  Pressure   1.00000 Atm.
 Atom     1 has atomic number  6 and mass  12.00000

 Molecular mass:   191.17077 amu.
 Principal axes and moments of inertia in atomic units:
                           1         2         3
     Eigenvalues --  1562.924375616.338916308.78032
           X            0.99996  -0.00847   0.00015
           Y            0.00847   0.99994   0.00749
           Z           -0.00022  -0.00749   0.99997
 This molecule is an asymmetric top.
 Rotational symmetry number  1.
 Warning -- assumption of classical behavior for rotation
           may cause significant error
 Rotational temperatures (Kelvin)      0.05542     0.01542     0.01373
 Rotational constants (GHZ):           1.15472     0.32134     0.28607
 Zero-point vibrational energy     897709.9 (Joules/Mol)
                                  214.55781 (Kcal/Mol)
 Warning -- explicit consideration of  25 degrees of freedom as
           vibrations may cause significant error
 Vibrational temperatures:     21.32    27.01    51.29    68.33    73.52
          (Kelvin)             94.77   112.36   126.17   148.64   201.11
                              272.57   307.64   331.08   340.05   360.99
                              378.26   409.07   438.31   443.86   508.97
                              572.86   599.99   633.84   727.21   744.96
                              926.80  1053.40  1064.74  1098.81  1178.86
                             1202.22  1205.34  1309.70  1338.19  1357.73
                             1395.94  1405.35  1494.90  1514.75  1523.88
                             1527.89  1567.26  1574.01  1601.71  1634.67
                             1686.55  1698.52  1702.85  1717.03  1806.84
                             1822.35  1848.91  1905.65  1909.54  1938.05
                             1938.57  1990.41  2011.27  2013.98  2032.00
                             2033.36  2044.38  2072.56  2076.87  2116.32
                             2134.97  2143.17  2158.77  2164.95  2172.74
                             2183.31  2186.67  2192.55  2201.19  2206.51
                             2209.97  2214.60  2218.66  2228.87  2239.00
                             3875.23  4235.14  4266.79  4338.94  4347.15
                             4357.96  4369.15  4374.89  4377.05  4380.58
                             4395.29  4402.60  4416.56  4420.02  4428.22
                             4439.87  4444.50  4461.99  4469.31  4471.81
                             4479.81  4486.16  4489.07  4501.85  4517.16

 Zero-point correction=                           0.341920 (Hartree/Particle)
 Thermal correction to Energy=                    0.360208
 Thermal correction to Enthalpy=                  0.361152
 Thermal correction to Gibbs Free Energy=         0.292011
 Sum of electronic and zero-point Energies=           -848.768013
 Sum of electronic and thermal Energies=              -848.749725
 Sum of electronic and thermal Enthalpies=            -848.748781
 Sum of electronic and thermal Free Energies=         -848.817922

                     E (Thermal)             CV                S
                      KCal/Mol        Cal/Mol-Kelvin    Cal/Mol-Kelvin
 Total                  226.034             63.099            145.521
 Electronic               0.000              0.000              0.000
 Translational            0.889              2.981             41.650
 Rotational               0.889              2.981             32.382
 Vibrational            224.257             57.138             71.489
 Vibration     1          0.593              1.986              7.229
 Vibration     2          0.593              1.986              6.760
 Vibration     3          0.594              1.982              5.487
 Vibration     4          0.595              1.979              4.919
 Vibration     5          0.595              1.977              4.774
 Vibration     6          0.597              1.971              4.273
 Vibration     7          0.599              1.964              3.938
 Vibration     8          0.601              1.958              3.711
 Vibration     9          0.605              1.947              3.391
 Vibration    10          0.615              1.914              2.807
 Vibration    11          0.633              1.854              2.233
 Vibration    12          0.644              1.820              2.011
 Vibration    13          0.652              1.795              1.878
 Vibration    14          0.655              1.785              1.830
 Vibration    15          0.663              1.761              1.724
 Vibration    16          0.670              1.741              1.642
 Vibration    17          0.683              1.703              1.508
 Vibration    18          0.696              1.665              1.391
 Vibration    19          0.698              1.658              1.370
 Vibration    20          0.730              1.568              1.149
 Vibration    21          0.764              1.474              0.969
 Vibration    22          0.780              1.433              0.902
 Vibration    23          0.800              1.382              0.825
 Vibration    24          0.861              1.238              0.645
 Vibration    25          0.873              1.211              0.615

 Optimization completed.
    -- Stationary point found.
 Normal termination of Gaussian 16 at Wed Dec  9 18:49:09 2020.

 ----------------------------------------------------------------------
 # B3LYP/6-311++G(d,p) empiricaldispersion=gd3bj scf=xqc pop=npa geom=c
 heck
 ----------------------------------------------------------------------

 ---------------------------------------
 CID_144524300_JID_2940_Energie_neutraal
 ---------------------------------------
 Structure from the checkpoint file:  "JID_2940.chk"
 Charge =  0 Multiplicity = 1

 SCF Done:  E(RB3LYP) =  -849.270364631     A.U. after   12 cycles
 Normal termination of Gaussian 16 at Wed Dec  9 18:53:04 2020.

 ----------------------------------------------------------------------
 # B3LYP/6-311++G(d,p) empiricaldispersion=gd3bj scf=xqc pop=npa geom=c
 heck
 ----------------------------------------------------------------------

 -------------------------------------
 CID_144524300_JID_2940_Energie_kation
 -------------------------------------
 Structure from the checkpoint file:  "JID_2940.chk"
 Charge =  1 Multiplicity = 2

 SCF Done:  E(UB3LYP) =  -848.985372124     A.U. after   19 cycles
 Normal termination of Gaussian 16 at Wed Dec  9 19:01:05 2020.
 Gaussian 16:  ES64L-G16RevA.03 25-Dec-2016

 ----------------------------------------------------------------------
 # B3LYP/6-311++G(d,p) empiricaldispersion=gd3bj scf=xqc pop=npa geom=c
 heck
 ----------------------------------------------------------------------

 ------------------------------------
 CID_144524300_JID_2940_Energie_anion
 ------------------------------------
 Structure from the checkpoint file:  "JID_2940.chk"
 Charge = -1 Multiplicity = 2

                         Standard orientation:
 ---------------------------------------------------------------------
 Center     Atomic      Atomic             Coordinates (Angstroms)
 Number     Number       Type             X           Y           Z
 ---------------------------------------------------------------------
      1          6           0        1.417359   -2.364267   -0.478788
      2          6           0        1.950753   -1.598232    0.734761
      3          6           0        3.388784   -1.085535    0.562676
      4          6           0        3.592410   -0.112659   -0.610612
      5          6           0        2.687235    1.128357   -0.583824
      6          6           0        2.870239    2.002145    0.660713
      7          6           0       -1.099092    0.309537   -1.586402
      8          7           0       -0.854072    0.620241   -0.188176
      9          6           0       -0.884930    2.044049    0.083837
     10          6           0       -1.527039   -0.202867    0.804895
     11          6           0       -3.015902    0.053672    1.099421
     12         16           0       -4.219278   -0.539158   -0.164155
     13          1           0        1.339709   -1.717410   -1.358927
     14          1           0        0.419054   -2.772052   -0.282149
     15          1           0        2.074122   -3.203985   -0.738919
     16          1           0        1.281127   -0.755694    0.942381
     17          1           0        1.916088   -2.250446    1.617751
     18          1           0        3.705030   -0.601299    1.495898
     19          1           0        4.061513   -1.943998    0.425512
     20          1           0        4.643735    0.208413   -0.619149
     21          1           0        3.432383   -0.645592   -1.557045
     22          1           0        2.893903    1.729480   -1.479764
     23          1           0        1.637732    0.818396   -0.647188
     24          1           0        3.917134    2.307460    0.783183
     25          1           0        2.262331    2.911911    0.598374
     26          1           0        2.571806    1.471214    1.571636
     27          1           0       -0.273887    0.707314   -2.190605
     28          1           0       -2.035693    0.734808   -1.988780
     29          1           0       -1.134813   -0.774177   -1.722869
     30          1           0       -1.870933    2.514437   -0.094470
     31          1           0       -0.601588    2.228686    1.125804
     32          1           0       -0.157313    2.551799   -0.558970
     33          1           0       -1.393972   -1.251967    0.521928
     34          1           0       -0.992728   -0.056135    1.755639
     35          1           0       -3.291848   -0.499324    2.003565
     36          1           0       -3.206929    1.110407    1.306447
     37          1           0       -3.987911    0.417398   -1.085644
 ---------------------------------------------------------------------

 SCF Done:  E(UB3LYP) =  -849.258534090     A.U. after   25 cycles

 The electronic state is 2-A.
 Alpha  occ. eigenvalues --  -88.73909 -14.20563 -10.09876 -10.09785 -10.08567
 Alpha  occ. eigenvalues --  -10.08321 -10.06538 -10.06459 -10.06266 -10.06025
 Alpha  occ. eigenvalues --  -10.05934 -10.05668  -7.82599  -5.78968  -5.78629
 Alpha  occ. eigenvalues --   -5.77988  -0.82440  -0.71001  -0.68986  -0.66333
 Alpha  occ. eigenvalues --   -0.61467  -0.60792  -0.60552  -0.55496  -0.53602
 Alpha  occ. eigenvalues --   -0.50048  -0.47275  -0.44636  -0.39068  -0.37921
 Alpha  occ. eigenvalues --   -0.37411  -0.36876  -0.36166  -0.33466  -0.32856
 Alpha  occ. eigenvalues --   -0.32437  -0.30970  -0.30407  -0.29625  -0.29033
 Alpha  occ. eigenvalues --   -0.28806  -0.28240  -0.27002  -0.26348  -0.25549
 Alpha  occ. eigenvalues --   -0.25400  -0.24816  -0.24100  -0.22491  -0.22119
 Alpha  occ. eigenvalues --   -0.21401  -0.21319  -0.14584  -0.10928   0.04270
 Alpha virt. eigenvalues --    0.06481   0.06964   0.07236   0.08476   0.08638
 Alpha virt. eigenvalues --    0.08864   0.09501   0.09766   0.10677   0.11038
 Alpha virt. eigenvalues --    0.11365   0.11516   0.11775   0.12314   0.12458

  Beta  occ. eigenvalues --  -88.73893 -14.20564 -10.09841 -10.09767 -10.08537
  Beta  occ. eigenvalues --  -10.08274 -10.06529 -10.06450 -10.06256 -10.06010
  Beta  occ. eigenvalues --  -10.05922 -10.05644  -7.82582  -5.78933  -5.78618
  Beta  occ. eigenvalues --   -5.77976  -0.82427  -0.70979  -0.68929  -0.66308
  Beta  occ. eigenvalues --   -0.61406  -0.60761  -0.60487  -0.55455  -0.53510
  Beta  occ. eigenvalues --   -0.50001  -0.47186  -0.44595  -0.39026  -0.37889
  Beta  occ. eigenvalues --   -0.37372  -0.36851  -0.36124  -0.33411  -0.32838
  Beta  occ. eigenvalues --   -0.32401  -0.30915  -0.30376  -0.29572  -0.28992
  Beta  occ. eigenvalues --   -0.28771  -0.28217  -0.26957  -0.26308  -0.25498
  Beta  occ. eigenvalues --   -0.25362  -0.24793  -0.24080  -0.22428  -0.22099
  Beta  occ. eigenvalues --   -0.21375  -0.21294  -0.14548  -0.10906
  Beta virt. eigenvalues --    0.06265   0.07165   0.07588   0.07611   0.08825
  Beta virt. eigenvalues --    0.08978   0.09322   0.09700   0.10174   0.10776
  Beta virt. eigenvalues --    0.11292   0.11618   0.11797   0.11997   0.12660

 Mulliken charges and spin densities:
               1          2
     1  C   -0.114968  -0.543482
     2  C   -0.407062   0.410807
     3  C    0.342313  -0.701108
     4  C   -0.119370  -0.125452
     5  C   -1.040754   0.899047
     6  C    0.007587  -0.590272
     7  C    0.045203  -0.465206
     8  N   -0.070147   0.134528
     9  C    0.636439  -1.080362
    10  C   -0.338794   0.433364
    11  C    0.365334  -1.162113
    12  S    0.116037  -0.099157
    13  H    0.029955   0.113659
    14  H   -0.074413   0.208311
    15  H    0.039483   0.096333
    16  H    0.254109  -0.081470
    17  H   -0.202925   0.360919
    18  H    0.014828   0.130837
    19  H    0.060879   0.073848
    20  H    0.028495   0.111733
    21  H   -0.083570   0.228236
    22  H   -0.274478   0.435290
    23  H    1.895750  -1.797306
    24  H   -0.061461   0.194562
    25  H   -0.065028   0.195212
    26  H   -0.141620   0.294496
    27  H   -0.341757   0.470215
    28  H   -0.313992   0.439140
    29  H    0.156836  -0.013015
    30  H   -0.348345   0.486212
    31  H   -0.208829   0.369701
    32  H   -0.155219   0.304661
    33  H    0.069043  -0.013943
    34  H   -0.043165   0.199708
    35  H   -0.352832   0.566810
    36  H   -0.207598   0.418166
    37  H   -0.095963   0.097089
 Sum of Mulliken charges =  -1.00000   1.00000

 Dipole moment (field-independent basis, Debye):
    X=              2.3302    Y=             -2.5116    Z=             -1.0374  Tot=              3.5797
 Quadrupole moment (field-independent basis, Debye-Ang):
   XX=           -164.4890   YY=           -135.3282   ZZ=           -126.0370
   XY=              0.7509   XZ=              2.4709   YZ=              2.2766

 Summary of Natural Population Analysis:

                                       Natural Population
                Natural  -----------------------------------------------
    Atom  No    Charge         Core      Valence    Rydberg      Total
 -----------------------------------------------------------------------
      C    1   -0.28565      0.99966     2.28108    0.00491     3.28565
      C    2   -0.19794      0.99963     2.18957    0.00873     3.19794
      C    3   -0.18777      0.99963     2.18086    0.00728     3.18777
      C    4   -0.18731      0.99963     2.18041    0.00727     3.18731
      C    5   -0.20176      0.99963     2.19361    0.00853     3.20176
      C    6   -0.28696      0.99967     2.28149    0.00580     3.28696
      C    7   -0.17329      0.99963     2.16467    0.00899     3.17329
      N    8   -0.28889      0.99975     2.77541    0.01374     3.78889
      C    9   -0.17822      0.99964     2.16885    0.00974     3.17822
      C   10   -0.08628      0.99958     2.07245    0.01424     3.08628
      C   11   -0.25319      0.99958     2.24405    0.00955     3.25319
      S   12   -0.03104      4.99966     3.01626    0.01512     8.03104
      H   13    0.09732      0.00000     0.40140    0.00129     0.40268
      H   14    0.09865      0.00000     0.40029    0.00106     0.40135
      H   15    0.09194      0.00000     0.40708    0.00098     0.40806
      H   16    0.10147      0.00000     0.39531    0.00322     0.39853
      H   17    0.09247      0.00000     0.40641    0.00112     0.40753
      H   18    0.09557      0.00000     0.40329    0.00114     0.40443
      H   19    0.09206      0.00000     0.40686    0.00108     0.40794
      H   20    0.09248      0.00000     0.40643    0.00109     0.40752
      H   21    0.09459      0.00000     0.40423    0.00118     0.40541
      H   22    0.09236      0.00000     0.40649    0.00115     0.40764
      H   23    0.10476      0.00000     0.39186    0.00338     0.39524
      H   24    0.09226      0.00000     0.40682    0.00093     0.40774
      H   25    0.10044      0.00000     0.39861    0.00094     0.39956
      H   26    0.09618      0.00000     0.40266    0.00116     0.40382
      H   27    0.09232      0.00000     0.40649    0.00119     0.40768
      H   28    0.08099      0.00000     0.41753    0.00148     0.41901
      H   29    0.09771      0.00000     0.40116    0.00113     0.40229
      H   30    0.08340      0.00000     0.41455    0.00205     0.41660
      H   31    0.09724      0.00000     0.40141    0.00135     0.40276
      H   32    0.09669      0.00000     0.40196    0.00135     0.40331
      H   33    0.09824      0.00000     0.40012    0.00163     0.40176
      H   34    0.09697      0.00000     0.40114    0.00189     0.40303
      H   35    0.10567      0.00000     0.39287    0.00146     0.39433
      H   36    0.10566      0.00000     0.39257    0.00177     0.39434
      H   37    0.06084      0.00000     0.43559    0.00357     0.43916
 =======================================================================
   * Total *   -0.00000     15.99569    37.85183    0.15248    54.00000

 Normal termination of Gaussian 16 at Wed Dec  9 19:11:33 2020.
