 Gaussian 16, Revision A.03,

 -----------------------------------------------------------
 # opt freq B3LYP/6-31G(d) empiricaldispersion=gd3bj scf=xqc
 -----------------------------------------------------------

 ------------------------------
 CID_72215556_JID_2822_neutraal
 ------------------------------
 Symbolic Z-matrix:
 Charge =  0 Multiplicity = 1

 SCF Done:  E(RB3LYP) =  -589.520040146     A.U. after   15 cycles
 SCF Done:  E(RB3LYP) =  -589.524652217     A.U. after   13 cycles
 SCF Done:  E(RB3LYP) =  -589.525163951     A.U. after   12 cycles
 SCF Done:  E(RB3LYP) =  -589.525223398     A.U. after   10 cycles
 SCF Done:  E(RB3LYP) =  -589.525176193     A.U. after   11 cycles
 SCF Done:  E(RB3LYP) =  -589.525174422     A.U. after   12 cycles
 SCF Done:  E(RB3LYP) =  -589.525225735     A.U. after   10 cycles
 SCF Done:  E(RB3LYP) =  -589.525231458     A.U. after    9 cycles
 SCF Done:  E(RB3LYP) =  -589.525231567     A.U. after    9 cycles
 SCF Done:  E(RB3LYP) =  -589.525232300     A.U. after    8 cycles
 Optimization completed.
    -- Stationary point found.
 Normal termination of Gaussian 16 at Wed Dec  9 18:01:41 2020.

 --------------------------------------------------------------------
 #N Geom=AllCheck Guess=TCheck SCRF=Check GenChk RB3LYP/6-31G(d) Freq
 --------------------------------------------------------------------

 Structure from the checkpoint file:  "JID_2822.chk"
 ------------------------------
 CID_72215556_JID_2822_neutraal
 ------------------------------
 Charge =  0 Multiplicity = 1

 SCF Done:  E(RB3LYP) =  -589.525232300     A.U. after    1 cycles

  Exact polarizability: 128.196   0.731 125.600   0.000   0.001  41.749
 Approx polarizability: 197.672  -9.048 236.224  -0.000   0.004  64.483

                      1                      2                      3
                      A                      A                      A
 Frequencies --     69.1186               102.4535               130.3552
 Red. masses --      4.3960                 8.3955                 2.9346
 Frc consts  --      0.0124                 0.0519                 0.0294
 IR Inten    --      5.2247                 8.5229                 1.7055

                      4                      5                      6
                      A                      A                      A
 Frequencies --    133.6980               137.5818               183.6827
 Red. masses --      1.1888                 6.0237                 4.9211
 Frc consts  --      0.0125                 0.0672                 0.0978
 IR Inten    --      0.0263                 9.4417                 2.0100

                      7                      8                      9
                      A                      A                      A
 Frequencies --    225.2467               254.1346               333.1349
 Red. masses --      7.5847                 2.9277                 4.3057
 Frc consts  --      0.2267                 0.1114                 0.2815
 IR Inten    --      7.8750                 3.6519                 0.4311

                     10                     11                     12
                      A                      A                      A
 Frequencies --    399.8012               443.1498               443.3473
 Red. masses --      8.9178                 4.2579                 6.4983
 Frc consts  --      0.8398                 0.4927                 0.7526
 IR Inten    --      6.1225                 5.7196                 3.7309

                     13                     14                     15
                      A                      A                      A
 Frequencies --    502.1091               582.0412               593.8366
 Red. masses --      5.7201                 3.4605                 5.7921
 Frc consts  --      0.8497                 0.6907                 1.2034
 IR Inten    --      1.4188                 0.1974                11.4267

                     16                     17                     18
                      A                      A                      A
 Frequencies --    603.3883               666.3678               721.1430
 Red. masses --      4.5267                 2.9313                 2.8112
 Frc consts  --      0.9710                 0.7669                 0.8614
 IR Inten    --     23.0410                 1.0621                 2.1364

                     19                     20                     21
                      A                      A                      A
 Frequencies --    722.3995               796.6796               859.1860
 Red. masses --      5.5403                 1.3511                 1.2742
 Frc consts  --      1.7035                 0.5053                 0.5542
 IR Inten    --     25.0857                82.4464                42.7669

                     22                     23                     24
                      A                      A                      A
 Frequencies --    905.7333               911.2207               946.5400
 Red. masses --      1.4660                 5.2316                 3.8597
 Frc consts  --      0.7086                 2.5593                 2.0374
 IR Inten    --      4.5780                 4.7264                31.8427

                     25                     26                     27
                      A                      A                      A
 Frequencies --    991.0275              1028.2067              1042.2377
 Red. masses --      2.5498                 1.8156                 2.9769
 Frc consts  --      1.4755                 1.1309                 1.9053
 IR Inten    --     31.2754                 0.4171                 2.8888

                     28                     29                     30
                      A                      A                      A
 Frequencies --   1055.6142              1128.5406              1173.3555
 Red. masses --      1.7948                 1.6170                 2.4199
 Frc consts  --      1.1784                 1.2134                 1.9629
 IR Inten    --      1.4841                33.3831                40.4609

                     31                     32                     33
                      A                      A                      A
 Frequencies --   1251.6893              1279.2534              1333.6242
 Red. masses --      3.2902                 1.7696                 1.9794
 Frc consts  --      3.0371                 1.7063                 2.0742
 IR Inten    --     37.0041               120.5497                78.1644

                     34                     35                     36
                      A                      A                      A
 Frequencies --   1417.5525              1423.4686              1453.6912
 Red. masses --      1.3386                 1.4785                 2.1215
 Frc consts  --      1.5848                 1.7651                 2.6414
 IR Inten    --     55.2570                 3.5092                 5.1915

                     37                     38                     39
                      A                      A                      A
 Frequencies --   1496.8077              1502.0392              1506.7635
 Red. masses --      1.0723                 1.0466                 3.6443
 Frc consts  --      1.4155                 1.3913                 4.8748
 IR Inten    --      2.0246                11.9773                76.7139

                     40                     41                     42
                      A                      A                      A
 Frequencies --   1606.1680              1679.1448              1779.6323
 Red. masses --      6.7209                 6.7086                11.0330
 Frc consts  --     10.2155                11.1444                20.5876
 IR Inten    --      5.7279                18.0323               273.3262

                     43                     44                     45
                      A                      A                      A
 Frequencies --   1794.2592              1806.6014              2947.2241
 Red. masses --      8.7643                10.1469                 1.0861
 Frc consts  --     16.6240                19.5123                 5.5582
 IR Inten    --    433.8971               186.7693               105.6359

                     46                     47                     48
                      A                      A                      A
 Frequencies --   3062.5649              3123.3611              3178.7291
 Red. masses --      1.0378                 1.1000                 1.1021
 Frc consts  --      5.7351                 6.3227                 6.5611
 IR Inten    --      1.3660                 4.0062                 6.9344

                     49                     50                     51
                      A                      A                      A
 Frequencies --   3219.8853              3263.6883              3547.2646
 Red. masses --      1.0914                 1.0915                 1.0762
 Frc consts  --      6.6665                 6.8499                 7.9788
 IR Inten    --      0.4950                 5.6233               108.1155

 - Thermochemistry -
 -------------------
 Temperature   298.150 Kelvin.  Pressure   1.00000 Atm.
 Atom     1 has atomic number  6 and mass  12.00000

 Molecular mass:   165.04259 amu.
 Principal axes and moments of inertia in atomic units:
                           1         2         3
     Eigenvalues --  1583.653182300.005643872.43359
           X            0.99629   0.08604   0.00000
           Y           -0.08604   0.99629   0.00000
           Z           -0.00000  -0.00000   1.00000
 This molecule is an asymmetric top.
 Rotational symmetry number  1.
 Warning -- assumption of classical behavior for rotation
           may cause significant error
 Rotational temperatures (Kelvin)      0.05469     0.03766     0.02237
 Rotational constants (GHZ):           1.13961     0.78467     0.46605
 Zero-point vibrational energy     369399.3 (Joules/Mol)
                                   88.28856 (Kcal/Mol)
 Warning -- explicit consideration of  16 degrees of freedom as
           vibrations may cause significant error
 Vibrational temperatures:     99.45   147.41   187.55   192.36   197.95
          (Kelvin)            264.28   324.08   365.64   479.31   575.22
                              637.59   637.88   722.42   837.43   854.40
                              868.14   958.75  1037.56  1039.37  1146.24
                             1236.18  1303.15  1311.04  1361.86  1425.87
                             1479.36  1499.55  1518.79  1623.72  1688.20
                             1800.90  1840.56  1918.79  2039.54  2048.05
                             2091.54  2153.57  2161.10  2167.90  2310.92
                             2415.91  2560.49  2581.54  2599.30  4240.40
                             4406.35  4493.82  4573.48  4632.70  4695.72
                             5103.72

 Zero-point correction=                           0.140697 (Hartree/Particle)
 Thermal correction to Energy=                    0.151483
 Thermal correction to Enthalpy=                  0.152427
 Thermal correction to Gibbs Free Energy=         0.103689
 Sum of electronic and zero-point Energies=           -589.384536
 Sum of electronic and thermal Energies=              -589.373749
 Sum of electronic and thermal Enthalpies=            -589.372805
 Sum of electronic and thermal Free Energies=         -589.421543

                     E (Thermal)             CV                S
                      KCal/Mol        Cal/Mol-Kelvin    Cal/Mol-Kelvin
 Total                   95.057             39.385            102.578
 Electronic               0.000              0.000              0.000
 Translational            0.889              2.981             41.211
 Rotational               0.889              2.981             31.023
 Vibrational             93.280             33.424             30.344
 Vibration     1          0.598              1.969              4.178
 Vibration     2          0.605              1.947              3.407
 Vibration     3          0.612              1.923              2.941
 Vibration     4          0.613              1.920              2.892
 Vibration     5          0.614              1.916              2.837
 Vibration     6          0.631              1.862              2.291
 Vibration     7          0.650              1.803              1.917
 Vibration     8          0.665              1.756              1.702
 Vibration     9          0.715              1.609              1.245
 Vibration    10          0.766              1.471              0.963
 Vibration    11          0.803              1.376              0.817
 Vibration    12          0.803              1.376              0.816
 Vibration    13          0.857              1.245              0.653
 Vibration    14          0.939              1.070              0.482
 Vibration    15          0.951              1.045              0.460
 Vibration    16          0.962              1.025              0.444

 Optimization completed.
    -- Stationary point found.
 Normal termination of Gaussian 16 at Wed Dec  9 18:05:38 2020.

 ----------------------------------------------------------------------
 # B3LYP/6-311++G(d,p) empiricaldispersion=gd3bj scf=xqc pop=npa geom=c
 heck
 ----------------------------------------------------------------------

 --------------------------------------
 CID_72215556_JID_2822_Energie_neutraal
 --------------------------------------
 Structure from the checkpoint file:  "JID_2822.chk"
 Charge =  0 Multiplicity = 1

 SCF Done:  E(RB3LYP) =  -589.698179349     A.U. after   16 cycles
 Normal termination of Gaussian 16 at Wed Dec  9 18:07:13 2020.

 ----------------------------------------------------------------------
 # B3LYP/6-311++G(d,p) empiricaldispersion=gd3bj scf=xqc pop=npa geom=c
 heck
 ----------------------------------------------------------------------

 ------------------------------------
 CID_72215556_JID_2822_Energie_kation
 ------------------------------------
 Structure from the checkpoint file:  "JID_2822.chk"
 Charge =  1 Multiplicity = 2

 SCF Done:  E(UB3LYP) =  -589.367996388     A.U. after   23 cycles
 Normal termination of Gaussian 16 at Wed Dec  9 18:11:04 2020.
 Gaussian 16:  ES64L-G16RevA.03 25-Dec-2016

 ----------------------------------------------------------------------
 # B3LYP/6-311++G(d,p) empiricaldispersion=gd3bj scf=xqc pop=npa geom=c
 heck
 ----------------------------------------------------------------------

 -----------------------------------
 CID_72215556_JID_2822_Energie_anion
 -----------------------------------
 Structure from the checkpoint file:  "JID_2822.chk"
 Charge = -1 Multiplicity = 2

                         Standard orientation:
 ---------------------------------------------------------------------
 Center     Atomic      Atomic             Coordinates (Angstroms)
 Number     Number       Type             X           Y           Z
 ---------------------------------------------------------------------
      1          6           0       -2.543634   -2.033582    0.000010
      2          6           0       -2.265826   -0.549608   -0.000005
      3          8           0       -3.155201    0.287289    0.000042
      4          6           0       -0.841794   -0.085207   -0.000032
      5          6           0        0.256712   -0.895687   -0.000053
      6          6           0        1.546465   -0.279698   -0.000018
      7          6           0        1.678841    1.081124   -0.000006
      8          6           0        0.520296    1.972254   -0.000103
      9          8           0        0.559139    3.195134    0.000076
     10          7           0       -0.695034    1.274746   -0.000031
     11          6           0        2.760645   -1.138804    0.000024
     12          8           0        2.723063   -2.351906    0.000033
     13          1           0       -3.623068   -2.189755   -0.000077
     14          1           0       -2.103806   -2.510541    0.883105
     15          1           0       -2.103638   -2.510616   -0.882958
     16          1           0        0.183287   -1.974597   -0.000053
     17          1           0        2.653573    1.558906    0.000042
     18          1           0       -1.552001    1.823274    0.000017
     19          1           0        3.724647   -0.588775    0.000032
 ---------------------------------------------------------------------

 SCF Done:  E(UB3LYP) =  -589.756637236     A.U. after   21 cycles

 The electronic state is 2-A.
 Alpha  occ. eigenvalues --  -18.97461 -18.97415 -18.93957 -14.20555 -10.12612
 Alpha  occ. eigenvalues --  -10.12133 -10.11292 -10.07842 -10.06161 -10.04340
 Alpha  occ. eigenvalues --  -10.04278 -10.02169  -0.91580  -0.90873  -0.89303
 Alpha  occ. eigenvalues --   -0.80764  -0.68228  -0.64717  -0.60556  -0.53517
 Alpha  occ. eigenvalues --   -0.51732  -0.44400  -0.43091  -0.39927  -0.37049
 Alpha  occ. eigenvalues --   -0.34647  -0.33345  -0.32571  -0.31070  -0.30128
 Alpha  occ. eigenvalues --   -0.29816  -0.29557  -0.27561  -0.26743  -0.25474
 Alpha  occ. eigenvalues --   -0.24788  -0.24335  -0.19983  -0.16600  -0.13648
 Alpha  occ. eigenvalues --   -0.13190  -0.11294  -0.09342   0.00552
 Alpha virt. eigenvalues --    0.06474   0.08496   0.10113   0.11674   0.12267
 Alpha virt. eigenvalues --    0.12481   0.13509   0.15089   0.15188   0.15246
 Alpha virt. eigenvalues --    0.16792   0.16836   0.17249   0.18135   0.18653

  Beta  occ. eigenvalues --  -18.97148 -18.97117 -18.93878 -14.20304 -10.12640
  Beta  occ. eigenvalues --  -10.11939 -10.11191 -10.07702 -10.06178 -10.04387
  Beta  occ. eigenvalues --  -10.04212 -10.01667  -0.91021  -0.90352  -0.89100
  Beta  occ. eigenvalues --   -0.80374  -0.67774  -0.64273  -0.60281  -0.52888
  Beta  occ. eigenvalues --   -0.51197  -0.44103  -0.42783  -0.39588  -0.36805
  Beta  occ. eigenvalues --   -0.34416  -0.32710  -0.32340  -0.30817  -0.30020
  Beta  occ. eigenvalues --   -0.29278  -0.28970  -0.27407  -0.25428  -0.25297
  Beta  occ. eigenvalues --   -0.24102  -0.23564  -0.19141  -0.14719  -0.13345
  Beta  occ. eigenvalues --   -0.12946  -0.11065  -0.07786
  Beta virt. eigenvalues --    0.06740   0.08329   0.08490   0.10114   0.11657
  Beta virt. eigenvalues --    0.12348   0.12497   0.13520   0.15079   0.15251
  Beta virt. eigenvalues --    0.15577   0.16850   0.17528   0.17790   0.18142

 Mulliken charges and spin densities:
               1          2
     1  C   -0.488950  -0.012539
     2  C   -0.519279   0.104806
     3  O   -0.372841   0.113357
     4  C    0.469529   0.083447
     5  C   -0.886236  -0.040089
     6  C    1.733609   0.046186
     7  C   -1.065261   0.402032
     8  C    0.158002   0.003966
     9  O   -0.420909   0.028551
    10  N   -0.264234   0.106737
    11  C   -0.169935   0.090851
    12  O   -0.322974   0.094787
    13  H    0.165664  -0.000527
    14  H    0.139586   0.007292
    15  H    0.139580   0.007286
    16  H    0.170219   0.004694
    17  H    0.119358  -0.026991
    18  H    0.339859  -0.006782
    19  H    0.075213  -0.007065
 Sum of Mulliken charges =  -1.00000   1.00000

 Dipole moment (field-independent basis, Debye):
    X=             -1.2730    Y=             -3.1162    Z=             -0.0003  Tot=              3.3662
 Quadrupole moment (field-independent basis, Debye-Ang):
   XX=           -101.1101   YY=           -106.4423   ZZ=            -73.8467
   XY=             10.0677   XZ=              0.0001   YZ=             -0.0005

 Summary of Natural Population Analysis:

                                       Natural Population
                Natural  -----------------------------------------------
    Atom  No    Charge         Core      Valence    Rydberg      Total
 -----------------------------------------------------------------------
      C    1   -0.33134      0.99964     2.32761    0.00409     3.33134
      C    2    0.29062      0.99966     1.69008    0.01964     2.70938
      O    3   -0.27292      0.99988     3.26543    0.00760     4.27292
      C    4    0.07921      0.99949     1.91026    0.01103     2.92079
      C    5   -0.13195      0.99949     2.12318    0.00927     3.13195
      C    6   -0.06557      0.99949     2.05658    0.00950     3.06557
      C    7   -0.00945      0.99948     2.00118    0.00879     3.00945
      C    8    0.30891      0.99965     1.67020    0.02124     2.69109
      O    9   -0.33478      0.99988     3.32812    0.00678     4.33478
      N   10   -0.25273      0.99963     2.74349    0.00961     3.75273
      C   11    0.22080      0.99968     1.75902    0.02050     2.77920
      O   12   -0.26404      0.99988     3.25627    0.00788     4.26404
      H   13    0.10362      0.00000     0.39495    0.00143     0.39638
      H   14    0.10744      0.00000     0.39151    0.00106     0.39256
      H   15    0.10743      0.00000     0.39151    0.00106     0.39257
      H   16    0.10966      0.00000     0.38902    0.00132     0.39034
      H   17    0.09129      0.00000     0.40739    0.00132     0.40871
      H   18    0.20435      0.00000     0.29386    0.00179     0.29565
      H   19    0.03942      0.00000     0.45798    0.00260     0.46058
 =======================================================================
   * Total *    0.00000     11.99586    30.85762    0.14652    43.00000

 Normal termination of Gaussian 16 at Wed Dec  9 18:14:43 2020.
