 Gaussian 16, Revision A.03,

 -----------------------------------------------------------
 # opt freq B3LYP/6-31G(d) empiricaldispersion=gd3bj scf=xqc
 -----------------------------------------------------------

 ------------------------------
 CID_61942313_JID_2278_neutraal
 ------------------------------
 Symbolic Z-matrix:
 Charge =  0 Multiplicity = 1

 SCF Done:  E(RB3LYP) =  -523.681989801     A.U. after   13 cycles
 SCF Done:  E(RB3LYP) =  -523.684794039     A.U. after   10 cycles
 SCF Done:  E(RB3LYP) =  -523.685140163     A.U. after   10 cycles
 SCF Done:  E(RB3LYP) =  -523.685161007     A.U. after   10 cycles
 SCF Done:  E(RB3LYP) =  -523.685241728     A.U. after    9 cycles
 SCF Done:  E(RB3LYP) =  -523.685253115     A.U. after    9 cycles
 SCF Done:  E(RB3LYP) =  -523.685258323     A.U. after    8 cycles
 SCF Done:  E(RB3LYP) =  -523.685260518     A.U. after    8 cycles
 SCF Done:  E(RB3LYP) =  -523.685262338     A.U. after    8 cycles
 SCF Done:  E(RB3LYP) =  -523.685263247     A.U. after    7 cycles
 SCF Done:  E(RB3LYP) =  -523.685264230     A.U. after    7 cycles
 SCF Done:  E(RB3LYP) =  -523.685265424     A.U. after    8 cycles
 SCF Done:  E(RB3LYP) =  -523.685265922     A.U. after    7 cycles
 SCF Done:  E(RB3LYP) =  -523.685266117     A.U. after    7 cycles
 Optimization completed.
    -- Stationary point found.
 Normal termination of Gaussian 16 at Wed Dec  9 16:59:00 2020.

 --------------------------------------------------------------------
 #N Geom=AllCheck Guess=TCheck SCRF=Check GenChk RB3LYP/6-31G(d) Freq
 --------------------------------------------------------------------

 Structure from the checkpoint file:  "JID_2278.chk"
 ------------------------------
 CID_61942313_JID_2278_neutraal
 ------------------------------
 Charge =  0 Multiplicity = 1

 SCF Done:  E(RB3LYP) =  -523.685266117     A.U. after    1 cycles

  Exact polarizability: 130.586   0.150 112.105   0.693   0.180 100.133
 Approx polarizability: 154.725   0.842 158.191  -1.720   0.414 151.349

                      1                      2                      3
                      A                      A                      A
 Frequencies --     18.0697                33.7307                43.3280
 Red. masses --      4.0411                 3.4183                 3.0568
 Frc consts  --      0.0008                 0.0023                 0.0034
 IR Inten    --      1.1250                 0.2814                 0.5387

                      4                      5                      6
                      A                      A                      A
 Frequencies --     79.9758               113.6613               135.6439
 Red. masses --      2.7892                 2.7192                 3.5742
 Frc consts  --      0.0105                 0.0207                 0.0387
 IR Inten    --      0.8552                 1.6597                 0.6014

                      7                      8                      9
                      A                      A                      A
 Frequencies --    198.9087               206.7513               220.7865
 Red. masses --      2.3351                 1.9805                 1.5324
 Frc consts  --      0.0544                 0.0499                 0.0440
 IR Inten    --      0.0429                 0.1291                 0.4478

                     10                     11                     12
                      A                      A                      A
 Frequencies --    247.2280               285.9780               309.7625
 Red. masses --      1.1195                 2.0860                 2.0279
 Frc consts  --      0.0403                 0.1005                 0.1146
 IR Inten    --      1.7086                 3.0373                 0.8515

                     13                     14                     15
                      A                      A                      A
 Frequencies --    331.4777               357.7834               366.7838
 Red. masses --      1.7317                 1.4126                 2.2824
 Frc consts  --      0.1121                 0.1065                 0.1809
 IR Inten    --     45.8226               120.6071                 5.5456

                     16                     17                     18
                      A                      A                      A
 Frequencies --    405.8521               430.6144               447.7865
 Red. masses --      1.6409                 2.7292                 2.2120
 Frc consts  --      0.1592                 0.2982                 0.2613
 IR Inten    --     21.2141                21.6132                 4.0133

                     19                     20                     21
                      A                      A                      A
 Frequencies --    487.1057               518.8273               592.8816
 Red. masses --      2.4720                 2.2976                 2.2834
 Frc consts  --      0.3456                 0.3644                 0.4729
 IR Inten    --      0.8214                 0.5543                 1.3836

                     22                     23                     24
                      A                      A                      A
 Frequencies --    730.0216               762.3078               801.4090
 Red. masses --      1.8582                 1.8984                 1.3879
 Frc consts  --      0.5835                 0.6500                 0.5252
 IR Inten    --     20.2326                 1.4192                 3.6869

                     25                     26                     27
                      A                      A                      A
 Frequencies --    833.9089               837.2649               845.4641
 Red. masses --      1.7727                 2.4181                 1.4103
 Frc consts  --      0.7263                 0.9987                 0.5939
 IR Inten    --      1.8837                 2.4781                11.8831

                     28                     29                     30
                      A                      A                      A
 Frequencies --    898.8554               912.9034               946.0990
 Red. masses --      2.0714                 2.3650                 1.7906
 Frc consts  --      0.9860                 1.1613                 0.9443
 IR Inten    --      4.6907                28.4484                 1.6160

                     31                     32                     33
                      A                      A                      A
 Frequencies --    971.6145               987.2754              1006.5454
 Red. masses --      2.5169                 2.4125                 1.8634
 Frc consts  --      1.3999                 1.3855                 1.1123
 IR Inten    --      0.3339                 5.5229                14.1342

                     34                     35                     36
                      A                      A                      A
 Frequencies --   1034.1710              1045.2215              1062.7732
 Red. masses --      1.7785                 1.6411                 1.3983
 Frc consts  --      1.1207                 1.0563                 0.9305
 IR Inten    --     20.8220                 8.7572                 5.0521

                     37                     38                     39
                      A                      A                      A
 Frequencies --   1065.3348              1082.7034              1099.6024
 Red. masses --      1.9341                 1.4080                 1.8248
 Frc consts  --      1.2933                 0.9725                 1.3000
 IR Inten    --     25.6421                 0.4396                36.4750

                     40                     41                     42
                      A                      A                      A
 Frequencies --   1117.9220              1138.1369              1147.0462
 Red. masses --      1.6957                 1.6276                 1.1857
 Frc consts  --      1.2486                 1.2422                 0.9192
 IR Inten    --     12.7093                 3.0147                 0.5546

                     43                     44                     45
                      A                      A                      A
 Frequencies --   1154.0807              1178.2326              1192.7848
 Red. masses --      1.6879                 1.7655                 1.5520
 Frc consts  --      1.3245                 1.4440                 1.3010
 IR Inten    --     35.4987                10.8719                11.7223

                     46                     47                     48
                      A                      A                      A
 Frequencies --   1208.6234              1234.9922              1241.9064
 Red. masses --      1.3508                 1.5043                 1.8144
 Frc consts  --      1.1626                 1.3518                 1.6487
 IR Inten    --      0.2511                 7.9611                 5.6203

                     49                     50                     51
                      A                      A                      A
 Frequencies --   1266.7117              1284.4780              1315.9598
 Red. masses --      1.8236                 1.5807                 1.5038
 Frc consts  --      1.7240                 1.5366                 1.5343
 IR Inten    --     12.3342                19.4309                 9.1760

                     52                     53                     54
                      A                      A                      A
 Frequencies --   1325.7646              1347.4796              1376.1409
 Red. masses --      1.4190                 1.2080                 1.3832
 Frc consts  --      1.4695                 1.2923                 1.5434
 IR Inten    --      6.9972                 6.3508                16.0656

                     55                     56                     57
                      A                      A                      A
 Frequencies --   1384.6906              1411.8349              1415.9298
 Red. masses --      1.3788                 1.4464                 1.3864
 Frc consts  --      1.5576                 1.6987                 1.6377
 IR Inten    --      5.7119                20.1040                10.3788

                     58                     59                     60
                      A                      A                      A
 Frequencies --   1419.8127              1433.1841              1434.0213
 Red. masses --      1.5917                 1.3004                 1.2570
 Frc consts  --      1.8905                 1.5737                 1.5230
 IR Inten    --     23.0321                 9.8850                 2.6755

                     61                     62                     63
                      A                      A                      A
 Frequencies --   1445.9010              1480.4866              1482.2180
 Red. masses --      1.2715                 1.1239                 1.1492
 Frc consts  --      1.5661                 1.4514                 1.4875
 IR Inten    --     40.1731                 0.0937                 2.2614

                     64                     65                     66
                      A                      A                      A
 Frequencies --   1508.6231              1513.8002              1517.8245
 Red. masses --      1.0753                 1.0691                 1.1015
 Frc consts  --      1.4419                 1.4434                 1.4951
 IR Inten    --      1.4183                 1.9702                 3.9674

                     67                     68                     69
                      A                      A                      A
 Frequencies --   1524.7008              1528.3835              1529.4580
 Red. masses --      1.0618                 1.2284                 1.0666
 Frc consts  --      1.4543                 1.6907                 1.4700
 IR Inten    --      4.4327                 9.2244                 5.3354

                     70                     71                     72
                      A                      A                      A
 Frequencies --   1532.4937              1535.1677              1538.4710
 Red. masses --      1.0913                 1.0717                 1.1864
 Frc consts  --      1.5100                 1.4881                 1.6545
 IR Inten    --      7.0673                10.0745                10.1055

                     73                     74                     75
                      A                      A                      A
 Frequencies --   2932.0955              2944.1568              3032.5167
 Red. masses --      1.0738                 1.0628                 1.0662
 Frc consts  --      5.4391                 5.4279                 5.7770
 IR Inten    --     49.7462               118.8993                13.4892

                     76                     77                     78
                      A                      A                      A
 Frequencies --   3035.4010              3039.0926              3046.6617
 Red. masses --      1.0858                 1.0630                 1.0462
 Frc consts  --      5.8941                 5.7844                 5.7215
 IR Inten    --     78.3237                21.9981                23.3729

                     79                     80                     81
                      A                      A                      A
 Frequencies --   3053.1710              3062.7262              3083.5806
 Red. masses --      1.0635                 1.0864                 1.0967
 Frc consts  --      5.8412                 6.0041                 6.1442
 IR Inten    --     42.7190                25.9615                40.7578

                     82                     83                     84
                      A                      A                      A
 Frequencies --   3089.2409              3093.1335              3099.7097
 Red. masses --      1.0900                 1.0719                 1.0892
 Frc consts  --      6.1291                 6.0424                 6.1657
 IR Inten    --      6.9855                22.7761                22.0744

                     85                     86                     87
                      A                      A                      A
 Frequencies --   3108.0046              3110.7297              3131.4519
 Red. masses --      1.0943                 1.0987                 1.1026
 Frc consts  --      6.2279                 6.2642                 6.3700
 IR Inten    --     69.8773                41.1566                28.6065

                     88                     89                     90
                      A                      A                      A
 Frequencies --   3135.6246              3150.4543              3154.9694
 Red. masses --      1.1037                 1.0504                 1.0587
 Frc consts  --      6.3936                 6.1426                 6.2091
 IR Inten    --     29.5510                20.2343                 7.6788

                     91                     92                     93
                      A                      A                      A
 Frequencies --   3229.7504              3242.5788              3738.9931
 Red. masses --      1.1199                 1.1167                 1.0658
 Frc consts  --      6.8830                 6.9179                 8.7790
 IR Inten    --      0.3279                25.4554                 6.2259

 - Thermochemistry -
 -------------------
 Temperature   298.150 Kelvin.  Pressure   1.00000 Atm.
 Atom     1 has atomic number  6 and mass  12.00000

 Molecular mass:   171.16231 amu.
 Principal axes and moments of inertia in atomic units:
                           1         2         3
     Eigenvalues --  1077.005834504.671594904.22652
           X            0.99994  -0.00454   0.00965
           Y            0.00445   0.99995   0.00902
           Z           -0.00969  -0.00898   0.99991
 This molecule is an asymmetric top.
 Rotational symmetry number  1.
 Warning -- assumption of classical behavior for rotation
           may cause significant error
 Rotational temperatures (Kelvin)      0.08042     0.01923     0.01766
 Rotational constants (GHZ):           1.67570     0.40064     0.36800
 Zero-point vibrational energy     798134.8 (Joules/Mol)
                                  190.75879 (Kcal/Mol)
 Warning -- explicit consideration of  21 degrees of freedom as
           vibrations may cause significant error
 Vibrational temperatures:     26.00    48.53    62.34   115.07   163.53
          (Kelvin)            195.16   286.19   297.47   317.66   355.71
                              411.46   445.68   476.92   514.77   527.72
                              583.93   619.56   644.26   700.84   746.48
                              853.02  1050.34  1096.79  1153.05  1199.81
                             1204.64  1216.43  1293.25  1313.46  1361.23
                             1397.94  1420.47  1448.19  1487.94  1503.84
                             1529.09  1532.78  1557.77  1582.08  1608.44
                             1637.53  1650.34  1660.46  1695.21  1716.15
                             1738.94  1776.88  1786.83  1822.52  1848.08
                             1893.37  1907.48  1938.72  1979.96  1992.26
                             2031.32  2037.21  2042.79  2062.03  2063.24
                             2080.33  2130.09  2132.58  2170.57  2178.02
                             2183.81  2193.70  2199.00  2200.55  2204.92
                             2208.76  2213.52  4218.63  4235.99  4363.12
                             4367.26  4372.58  4383.47  4392.83  4406.58
                             4436.58  4444.73  4450.33  4459.79  4471.73
                             4475.65  4505.46  4511.46  4532.80  4539.30
                             4646.89  4665.35  5379.58

 Zero-point correction=                           0.303993 (Hartree/Particle)
 Thermal correction to Energy=                    0.318353
 Thermal correction to Enthalpy=                  0.319297
 Thermal correction to Gibbs Free Energy=         0.261259
 Sum of electronic and zero-point Energies=           -523.381273
 Sum of electronic and thermal Energies=              -523.366914
 Sum of electronic and thermal Enthalpies=            -523.365969
 Sum of electronic and thermal Free Energies=         -523.424007

                     E (Thermal)             CV                S
                      KCal/Mol        Cal/Mol-Kelvin    Cal/Mol-Kelvin
 Total                  199.769             53.468            122.151
 Electronic               0.000              0.000              0.000
 Translational            0.889              2.981             41.320
 Rotational               0.889              2.981             31.543
 Vibrational            197.992             47.506             49.288
 Vibration     1          0.593              1.986              6.836
 Vibration     2          0.594              1.983              5.597
 Vibration     3          0.595              1.980              5.101
 Vibration     4          0.600              1.963              3.891
 Vibration     5          0.607              1.938              3.205
 Vibration     6          0.613              1.918              2.864
 Vibration     7          0.637              1.841              2.143
 Vibration     8          0.641              1.830              2.072
 Vibration     9          0.648              1.809              1.953
 Vibration    10          0.661              1.767              1.750
 Vibration    11          0.684              1.700              1.498
 Vibration    12          0.699              1.655              1.364
 Vibration    13          0.714              1.613              1.253
 Vibration    14          0.733              1.559              1.132
 Vibration    15          0.740              1.541              1.093
 Vibration    16          0.771              1.457              0.941
 Vibration    17          0.792              1.404              0.857
 Vibration    18          0.807              1.366              0.802
 Vibration    19          0.843              1.279              0.691
 Vibration    20          0.874              1.208              0.613
 Vibration    21          0.950              1.047              0.462

 Optimization completed.
    -- Stationary point found.
 Normal termination of Gaussian 16 at Wed Dec  9 17:07:37 2020.

 ----------------------------------------------------------------------
 # B3LYP/6-311++G(d,p) empiricaldispersion=gd3bj scf=xqc pop=npa geom=c
 heck
 ----------------------------------------------------------------------

 --------------------------------------
 CID_61942313_JID_2278_Energie_neutraal
 --------------------------------------
 Structure from the checkpoint file:  "JID_2278.chk"
 Charge =  0 Multiplicity = 1

 SCF Done:  E(RB3LYP) =  -523.842812162     A.U. after   13 cycles
 Normal termination of Gaussian 16 at Wed Dec  9 17:11:58 2020.

 ----------------------------------------------------------------------
 # B3LYP/6-311++G(d,p) empiricaldispersion=gd3bj scf=xqc pop=npa geom=c
 heck
 ----------------------------------------------------------------------

 ------------------------------------
 CID_61942313_JID_2278_Energie_kation
 ------------------------------------
 Structure from the checkpoint file:  "JID_2278.chk"
 Charge =  1 Multiplicity = 2

 SCF Done:  E(UB3LYP) =  -523.547303569     A.U. after   22 cycles
 Normal termination of Gaussian 16 at Wed Dec  9 17:21:50 2020.
 Gaussian 16:  ES64L-G16RevA.03 25-Dec-2016

 ----------------------------------------------------------------------
 # B3LYP/6-311++G(d,p) empiricaldispersion=gd3bj scf=xqc pop=npa geom=c
 heck
 ----------------------------------------------------------------------

 -----------------------------------
 CID_61942313_JID_2278_Energie_anion
 -----------------------------------
 Structure from the checkpoint file:  "JID_2278.chk"
 Charge = -1 Multiplicity = 2

                         Standard orientation:
 ---------------------------------------------------------------------
 Center     Atomic      Atomic             Coordinates (Angstroms)
 Number     Number       Type             X           Y           Z
 ---------------------------------------------------------------------
      1          6           0        4.083002   -0.563628    0.928743
      2          6           0        3.092090   -0.722689   -0.225860
      3          6           0        1.626224   -0.817765    0.237013
      4          6           0        1.018929    0.482061    0.800056
      5          6           0        0.414187    1.419261   -0.260239
      6          6           0       -0.874925    0.872609   -0.887426
      7          7           0       -1.898950    0.531838    0.101130
      8          6           0       -2.508604    1.703110    0.715264
      9          6           0       -2.889237   -0.363802   -0.430066
     10          6           0       -2.546975   -1.827641   -0.482940
     11          6           0       -3.550084   -1.318949    0.526827
     12          8           0        3.290617    0.303089   -1.206873
     13          1           0        3.893462    0.357315    1.494981
     14          1           0        5.105420   -0.517668    0.541158
     15          1           0        4.012014   -1.402989    1.629591
     16          1           0        3.334479   -1.649289   -0.759365
     17          1           0        1.022465   -1.165986   -0.609061
     18          1           0        1.570886   -1.608724    0.996904
     19          1           0        0.220968    0.224670    1.503771
     20          1           0        1.774380    1.028194    1.381482
     21          1           0        0.217701    2.398798    0.193949
     22          1           0        1.125947    1.588805   -1.075238
     23          1           0       -1.255998    1.601392   -1.629429
     24          1           0       -0.648230   -0.043689   -1.441086
     25          1           0       -3.014935    2.359014   -0.019416
     26          1           0       -3.249401    1.379691    1.452183
     27          1           0       -1.751151    2.298683    1.233443
     28          1           0       -3.514072    0.025075   -1.244541
     29          1           0       -2.904417   -2.413626   -1.324684
     30          1           0       -1.567819   -2.111554   -0.108951
     31          1           0       -3.227416   -1.269901    1.562454
     32          1           0       -4.600722   -1.554284    0.383430
     33          1           0        3.236510    1.153101   -0.742738
 ---------------------------------------------------------------------

 SCF Done:  E(UB3LYP) =  -523.826054228     A.U. after   30 cycles

 The electronic state is 2-A.
 Alpha  occ. eigenvalues --  -19.01967 -14.20794 -10.12024 -10.10479 -10.09020
 Alpha  occ. eigenvalues --  -10.08477 -10.07709 -10.07627 -10.06261 -10.06119
 Alpha  occ. eigenvalues --  -10.05925 -10.05886  -0.92167  -0.83734  -0.74650
 Alpha  occ. eigenvalues --   -0.69642  -0.65806  -0.61073  -0.58208  -0.54770
 Alpha  occ. eigenvalues --   -0.51108  -0.50083  -0.47687  -0.45290  -0.41372
 Alpha  occ. eigenvalues --   -0.39566  -0.39018  -0.36988  -0.36041  -0.34985
 Alpha  occ. eigenvalues --   -0.33706  -0.32733  -0.31404  -0.30574  -0.29977
 Alpha  occ. eigenvalues --   -0.28098  -0.27519  -0.27201  -0.26360  -0.25829
 Alpha  occ. eigenvalues --   -0.24848  -0.23228  -0.22376  -0.21092  -0.20794
 Alpha  occ. eigenvalues --   -0.19600  -0.17137  -0.12452   0.04560
 Alpha virt. eigenvalues --    0.06190   0.06833   0.07697   0.08138   0.08489
 Alpha virt. eigenvalues --    0.09155   0.09803   0.10354   0.10547   0.11224
 Alpha virt. eigenvalues --    0.11420   0.11636   0.12760   0.13069   0.13806

  Beta  occ. eigenvalues --  -19.01946 -14.20777 -10.12014 -10.10471 -10.09014
  Beta  occ. eigenvalues --  -10.08447 -10.07699 -10.07610 -10.06251 -10.06102
  Beta  occ. eigenvalues --  -10.05881 -10.05866  -0.92119  -0.83708  -0.74629
  Beta  occ. eigenvalues --   -0.69608  -0.65765  -0.61029  -0.58154  -0.54718
  Beta  occ. eigenvalues --   -0.51067  -0.50035  -0.47642  -0.45241  -0.41341
  Beta  occ. eigenvalues --   -0.39523  -0.38971  -0.36945  -0.36000  -0.34947
  Beta  occ. eigenvalues --   -0.33668  -0.32694  -0.31365  -0.30534  -0.29947
  Beta  occ. eigenvalues --   -0.28061  -0.27494  -0.27176  -0.26324  -0.25802
  Beta  occ. eigenvalues --   -0.24823  -0.23194  -0.22340  -0.21059  -0.20772
  Beta  occ. eigenvalues --   -0.19579  -0.17113  -0.12366
  Beta virt. eigenvalues --    0.06615   0.07131   0.07516   0.08032   0.08676
  Beta virt. eigenvalues --    0.08969   0.09576   0.10203   0.10784   0.10865
  Beta virt. eigenvalues --    0.11519   0.11818   0.12185   0.13049   0.13337

 Mulliken charges and spin densities:
               1          2
     1  C    1.340682  -1.889103
     2  C   -0.393181   0.158726
     3  C   -0.629403   0.426409
     4  C    0.680018  -0.840765
     5  C   -0.465946   0.059984
     6  C   -0.003764  -0.355956
     7  N    0.171092   0.066028
     8  C    0.868551  -1.243513
     9  C   -1.503779   1.424426
    10  C    0.155605  -0.470857
    11  C    1.058856  -1.477277
    12  O   -0.167613  -0.026573
    13  H   -0.393089   0.535278
    14  H   -0.126271   0.279946
    15  H   -0.300502   0.442571
    16  H   -0.144435   0.318414
    17  H   -0.045259   0.142649
    18  H   -0.102044   0.259305
    19  H    0.134077   0.037218
    20  H   -0.123138   0.283933
    21  H   -0.205151   0.368031
    22  H   -0.032428   0.124628
    23  H    0.035403   0.090946
    24  H    0.125295   0.026325
    25  H   -0.284447   0.402826
    26  H   -0.189096   0.330615
    27  H   -0.187969   0.317991
    28  H   -0.263833   0.422944
    29  H   -0.076042   0.224690
    30  H    0.084453   0.034599
    31  H   -0.014121   0.150453
    32  H   -0.086578   0.226841
    33  H    0.084059   0.148270
 Sum of Mulliken charges =  -1.00000   1.00000

 Dipole moment (field-independent basis, Debye):
    X=             -1.4417    Y=             -1.5901    Z=             -2.2048  Tot=              3.0770
 Quadrupole moment (field-independent basis, Debye-Ang):
   XX=           -166.9190   YY=           -119.8783   ZZ=           -113.6514
   XY=              3.7480   XZ=             -2.9884   YZ=             -1.2083

 Summary of Natural Population Analysis:

                                       Natural Population
                Natural  -----------------------------------------------
    Atom  No    Charge         Core      Valence    Rydberg      Total
 -----------------------------------------------------------------------
      C    1   -0.29961      0.99965     2.29473    0.00524     3.29961
      C    2    0.06404      0.99958     1.92205    0.01434     2.93596
      C    3   -0.20168      0.99960     2.19261    0.00947     3.20168
      C    4   -0.20137      0.99962     2.19140    0.01035     3.20137
      C    5   -0.19654      0.99962     2.18777    0.00915     3.19654
      C    6   -0.08118      0.99961     2.07106    0.01051     3.08118
      N    7   -0.28381      0.99969     2.77009    0.01403     3.78381
      C    8   -0.17689      0.99964     2.16860    0.00866     3.17689
      C    9   -0.01279      0.99955     2.00030    0.01294     3.01279
      C   10   -0.20099      0.99961     2.19460    0.00677     3.20099
      C   11   -0.20128      0.99961     2.19173    0.00995     3.20128
      O   12   -0.37395      0.99990     3.36742    0.00662     4.37395
      H   13    0.09784      0.00000     0.40039    0.00177     0.40216
      H   14    0.10214      0.00000     0.39674    0.00112     0.39786
      H   15    0.10258      0.00000     0.39591    0.00152     0.39742
      H   16    0.08373      0.00000     0.41508    0.00119     0.41627
      H   17    0.09667      0.00000     0.40177    0.00156     0.40333
      H   18    0.10039      0.00000     0.39851    0.00110     0.39961
      H   19    0.10651      0.00000     0.39159    0.00191     0.39349
      H   20    0.09663      0.00000     0.40172    0.00165     0.40337
      H   21    0.09701      0.00000     0.40158    0.00142     0.40299
      H   22    0.10054      0.00000     0.39824    0.00122     0.39946
      H   23    0.08221      0.00000     0.41650    0.00129     0.41779
      H   24    0.09599      0.00000     0.40250    0.00151     0.40401
      H   25    0.08025      0.00000     0.41813    0.00162     0.41975
      H   26    0.09788      0.00000     0.40086    0.00125     0.40212
      H   27    0.09742      0.00000     0.40124    0.00134     0.40258
      H   28    0.08827      0.00000     0.41015    0.00158     0.41173
      H   29    0.09975      0.00000     0.39931    0.00094     0.40025
      H   30    0.10681      0.00000     0.39186    0.00133     0.39319
      H   31    0.10612      0.00000     0.39260    0.00128     0.39388
      H   32    0.10128      0.00000     0.39759    0.00113     0.39872
      H   33    0.22604      0.00000     0.27078    0.00318     0.27396
 =======================================================================
   * Total *   -0.00000     11.99567    35.85543    0.14890    48.00000

 Normal termination of Gaussian 16 at Wed Dec  9 17:35:15 2020.
