 Gaussian 16, Revision A.03,

 -----------------------------------------------------------
 # opt freq B3LYP/6-31G(d) empiricaldispersion=gd3bj scf=xqc
 -----------------------------------------------------------

 -------------------------------
 CID_61208850_JID_10015_neutraal
 -------------------------------
 Symbolic Z-matrix:
 Charge =  0 Multiplicity = 1

 SCF Done:  E(RB3LYP) =  -918.918031831     A.U. after   15 cycles
 SCF Done:  E(RB3LYP) =  -918.922604562     A.U. after   13 cycles
 SCF Done:  E(RB3LYP) =  -918.921746184     A.U. after   14 cycles
 SCF Done:  E(RB3LYP) =  -918.925029235     A.U. after   12 cycles
 SCF Done:  E(RB3LYP) =  -918.926043416     A.U. after   12 cycles
 SCF Done:  E(RB3LYP) =  -918.926557099     A.U. after   13 cycles
 SCF Done:  E(RB3LYP) =  -918.926545705     A.U. after   13 cycles
 SCF Done:  E(RB3LYP) =  -918.926927554     A.U. after   12 cycles
 SCF Done:  E(RB3LYP) =  -918.926961881     A.U. after   11 cycles
 SCF Done:  E(RB3LYP) =  -918.926980163     A.U. after   11 cycles
 SCF Done:  E(RB3LYP) =  -918.926988506     A.U. after    8 cycles
 SCF Done:  E(RB3LYP) =  -918.926989279     A.U. after    8 cycles
 SCF Done:  E(RB3LYP) =  -918.926989819     A.U. after    8 cycles
 SCF Done:  E(RB3LYP) =  -918.926989983     A.U. after    7 cycles
 SCF Done:  E(RB3LYP) =  -918.926990066     A.U. after    7 cycles
 SCF Done:  E(RB3LYP) =  -918.926990042     A.U. after    6 cycles
 Optimization completed.
    -- Stationary point found.
 Normal termination of Gaussian 16 at Sun Dec 13 20:48:16 2020.

 --------------------------------------------------------------------
 #N Geom=AllCheck Guess=TCheck SCRF=Check GenChk RB3LYP/6-31G(d) Freq
 --------------------------------------------------------------------

 Structure from the checkpoint file:  "JID_10015.chk"
 -------------------------------
 CID_61208850_JID_10015_neutraal
 -------------------------------
 Charge =  0 Multiplicity = 1

 SCF Done:  E(RB3LYP) =  -918.926990042     A.U. after    1 cycles

  Exact polarizability: 322.254 -36.063 133.185 -16.622 -17.464 152.428
 Approx polarizability: 439.885 -72.012 199.689 -39.967 -35.292 263.238

                      1                      2                      3
                      A                      A                      A
 Frequencies --     17.7745                28.1746                33.8998
 Red. masses --      5.4448                 3.0156                 6.0012
 Frc consts  --      0.0010                 0.0014                 0.0041
 IR Inten    --      1.4074                 0.0814                 0.8597

                      4                      5                      6
                      A                      A                      A
 Frequencies --     47.2786                70.6268                76.1430
 Red. masses --      4.1863                 5.8487                 5.1534
 Frc consts  --      0.0055                 0.0172                 0.0176
 IR Inten    --      0.5069                 1.6121                 0.9230

                      7                      8                      9
                      A                      A                      A
 Frequencies --     92.1223                94.6970               129.7940
 Red. masses --      4.7247                 4.9634                 3.4256
 Frc consts  --      0.0236                 0.0262                 0.0340
 IR Inten    --      1.0368                 3.1902                 0.4894

                     10                     11                     12
                      A                      A                      A
 Frequencies --    135.9170               190.6521               205.8676
 Red. masses --      5.3050                 3.5758                 5.4409
 Frc consts  --      0.0577                 0.0766                 0.1359
 IR Inten    --      0.2079                 0.0283                 2.1597

                     13                     14                     15
                      A                      A                      A
 Frequencies --    226.3564               240.1164               264.8689
 Red. masses --      1.4840                 1.6772                 3.5143
 Frc consts  --      0.0448                 0.0570                 0.1453
 IR Inten    --      2.7240                 1.7077                 2.1939

                     16                     17                     18
                      A                      A                      A
 Frequencies --    278.9764               292.7644               327.8549
 Red. masses --      1.1702                 1.0733                 5.0252
 Frc consts  --      0.0537                 0.0542                 0.3183
 IR Inten    --      0.0834                 0.0713                 0.7022

                     19                     20                     21
                      A                      A                      A
 Frequencies --    341.9265               357.7320               371.8303
 Red. masses --      2.3504                 2.9282                 3.7114
 Frc consts  --      0.1619                 0.2208                 0.3023
 IR Inten    --      0.2762                 2.4994                 5.9057

                     22                     23                     24
                      A                      A                      A
 Frequencies --    374.0388               407.6371               414.0796
 Red. masses --      3.1979                 2.4728                 1.9859
 Frc consts  --      0.2636                 0.2421                 0.2006
 IR Inten    --      2.0903                 0.3820                 0.8244

                     25                     26                     27
                      A                      A                      A
 Frequencies --    421.6901               452.3893               494.7006
 Red. masses --      3.1282                 5.2030                 2.3961
 Frc consts  --      0.3277                 0.6274                 0.3455
 IR Inten    --      0.1166                19.4304                 9.8100

                     28                     29                     30
                      A                      A                      A
 Frequencies --    523.3822               524.9809               554.6161
 Red. masses --      3.8592                 2.6207                 1.6149
 Frc consts  --      0.6229                 0.4255                 0.2927
 IR Inten    --      7.7510                14.4566               136.1440

                     31                     32                     33
                      A                      A                      A
 Frequencies --    584.8550               594.0636               622.2779
 Red. masses --      1.2049                 4.1435                 3.2998
 Frc consts  --      0.2428                 0.8615                 0.7529
 IR Inten    --     98.3275                39.7217                19.8871

                     34                     35                     36
                      A                      A                      A
 Frequencies --    655.0280               682.1476               706.9162
 Red. masses --      6.4328                 2.8653                 3.2294
 Frc consts  --      1.6262                 0.7856                 0.9508
 IR Inten    --     14.5260                72.4801                24.6130

                     37                     38                     39
                      A                      A                      A
 Frequencies --    717.1755               753.2942               760.0078
 Red. masses --      2.2405                 4.7004                 3.7708
 Frc consts  --      0.6790                 1.5715                 1.2833
 IR Inten    --     14.1181                10.2816                 5.4566

                     40                     41                     42
                      A                      A                      A
 Frequencies --    776.2306               829.0069               846.7463
 Red. masses --      3.4104                 1.7637                 2.0099
 Frc consts  --      1.2107                 0.7141                 0.8490
 IR Inten    --     88.6306                41.1580                10.5797

                     43                     44                     45
                      A                      A                      A
 Frequencies --    856.7989               874.3788               895.0914
 Red. masses --      1.8289                 3.6813                 1.9874
 Frc consts  --      0.7910                 1.6583                 0.9382
 IR Inten    --     41.1248                 1.8693                 1.8455

                     46                     47                     48
                      A                      A                      A
 Frequencies --    908.7695               924.2330               928.9062
 Red. masses --      2.6297                 2.7266                 3.6806
 Frc consts  --      1.2796                 1.3722                 1.8712
 IR Inten    --     11.2229                13.0069                 8.8688

                     49                     50                     51
                      A                      A                      A
 Frequencies --    950.1431               954.5011               955.9736
 Red. masses --      1.8603                 1.3413                 1.6310
 Frc consts  --      0.9895                 0.7200                 0.8782
 IR Inten    --      1.7978                 0.3801                 1.3247

                     52                     53                     54
                      A                      A                      A
 Frequencies --    976.3889               977.2904               981.0981
 Red. masses --      1.2419                 1.3516                 1.6609
 Frc consts  --      0.6976                 0.7606                 0.9419
 IR Inten    --      1.6450                 6.1799                 4.6143

                     55                     56                     57
                      A                      A                      A
 Frequencies --   1029.1081              1037.0999              1059.8871
 Red. masses --      1.1546                 2.6718                 1.4611
 Frc consts  --      0.7205                 1.6931                 0.9670
 IR Inten    --     22.8818                 0.0802                 2.7337

                     58                     59                     60
                      A                      A                      A
 Frequencies --   1084.1265              1139.5784              1154.6080
 Red. masses --      1.5054                 3.0246                 1.4183
 Frc consts  --      1.0424                 2.3142                 1.1140
 IR Inten    --     12.9427                23.3573                33.0159

                     61                     62                     63
                      A                      A                      A
 Frequencies --   1195.4651              1220.7086              1236.2451
 Red. masses --      1.8173                 1.1795                 1.8835
 Frc consts  --      1.5302                 1.0356                 1.6960
 IR Inten    --    553.6216                20.3495               114.3081

                     64                     65                     66
                      A                      A                      A
 Frequencies --   1253.6238              1254.7225              1284.8837
 Red. masses --      2.4711                 1.6588                 2.7049
 Frc consts  --      2.2881                 1.5386                 2.6311
 IR Inten    --      2.8046                24.4589                70.8306

                     67                     68                     69
                      A                      A                      A
 Frequencies --   1290.3866              1310.4076              1336.1842
 Red. masses --      2.7904                 1.6363                 1.8757
 Frc consts  --      2.7375                 1.6555                 1.9731
 IR Inten    --     62.3865                35.3914               200.0412

                     70                     71                     72
                      A                      A                      A
 Frequencies --   1343.5311              1362.0950              1373.9463
 Red. masses --      1.5715                 2.4458                 1.9167
 Frc consts  --      1.6713                 2.6736                 2.1318
 IR Inten    --      6.3539               112.9234                26.4968

                     73                     74                     75
                      A                      A                      A
 Frequencies --   1387.8368              1401.5794              1426.1574
 Red. masses --      1.6548                 2.4832                 1.5012
 Frc consts  --      1.8779                 2.8740                 1.7990
 IR Inten    --    185.5234               118.9239               175.9452

                     76                     77                     78
                      A                      A                      A
 Frequencies --   1431.3189              1434.3294              1458.5447
 Red. masses --      1.3108                 1.5456                 1.8327
 Frc consts  --      1.5822                 1.8734                 2.2971
 IR Inten    --     21.2068               132.5121                27.1989

                     79                     80                     81
                      A                      A                      A
 Frequencies --   1465.6275              1495.6731              1511.0286
 Red. masses --      1.3863                 1.3490                 1.5281
 Frc consts  --      1.7546                 1.7780                 2.0556
 IR Inten    --     25.9871                39.4846                43.0308

                     82                     83                     84
                      A                      A                      A
 Frequencies --   1512.3923              1513.8954              1521.5002
 Red. masses --      1.1044                 1.2503                 1.0683
 Frc consts  --      1.4884                 1.6883                 1.4570
 IR Inten    --      3.7357                57.7094                 7.6187

                     85                     86                     87
                      A                      A                      A
 Frequencies --   1522.5711              1540.6664              1542.4193
 Red. masses --      1.0620                 1.0622                 1.0585
 Frc consts  --      1.4505                 1.4855                 1.4837
 IR Inten    --      3.9142                10.4550                 3.7066

                     88                     89                     90
                      A                      A                      A
 Frequencies --   1553.5253              1568.3326              1624.4769
 Red. masses --      1.0597                 2.6419                 5.4159
 Frc consts  --      1.5069                 3.8286                 8.4207
 IR Inten    --     21.5332               120.0689                13.3258

                     91                     92                     93
                      A                      A                      A
 Frequencies --   1670.1531              1698.9901              1802.0730
 Red. masses --      5.5249                 5.7592                 6.3337
 Frc consts  --      9.0800                 9.7948                12.1186
 IR Inten    --    313.6522                40.6244               658.5466

                     94                     95                     96
                      A                      A                      A
 Frequencies --   1814.8278              3038.4577              3041.5153
 Red. masses --      8.7564                 1.0352                 1.0363
 Frc consts  --     16.9922                 5.6311                 5.6482
 IR Inten    --    467.1405                28.3387                18.4915

                     97                     98                     99
                      A                      A                      A
 Frequencies --   3050.3516              3058.6365              3104.2526
 Red. masses --      1.0400                 1.0665                 1.1025
 Frc consts  --      5.7013                 5.8788                 6.2597
 IR Inten    --     19.7966                23.8089                 8.2411

                    100                    101                    102
                      A                      A                      A
 Frequencies --   3106.8801              3111.2385              3111.4222
 Red. masses --      1.1015                 1.1022                 1.1022
 Frc consts  --      6.2645                 6.2862                 6.2868
 IR Inten    --     43.1201                 4.8248                11.7877

                    103                    104                    105
                      A                      A                      A
 Frequencies --   3117.7212              3128.5745              3151.7891
 Red. masses --      1.1011                 1.1014                 1.0933
 Frc consts  --      6.3059                 6.3518                 6.3991
 IR Inten    --     90.6736                20.4849                13.3508

                    106                    107                    108
                      A                      A                      A
 Frequencies --   3185.2900              3186.5854              3190.9419
 Red. masses --      1.0890                 1.0892                 1.0896
 Frc consts  --      6.5101                 6.5166                 6.5369
 IR Inten    --      9.7262                 6.3097                10.2714

                    109                    110                    111
                      A                      A                      A
 Frequencies --   3210.9904              3223.3812              3239.2083
 Red. masses --      1.0927                 1.0892                 1.0922
 Frc consts  --      6.6382                 6.6675                 6.7518
 IR Inten    --      4.3735                 8.9472                 1.1132

                    112                    113                    114
                      A                      A                      A
 Frequencies --   3584.3437              3599.8956              3706.4447
 Red. masses --      1.0744                 1.0756                 1.0642
 Frc consts  --      8.1330                 8.2122                 8.6140
 IR Inten    --     27.2778                44.6813                85.4004

 - Thermochemistry -
 -------------------
 Temperature   298.150 Kelvin.  Pressure   1.00000 Atm.
 Atom     1 has atomic number  6 and mass  12.00000

 Molecular mass:   276.14739 amu.
 Principal axes and moments of inertia in atomic units:
                           1         2         3
     Eigenvalues --  2525.94511********************
           X            0.99987   0.01562   0.00348
           Y           -0.01555   0.99973  -0.01714
           Z           -0.00374   0.01708   0.99985
 This molecule is an asymmetric top.
 Rotational symmetry number  1.
 Warning -- assumption of classical behavior for rotation
           may cause significant error
 Rotational temperatures (Kelvin)      0.03429     0.00566     0.00531
 Rotational constants (GHZ):           0.71448     0.11797     0.11064
 Zero-point vibrational energy     883541.8 (Joules/Mol)
                                  211.17157 (Kcal/Mol)
 Warning -- explicit consideration of  32 degrees of freedom as
           vibrations may cause significant error
 Vibrational temperatures:     25.57    40.54    48.77    68.02   101.62
          (Kelvin)            109.55   132.54   136.25   186.74   195.55
                              274.31   296.20   325.68   345.47   381.09
                              401.38   421.22   471.71   491.96   514.70
                              534.98   538.16   586.50   595.77   606.72
                              650.89   711.76   753.03   755.33   797.97
                              841.48   854.73   895.32   942.44   981.46
                             1017.09  1031.86  1083.82  1093.48  1116.82
                             1192.76  1218.28  1232.74  1258.04  1287.84
                             1307.52  1329.77  1336.49  1367.04  1373.31
                             1375.43  1404.81  1406.10  1411.58  1480.66
                             1492.16  1524.94  1559.82  1639.60  1661.22
                             1720.01  1756.33  1778.68  1803.69  1805.27
                             1848.66  1856.58  1885.38  1922.47  1933.04
                             1959.75  1976.80  1996.79  2016.56  2051.92
                             2059.35  2063.68  2098.52  2108.71  2151.94
                             2174.03  2176.00  2178.16  2189.10  2190.64
                             2216.68  2219.20  2235.18  2256.48  2337.26
                             2402.98  2444.47  2592.78  2611.13  4371.66
                             4376.06  4388.78  4400.70  4466.33  4470.11
                             4476.38  4476.64  4485.71  4501.32  4534.72
                             4582.92  4584.79  4591.05  4619.90  4637.73
                             4660.50  5157.07  5179.45  5332.75

 Zero-point correction=                           0.336523 (Hartree/Particle)
 Thermal correction to Energy=                    0.356858
 Thermal correction to Enthalpy=                  0.357802
 Thermal correction to Gibbs Free Energy=         0.285347
 Sum of electronic and zero-point Energies=           -918.590467
 Sum of electronic and thermal Energies=              -918.570133
 Sum of electronic and thermal Enthalpies=            -918.569188
 Sum of electronic and thermal Free Energies=         -918.641643

                     E (Thermal)             CV                S
                      KCal/Mol        Cal/Mol-Kelvin    Cal/Mol-Kelvin
 Total                  223.931             76.769            152.494
 Electronic               0.000              0.000              0.000
 Translational            0.889              2.981             42.746
 Rotational               0.889              2.981             34.799
 Vibrational            222.154             70.807             74.950
 Vibration     1          0.593              1.986              6.868
 Vibration     2          0.593              1.984              5.954
 Vibration     3          0.594              1.983              5.587
 Vibration     4          0.595              1.979              4.928
 Vibration     5          0.598              1.968              4.136
 Vibration     6          0.599              1.965              3.988
 Vibration     7          0.602              1.955              3.614
 Vibration     8          0.603              1.953              3.561
 Vibration     9          0.612              1.923              2.949
 Vibration    10          0.614              1.917              2.861
 Vibration    11          0.634              1.853              2.221
 Vibration    12          0.640              1.832              2.080
 Vibration    13          0.650              1.801              1.908
 Vibration    14          0.657              1.779              1.802
 Vibration    15          0.671              1.737              1.629
 Vibration    16          0.679              1.712              1.540
 Vibration    17          0.688              1.687              1.458
 Vibration    18          0.711              1.620              1.271
 Vibration    19          0.721              1.592              1.203
 Vibration    20          0.733              1.559              1.132
 Vibration    21          0.744              1.530              1.072
 Vibration    22          0.745              1.525              1.063
 Vibration    23          0.772              1.454              0.935
 Vibration    24          0.778              1.440              0.912
 Vibration    25          0.784              1.423              0.886
 Vibration    26          0.811              1.356              0.789
 Vibration    27          0.850              1.262              0.672
 Vibration    28          0.878              1.198              0.602
 Vibration    29          0.880              1.195              0.599
 Vibration    30          0.910              1.130              0.535
 Vibration    31          0.942              1.064              0.476
 Vibration    32          0.952              1.044              0.460

 Optimization completed.
    -- Stationary point found.
 Normal termination of Gaussian 16 at Sun Dec 13 21:05:25 2020.

 ----------------------------------------------------------------------
 # B3LYP/6-311++G(d,p) empiricaldispersion=gd3bj scf=xqc pop=npa geom=c
 heck
 ----------------------------------------------------------------------

 ---------------------------------------
 CID_61208850_JID_10015_Energie_neutraal
 ---------------------------------------
 Structure from the checkpoint file:  "JID_10015.chk"
 Charge =  0 Multiplicity = 1

 SCF Done:  E(RB3LYP) =  -919.199465158     A.U. after   15 cycles
 Normal termination of Gaussian 16 at Sun Dec 13 21:12:45 2020.

 ----------------------------------------------------------------------
 # B3LYP/6-311++G(d,p) empiricaldispersion=gd3bj scf=xqc pop=npa geom=c
 heck
 ----------------------------------------------------------------------

 -------------------------------------
 CID_61208850_JID_10015_Energie_kation
 -------------------------------------
 Structure from the checkpoint file:  "JID_10015.chk"
 Charge =  1 Multiplicity = 2

 SCF Done:  E(UB3LYP) =  -918.910097820     A.U. after   24 cycles
 Normal termination of Gaussian 16 at Sun Dec 13 21:28:58 2020.
 Gaussian 16:  ES64L-G16RevA.03 25-Dec-2016

 ----------------------------------------------------------------------
 # B3LYP/6-311++G(d,p) empiricaldispersion=gd3bj scf=xqc pop=npa geom=c
 heck
 ----------------------------------------------------------------------

 ------------------------------------
 CID_61208850_JID_10015_Energie_anion
 ------------------------------------
 Structure from the checkpoint file:  "JID_10015.chk"
 Charge = -1 Multiplicity = 2

                         Standard orientation:
 ---------------------------------------------------------------------
 Center     Atomic      Atomic             Coordinates (Angstroms)
 Number     Number       Type             X           Y           Z
 ---------------------------------------------------------------------
      1          6           0        4.062244    0.630306    1.528353
      2          6           0        3.868970    1.464913    0.251812
      3          6           0        3.410596    2.884179    0.625904
      4          6           0        5.195112    1.541537   -0.522329
      5          6           0        2.760683    0.850331   -0.636567
      6          7           0        3.023527   -0.509356   -1.116306
      7          6           0        2.840667   -1.649690   -0.359562
      8          8           0        3.635846   -2.580013   -0.356709
      9          7           0        1.690181   -1.705993    0.435840
     10          6           0        0.389506   -1.241116    0.189256
     11          6           0       -0.550051   -1.346937    1.232042
     12          6           0       -1.856503   -0.926213    1.055008
     13          6           0       -2.283032   -0.372032   -0.167594
     14          6           0       -1.334631   -0.276925   -1.200150
     15          6           0       -0.023174   -0.706268   -1.040120
     16          6           0       -3.641191    0.097835   -0.406425
     17          6           0       -4.670480    0.090217    0.463559
     18          6           0       -6.013837    0.585374    0.143117
     19          8           0       -6.949828    0.584683    0.920956
     20          8           0       -6.138533    1.061052   -1.129309
     21          1           0        4.797097    1.107680    2.186703
     22          1           0        4.427241   -0.376270    1.300576
     23          1           0        3.122530    0.534163    2.084077
     24          1           0        4.159105    3.379520    1.254319
     25          1           0        3.259934    3.503502   -0.266713
     26          1           0        2.466760    2.861023    1.183857
     27          1           0        5.576513    0.544687   -0.772981
     28          1           0        5.081430    2.111566   -1.452935
     29          1           0        5.964120    2.037384    0.080341
     30          1           0        1.817582    0.848005   -0.088612
     31          1           0        2.610783    1.485657   -1.518155
     32          1           0        3.880041   -0.603832   -1.649983
     33          1           0        1.755500   -2.481575    1.083265
     34          1           0       -0.236460   -1.757934    2.188152
     35          1           0       -2.554825   -1.021884    1.880174
     36          1           0       -1.639837    0.134532   -2.158836
     37          1           0        0.680900   -0.638084   -1.859980
     38          1           0       -3.828965    0.496553   -1.400909
     39          1           0       -4.578797   -0.286953    1.476444
     40          1           0       -7.065765    1.350852   -1.202874
 ---------------------------------------------------------------------

 SCF Done:  E(UB3LYP) =  -919.226968576     A.U. after   23 cycles

 The electronic state is 2-A.
 Alpha  occ. eigenvalues --  -19.02432 -18.98911 -18.95009 -14.24066 -14.23673
 Alpha  occ. eigenvalues --  -10.19744 -10.13772 -10.12088 -10.11433 -10.09544
 Alpha  occ. eigenvalues --  -10.09234 -10.08529 -10.08298 -10.05349 -10.04720
 Alpha  occ. eigenvalues --  -10.04498 -10.04114 -10.03861 -10.01997 -10.00947
 Alpha  occ. eigenvalues --   -0.95848  -0.95613  -0.86417  -0.84261  -0.81973
 Alpha  occ. eigenvalues --   -0.74624  -0.72626  -0.65582  -0.62716  -0.62429
 Alpha  occ. eigenvalues --   -0.61723  -0.61287  -0.60347  -0.53862  -0.51248
 Alpha  occ. eigenvalues --   -0.48515  -0.47517  -0.46985  -0.43292  -0.42764
 Alpha  occ. eigenvalues --   -0.41022  -0.39942  -0.39164  -0.37660  -0.35997
 Alpha  occ. eigenvalues --   -0.35635  -0.34666  -0.33683  -0.33468  -0.32976
 Alpha  occ. eigenvalues --   -0.32087  -0.31564  -0.31079  -0.30687  -0.30244
 Alpha  occ. eigenvalues --   -0.29993  -0.29838  -0.29463  -0.27933  -0.26630
 Alpha  occ. eigenvalues --   -0.25877  -0.25799  -0.25208  -0.24695  -0.22933
 Alpha  occ. eigenvalues --   -0.21245  -0.20806  -0.18521  -0.18366  -0.16317
 Alpha  occ. eigenvalues --   -0.14883  -0.13828  -0.13182  -0.08756   0.02797
 Alpha virt. eigenvalues --    0.05086   0.07183   0.07635   0.07962   0.09082
 Alpha virt. eigenvalues --    0.09232   0.09818   0.09903   0.10223   0.10509
 Alpha virt. eigenvalues --    0.10797   0.11467   0.11790   0.12211   0.12811

  Beta  occ. eigenvalues --  -19.02400 -18.98844 -18.94730 -14.24056 -14.23694
  Beta  occ. eigenvalues --  -10.19672 -10.13632 -10.12084 -10.11431 -10.09543
  Beta  occ. eigenvalues --  -10.09233 -10.08298 -10.08191 -10.05448 -10.04764
  Beta  occ. eigenvalues --  -10.04390 -10.03919 -10.03801 -10.01684 -10.00746
  Beta  occ. eigenvalues --   -0.95648  -0.95486  -0.86023  -0.84164  -0.81851
  Beta  occ. eigenvalues --   -0.74612  -0.72364  -0.65002  -0.62537  -0.62407
  Beta  occ. eigenvalues --   -0.61696  -0.61192  -0.59948  -0.53493  -0.50867
  Beta  occ. eigenvalues --   -0.48421  -0.47420  -0.46836  -0.42915  -0.42579
  Beta  occ. eigenvalues --   -0.40994  -0.39874  -0.39130  -0.37632  -0.35916
  Beta  occ. eigenvalues --   -0.35480  -0.34465  -0.33557  -0.33300  -0.32833
  Beta  occ. eigenvalues --   -0.31904  -0.31489  -0.30937  -0.30590  -0.29976
  Beta  occ. eigenvalues --   -0.29757  -0.29385  -0.29322  -0.27773  -0.26462
  Beta  occ. eigenvalues --   -0.25802  -0.25650  -0.24861  -0.24364  -0.22716
  Beta  occ. eigenvalues --   -0.20997  -0.20116  -0.18268  -0.17471  -0.16141
  Beta  occ. eigenvalues --   -0.13593  -0.13229  -0.12892  -0.07320
  Beta virt. eigenvalues --    0.05066   0.07159   0.07543   0.07893   0.08243
  Beta virt. eigenvalues --    0.09173   0.09266   0.09795   0.09962   0.10310
  Beta virt. eigenvalues --    0.10629   0.10981   0.11581   0.12183   0.12521

 Mulliken charges and spin densities:
               1          2
     1  C   -0.625398  -0.000570
     2  C    0.528106  -0.007812
     3  C   -0.514376   0.000604
     4  C   -0.584620  -0.001980
     5  C   -0.476243  -0.004187
     6  N   -0.177455   0.004555
     7  C   -0.122402   0.034064
     8  O   -0.305757   0.024073
     9  N   -0.156470  -0.020298
    10  C   -0.251513   0.205052
    11  C   -0.686482  -0.055623
    12  C   -0.956697   0.159015
    13  C    0.873146   0.019395
    14  C    0.352280   0.120579
    15  C    0.206127   0.006313
    16  C   -0.449365   0.191567
    17  C   -0.386647   0.087698
    18  C    0.045438   0.150383
    19  O   -0.410894   0.090550
    20  O   -0.229621   0.008019
    21  H    0.150566   0.001341
    22  H    0.203647   0.002484
    23  H    0.159620  -0.000309
    24  H    0.136037   0.001600
    25  H    0.128503   0.000103
    26  H    0.150197   0.001264
    27  H    0.145124   0.000280
    28  H    0.138366   0.000041
    29  H    0.138032  -0.000151
    30  H    0.132980  -0.002891
    31  H    0.163040   0.011628
    32  H    0.314351   0.000906
    33  H    0.295825   0.013917
    34  H    0.116330   0.006111
    35  H    0.091577  -0.009337
    36  H    0.136225  -0.002098
    37  H    0.208017   0.000233
    38  H    0.145330  -0.020602
    39  H    0.122592  -0.015845
    40  H    0.252482  -0.000074
 Sum of Mulliken charges =  -1.00000   1.00000

 Dipole moment (field-independent basis, Debye):
    X=             13.0178    Y=              3.6755    Z=             -1.0889  Tot=             13.5705
 Quadrupole moment (field-independent basis, Debye-Ang):
   XX=           -242.3545   YY=           -141.4872   ZZ=           -126.9686
   XY=             18.8862   XZ=             14.4470   YZ=             -6.7386

 Summary of Natural Population Analysis:

                                       Natural Population
                Natural  -----------------------------------------------
    Atom  No    Charge         Core      Valence    Rydberg      Total
 -----------------------------------------------------------------------
      C    1   -0.29002      0.99963     2.28441    0.00597     3.29002
      C    2   -0.05083      0.99959     2.04521    0.00603     3.05083
      C    3   -0.28475      0.99963     2.27941    0.00571     3.28475
      C    4   -0.28887      0.99963     2.28331    0.00592     3.28887
      C    5   -0.08913      0.99956     2.07812    0.01145     3.08913
      N    6   -0.33603      0.99968     2.82486    0.01149     3.83603
      C    7    0.41680      0.99971     1.56091    0.02258     2.58320
      O    8   -0.33419      0.99987     3.32866    0.00565     4.33419
      N    9   -0.32337      0.99964     2.81397    0.00976     3.82337
      C   10    0.12364      0.99948     1.86720    0.00968     2.87636
      C   11   -0.14239      0.99954     2.13466    0.00819     3.14239
      C   12   -0.04040      0.99954     2.03289    0.00798     3.04040
      C   13   -0.04402      0.99952     2.03532    0.00919     3.04402
      C   14   -0.05933      0.99954     2.05123    0.00856     3.05933
      C   15   -0.14678      0.99954     2.13932    0.00792     3.14678
      C   16   -0.00149      0.99942     1.99316    0.00892     3.00149
      C   17   -0.13261      0.99951     2.12305    0.01005     3.13261
      C   18    0.39794      0.99968     1.57751    0.02487     2.60206
      O   19   -0.30889      0.99987     3.30132    0.00770     4.30889
      O   20   -0.35968      0.99988     3.35355    0.00625     4.35968
      H   21    0.09496      0.00000     0.40426    0.00078     0.40504
      H   22    0.10764      0.00000     0.39157    0.00079     0.39236
      H   23    0.10499      0.00000     0.39422    0.00079     0.39501
      H   24    0.09704      0.00000     0.40216    0.00080     0.40296
      H   25    0.09795      0.00000     0.40125    0.00079     0.40205
      H   26    0.10368      0.00000     0.39558    0.00074     0.39632
      H   27    0.10025      0.00000     0.39886    0.00089     0.39975
      H   28    0.09693      0.00000     0.40230    0.00076     0.40307
      H   29    0.09855      0.00000     0.40069    0.00076     0.40145
      H   30    0.11548      0.00000     0.38353    0.00099     0.38452
      H   31    0.09403      0.00000     0.40505    0.00092     0.40597
      H   32    0.18872      0.00000     0.30980    0.00148     0.31128
      H   33    0.19582      0.00000     0.30270    0.00148     0.30418
      H   34    0.09178      0.00000     0.40685    0.00137     0.40822
      H   35    0.09498      0.00000     0.40357    0.00146     0.40502
      H   36    0.09529      0.00000     0.40390    0.00081     0.40471
      H   37    0.10299      0.00000     0.39549    0.00152     0.39701
      H   38    0.09114      0.00000     0.40685    0.00201     0.40886
      H   39    0.09220      0.00000     0.40631    0.00150     0.40780
      H   40    0.23002      0.00000     0.26668    0.00330     0.26998
 =======================================================================
   * Total *    0.00001     19.99246    53.78969    0.21783    73.99999

 Normal termination of Gaussian 16 at Sun Dec 13 21:44:31 2020.
