 Gaussian 16, Revision A.03,

 -----------------------------------------------------------
 # opt freq B3LYP/6-31G(d) empiricaldispersion=gd3bj scf=xqc
 -----------------------------------------------------------

 -------------------------------
 CID_142375252_JID_1989_neutraal
 -------------------------------
 Symbolic Z-matrix:
 Charge =  0 Multiplicity = 1

 SCF Done:  E(RB3LYP) =  -432.450987429     A.U. after   12 cycles
 SCF Done:  E(RB3LYP) =  -432.456006031     A.U. after   10 cycles
 SCF Done:  E(RB3LYP) =  -432.456280577     A.U. after    9 cycles
 SCF Done:  E(RB3LYP) =  -432.456339494     A.U. after    9 cycles
 SCF Done:  E(RB3LYP) =  -432.456375725     A.U. after    8 cycles
 SCF Done:  E(RB3LYP) =  -432.456412883     A.U. after    9 cycles
 SCF Done:  E(RB3LYP) =  -432.456425616     A.U. after    8 cycles
 SCF Done:  E(RB3LYP) =  -432.456429940     A.U. after    7 cycles
 SCF Done:  E(RB3LYP) =  -432.456433554     A.U. after    8 cycles
 SCF Done:  E(RB3LYP) =  -432.456437626     A.U. after    8 cycles
 SCF Done:  E(RB3LYP) =  -432.456487111     A.U. after    7 cycles
 SCF Done:  E(RB3LYP) =  -432.456487342     A.U. after    7 cycles
 SCF Done:  E(RB3LYP) =  -432.456487452     A.U. after    6 cycles
 SCF Done:  E(RB3LYP) =  -432.456487501     A.U. after    6 cycles
 SCF Done:  E(RB3LYP) =  -432.456487517     A.U. after    5 cycles
 Optimization completed.
    -- Stationary point found.
 Normal termination of Gaussian 16 at Tue Dec  8 22:09:05 2020.

 --------------------------------------------------------------------
 #N Geom=AllCheck Guess=TCheck SCRF=Check GenChk RB3LYP/6-31G(d) Freq
 --------------------------------------------------------------------

 Structure from the checkpoint file:  "JID_1989.chk"
 -------------------------------
 CID_142375252_JID_1989_neutraal
 -------------------------------
 Charge =  0 Multiplicity = 1

 SCF Done:  E(RB3LYP) =  -432.456487517     A.U. after    1 cycles

  Exact polarizability: 122.472   2.384 108.596  -0.170   0.585 106.192
 Approx polarizability: 152.555  -0.966 154.680   0.655  -0.285 150.829

                      1                      2                      3
                      A                      A                      A
 Frequencies --     19.7556                41.8112                54.3488
 Red. masses --      2.6798                 2.3053                 1.1602
 Frc consts  --      0.0006                 0.0024                 0.0020
 IR Inten    --      0.0007                 0.0051                 0.0026

                      4                      5                      6
                      A                      A                      A
 Frequencies --     66.7717                74.3030                80.9330
 Red. masses --      1.5316                 1.6343                 2.9271
 Frc consts  --      0.0040                 0.0053                 0.0113
 IR Inten    --      0.1174                 0.0171                 0.0317

                      7                      8                      9
                      A                      A                      A
 Frequencies --     94.9674               128.4807               157.5696
 Red. masses --      1.0307                 2.0714                 2.0915
 Frc consts  --      0.0055                 0.0201                 0.0306
 IR Inten    --      0.0046                 0.0036                 0.0094

                     10                     11                     12
                      A                      A                      A
 Frequencies --    245.4417               278.0233               284.5939
 Red. masses --      1.9079                 3.2300                 2.6351
 Frc consts  --      0.0677                 0.1471                 0.1257
 IR Inten    --      0.1695                 0.0169                 0.0760

                     13                     14                     15
                      A                      A                      A
 Frequencies --    294.8787               369.5066               387.7954
 Red. masses --      2.0649                 1.9026                 2.2907
 Frc consts  --      0.1058                 0.1531                 0.2030
 IR Inten    --      0.0159                 0.1195                 0.1211

                     16                     17                     18
                      A                      A                      A
 Frequencies --    452.1497               479.3066               511.8156
 Red. masses --      2.2878                 2.0344                 1.5054
 Frc consts  --      0.2756                 0.2754                 0.2323
 IR Inten    --      0.0780                 0.0304                 0.3109

                     19                     20                     21
                      A                      A                      A
 Frequencies --    629.0841               700.1129               781.5340
 Red. masses --      2.3955                 1.6480                 2.2956
 Frc consts  --      0.5586                 0.4759                 0.8261
 IR Inten    --      0.8672                 0.7869                 0.0268

                     22                     23                     24
                      A                      A                      A
 Frequencies --    800.0452               816.9468               829.6398
 Red. masses --      1.4785                 1.3778                 1.8883
 Frc consts  --      0.5576                 0.5418                 0.7658
 IR Inten    --      0.1738                 0.1250                 1.9328

                     25                     26                     27
                      A                      A                      A
 Frequencies --    870.2501               877.0338               914.5084
 Red. masses --      1.6491                 1.7623                 2.0900
 Frc consts  --      0.7358                 0.7987                 1.0298
 IR Inten    --      0.7796                 1.0704                 0.9336

                     28                     29                     30
                      A                      A                      A
 Frequencies --    928.8567               953.3906               962.0368
 Red. masses --      2.2052                 2.3602                 2.1291
 Frc consts  --      1.1210                 1.2640                 1.1610
 IR Inten    --      0.8681                 1.5689                 1.1662

                     31                     32                     33
                      A                      A                      A
 Frequencies --    978.3831              1000.4345              1013.5168
 Red. masses --      2.4687                 2.0676                 2.0948
 Frc consts  --      1.3923                 1.2192                 1.2678
 IR Inten    --      1.6645                 0.8651                 1.1293

                     34                     35                     36
                      A                      A                      A
 Frequencies --   1052.4922              1065.4426              1084.8417
 Red. masses --      1.3929                 1.2857                 2.0491
 Frc consts  --      0.9091                 0.8599                 1.4209
 IR Inten    --      0.2698                 0.2881                 0.5836

                     37                     38                     39
                      A                      A                      A
 Frequencies --   1099.9791              1125.9752              1154.0160
 Red. masses --      2.1535                 1.8885                 1.8517
 Frc consts  --      1.5352                 1.4107                 1.4529
 IR Inten    --      0.3924                 0.0226                 0.4080

                     40                     41                     42
                      A                      A                      A
 Frequencies --   1203.7117              1217.4299              1230.6779
 Red. masses --      1.4951                 1.6346                 1.5256
 Frc consts  --      1.2764                 1.4274                 1.3614
 IR Inten    --      1.7563                 0.6816                 0.1330

                     43                     44                     45
                      A                      A                      A
 Frequencies --   1240.3084              1255.9467              1266.9187
 Red. masses --      1.2723                 1.3726                 1.2931
 Frc consts  --      1.1531                 1.2757                 1.2229
 IR Inten    --      0.1669                 0.2664                 3.0405

                     46                     47                     48
                      A                      A                      A
 Frequencies --   1271.3277              1290.8436              1301.5017
 Red. masses --      1.2601                 1.4050                 1.4970
 Frc consts  --      1.2000                 1.3793                 1.4940
 IR Inten    --      0.2140                 0.3128                 2.4513

                     49                     50                     51
                      A                      A                      A
 Frequencies --   1327.7173              1340.1975              1349.0888
 Red. masses --      1.2025                 1.2734                 1.4904
 Frc consts  --      1.2490                 1.3475                 1.5982
 IR Inten    --      0.9898                 1.3413                 1.6276

                     52                     53                     54
                      A                      A                      A
 Frequencies --   1369.7652              1370.8214              1371.7075
 Red. masses --      1.1794                 1.1804                 1.1803
 Frc consts  --      1.3038                 1.3068                 1.3085
 IR Inten    --     30.9831                14.2558                14.8576

                     55                     56                     57
                      A                      A                      A
 Frequencies --   1381.2539              1397.1840              1403.0016
 Red. masses --      1.4296                 1.3883                 1.4104
 Frc consts  --      1.6070                 1.5968                 1.6357
 IR Inten    --      0.4031                 3.1570                 1.1708

                     58                     59                     60
                      A                      A                      A
 Frequencies --   1412.2568              1414.1629              1417.2565
 Red. masses --      1.4547                 1.4328                 1.5305
 Frc consts  --      1.7095                 1.6883                 1.8112
 IR Inten    --      2.5705                 4.9780                 0.2671

                     61                     62                     63
                      A                      A                      A
 Frequencies --   1504.6633              1511.9258              1513.9305
 Red. masses --      1.0861                 1.0853                 1.0829
 Frc consts  --      1.4488                 1.4617                 1.4624
 IR Inten    --      1.2373                 1.0362                 0.7070

                     64                     65                     66
                      A                      A                      A
 Frequencies --   1516.4461              1518.3917              1519.9413
 Red. masses --      1.0895                 1.0916                 1.0924
 Frc consts  --      1.4762                 1.4827                 1.4869
 IR Inten    --      1.0524                 4.3398                 3.5097

                     67                     68                     69
                      A                      A                      A
 Frequencies --   1533.5657              1535.6079              1540.2729
 Red. masses --      1.0861                 1.0902                 1.1180
 Frc consts  --      1.5050                 1.5146                 1.5628
 IR Inten    --      6.7777                 3.8355                 1.0323

                     70                     71                     72
                      A                      A                      A
 Frequencies --   1589.0402              1590.3736              3015.4440
 Red. masses --      1.0084                 1.0080                 1.0667
 Frc consts  --      1.5002                 1.5021                 5.7146
 IR Inten    --      0.5724                 0.4694                 9.6658

                     73                     74                     75
                      A                      A                      A
 Frequencies --   3017.6560              3018.7331              3029.1682
 Red. masses --      1.0618                 1.0653                 1.0630
 Frc consts  --      5.6969                 5.7196                 5.7468
 IR Inten    --     23.4425                20.5748                17.5346

                     76                     77                     78
                      A                      A                      A
 Frequencies --   3034.0085              3037.7835              3052.1933
 Red. masses --      1.0638                 1.0675                 1.0093
 Frc consts  --      5.7697                 5.8042                 5.5399
 IR Inten    --     18.3715                 2.4394                 0.5679

                     79                     80                     81
                      A                      A                      A
 Frequencies --   3053.2045              3054.3455              3057.8693
 Red. masses --      1.0752                 1.0742                 1.0787
 Frc consts  --      5.9052                 5.9044                 5.9427
 IR Inten    --     58.6539                72.5001                28.5636

                     82                     83                     84
                      A                      A                      A
 Frequencies --   3061.1087              3062.8485              3068.0636
 Red. masses --      1.0799                 1.0948                 1.0972
 Frc consts  --      5.9621                 6.0509                 6.0849
 IR Inten    --     13.3098                65.6102                55.6990

                     85                     86                     87
                      A                      A                      A
 Frequencies --   3070.5010              3075.5126              3079.5682
 Red. masses --      1.0993                 1.0645                 1.0998
 Frc consts  --      6.1065                 5.9325                 6.1455
 IR Inten    --     39.4365                55.8077               101.5926

                     88                     89                     90
                      A                      A                      A
 Frequencies --   3097.9999              3105.1513              3126.5891
 Red. masses --      1.1076                 1.1086                 1.1080
 Frc consts  --      6.2631                 6.2977                 6.3814
 IR Inten    --     23.9207                12.9578                76.8205

                     91                     92                     93
                      A                      A                      A
 Frequencies --   3161.5257              3161.7445              3163.9446
 Red. masses --      1.1016                 1.1018                 1.1015
 Frc consts  --      6.4873                 6.4896                 6.4967
 IR Inten    --     28.1163                26.5383                22.8048

 - Thermochemistry -
 -------------------
 Temperature   298.150 Kelvin.  Pressure   1.00000 Atm.
 Atom     1 has atomic number  6 and mass  12.00000

 Molecular mass:   154.17215 amu.
 Principal axes and moments of inertia in atomic units:
                           1         2         3
     Eigenvalues --  1600.490322318.670932860.77268
           X            0.99943  -0.03362   0.00052
           Y            0.03362   0.99942  -0.00561
           Z           -0.00033   0.00563   0.99998
 This molecule is an asymmetric top.
 Rotational symmetry number  1.
 Warning -- assumption of classical behavior for rotation
           may cause significant error
 Rotational temperatures (Kelvin)      0.05412     0.03735     0.03028
 Rotational constants (GHZ):           1.12762     0.77835     0.63086
 Zero-point vibrational energy     813300.2 (Joules/Mol)
                                  194.38341 (Kcal/Mol)
 Warning -- explicit consideration of  18 degrees of freedom as
           vibrations may cause significant error
 Vibrational temperatures:     28.42    60.16    78.20    96.07   106.91
          (Kelvin)            116.44   136.64   184.86   226.71   353.14
                              400.01   409.47   424.26   531.64   557.95
                              650.54   689.62   736.39   905.11  1007.31
                             1124.45  1151.09  1175.40  1193.67  1252.10
                             1261.86  1315.77  1336.42  1371.72  1384.16
                             1407.68  1439.40  1458.22  1514.30  1532.93
                             1560.85  1582.62  1620.03  1660.37  1731.87
                             1751.61  1770.67  1784.53  1807.03  1822.81
                             1829.16  1857.24  1872.57  1910.29  1928.25
                             1941.04  1970.79  1972.31  1973.58  1987.32
                             2010.24  2018.61  2031.92  2034.67  2039.12
                             2164.87  2175.32  2178.21  2181.83  2184.63
                             2186.86  2206.46  2209.40  2216.11  2286.27
                             2288.19  4338.55  4341.73  4343.28  4358.30
                             4365.26  4370.69  4391.43  4392.88  4394.52
                             4399.59  4404.25  4406.76  4414.26  4417.77
                             4424.98  4430.81  4457.33  4467.62  4498.46
                             4548.73  4549.05  4552.21

 Zero-point correction=                           0.309770 (Hartree/Particle)
 Thermal correction to Energy=                    0.324181
 Thermal correction to Enthalpy=                  0.325125
 Thermal correction to Gibbs Free Energy=         0.266404
 Sum of electronic and zero-point Energies=           -432.146718
 Sum of electronic and thermal Energies=              -432.132307
 Sum of electronic and thermal Enthalpies=            -432.131362
 Sum of electronic and thermal Free Energies=         -432.190083

                     E (Thermal)             CV                S
                      KCal/Mol        Cal/Mol-Kelvin    Cal/Mol-Kelvin
 Total                  203.427             51.087            123.588
 Electronic               0.000              0.000              0.000
 Translational            0.889              2.981             41.008
 Rotational               0.889              2.981             30.741
 Vibrational            201.649             45.125             51.839
 Vibration     1          0.593              1.986              6.659
 Vibration     2          0.594              1.980              5.171
 Vibration     3          0.596              1.976              4.653
 Vibration     4          0.598              1.970              4.246
 Vibration     5          0.599              1.966              4.036
 Vibration     6          0.600              1.962              3.868
 Vibration     7          0.603              1.953              3.555
 Vibration     8          0.611              1.925              2.969
 Vibration     9          0.621              1.894              2.579
 Vibration    10          0.660              1.770              1.763
 Vibration    11          0.679              1.714              1.546
 Vibration    12          0.683              1.702              1.506
 Vibration    13          0.689              1.683              1.446
 Vibration    14          0.742              1.535              1.082
 Vibration    15          0.756              1.496              1.009
 Vibration    16          0.811              1.356              0.789
 Vibration    17          0.836              1.296              0.712
 Vibration    18          0.867              1.224              0.629

 Optimization completed on the basis of negligible forces.
    -- Stationary point found.
 Normal termination of Gaussian 16 at Tue Dec  8 22:17:46 2020.

 ----------------------------------------------------------------------
 # B3LYP/6-311++G(d,p) empiricaldispersion=gd3bj scf=xqc pop=npa geom=c
 heck
 ----------------------------------------------------------------------

 ---------------------------------------
 CID_142375252_JID_1989_Energie_neutraal
 ---------------------------------------
 Structure from the checkpoint file:  "JID_1989.chk"
 Charge =  0 Multiplicity = 1

 SCF Done:  E(RB3LYP) =  -432.574569965     A.U. after   12 cycles
 Normal termination of Gaussian 16 at Tue Dec  8 22:21:24 2020.

 ----------------------------------------------------------------------
 # B3LYP/6-311++G(d,p) empiricaldispersion=gd3bj scf=xqc pop=npa geom=c
 heck
 ----------------------------------------------------------------------

 -------------------------------------
 CID_142375252_JID_1989_Energie_kation
 -------------------------------------
 Structure from the checkpoint file:  "JID_1989.chk"
 Charge =  1 Multiplicity = 2

 SCF Done:  E(UB3LYP) =  -432.219596923     A.U. after   33 cycles
 SCF Done:  E(UB3LYP) =  -432.219597058     a.u. after    2 cycles
 Normal termination of Gaussian 16 at Tue Dec  8 22:44:28 2020.
 Gaussian 16:  ES64L-G16RevA.03 25-Dec-2016

 ----------------------------------------------------------------------
 # B3LYP/6-311++G(d,p) empiricaldispersion=gd3bj scf=xqc pop=npa geom=c
 heck
 ----------------------------------------------------------------------

 ------------------------------------
 CID_142375252_JID_1989_Energie_anion
 ------------------------------------
 Structure from the checkpoint file:  "JID_1989.chk"
 Charge = -1 Multiplicity = 2

                         Standard orientation:
 ---------------------------------------------------------------------
 Center     Atomic      Atomic             Coordinates (Angstroms)
 Number     Number       Type             X           Y           Z
 ---------------------------------------------------------------------
      1          6           0       -1.512038    3.424657   -0.151962
      2          6           0       -2.263255   -1.145886    0.664900
      3          6           0       -2.195301   -0.952108   -0.855473
      4          6           0       -0.812987   -1.146132   -1.499725
      5          6           0        0.182825   -0.032150   -1.133437
      6          6           0        1.004696   -0.248921    0.149949
      7          6           0        0.202649   -0.843124    1.315942
      8          6           0       -1.243665   -0.350026    1.495743
      9          6           0        2.343052   -1.001947   -0.137227
     10          6           0        3.074660    0.360384   -0.236209
     11          6           0        1.859055    1.025671    0.458931
     12          1           0       -2.303117    2.670748   -0.184913
     13          1           0       -1.049603    3.509250   -1.138980
     14          1           0       -0.755796    3.124783    0.578147
     15          1           0       -1.937985    4.389343    0.136712
     16          1           0       -2.126292   -2.212688    0.895427
     17          1           0       -3.278265   -0.891422    0.998528
     18          1           0       -2.912033   -1.641203   -1.321963
     19          1           0       -2.542958    0.061494   -1.103911
     20          1           0       -0.947481   -1.156187   -2.588676
     21          1           0       -0.401960   -2.131151   -1.237232
     22          1           0       -0.375657    0.908661   -1.042325
     23          1           0        0.884346    0.123440   -1.963316
     24          1           0        0.773038   -0.661974    2.236265
     25          1           0        0.177524   -1.936539    1.199442
     26          1           0       -1.315619    0.721588    1.267137
     27          1           0       -1.519810   -0.452206    2.552906
     28          1           0        2.361080   -1.658289   -1.014729
     29          1           0        2.673202   -1.579805    0.733376
     30          1           0        4.043599    0.441655    0.265391
     31          1           0        3.195756    0.696102   -1.270709
     32          1           0        1.500440    1.972531    0.040499
     33          1           0        2.019436    1.159361    1.534336
 ---------------------------------------------------------------------

 SCF Done:  E(UB3LYP) =  -432.557704238     A.U. after   27 cycles

 The electronic state is 2-A.
 Alpha  occ. eigenvalues --  -10.07317 -10.06390 -10.06100 -10.05918 -10.05833
 Alpha  occ. eigenvalues --  -10.05803 -10.05784 -10.05705 -10.05666 -10.05572
 Alpha  occ. eigenvalues --  -10.04812  -0.75407  -0.70300  -0.65432  -0.62895
 Alpha  occ. eigenvalues --   -0.59193  -0.55847  -0.54590  -0.53547  -0.47417
 Alpha  occ. eigenvalues --   -0.45695  -0.41476  -0.38195  -0.37727  -0.35086
 Alpha  occ. eigenvalues --   -0.33590  -0.32236  -0.31619  -0.29904  -0.29606
 Alpha  occ. eigenvalues --   -0.29090  -0.29041  -0.28748  -0.27288  -0.26387
 Alpha  occ. eigenvalues --   -0.25980  -0.24128  -0.22287  -0.21944  -0.21447
 Alpha  occ. eigenvalues --   -0.20670  -0.20000  -0.18612  -0.18067   0.04631
 Alpha virt. eigenvalues --    0.06945   0.07114   0.07240   0.08823   0.09012
 Alpha virt. eigenvalues --    0.09235   0.09815   0.10271   0.11163   0.11566
 Alpha virt. eigenvalues --    0.12062   0.12412   0.12828   0.13163   0.13475

  Beta  occ. eigenvalues --  -10.07318 -10.06375 -10.06090 -10.05904 -10.05817
  Beta  occ. eigenvalues --  -10.05788 -10.05767 -10.05691 -10.05654 -10.05557
  Beta  occ. eigenvalues --  -10.04762  -0.75391  -0.70270  -0.65401  -0.62865
  Beta  occ. eigenvalues --   -0.59113  -0.55812  -0.54550  -0.53509  -0.47365
  Beta  occ. eigenvalues --   -0.45640  -0.41432  -0.38153  -0.37704  -0.35043
  Beta  occ. eigenvalues --   -0.33566  -0.32215  -0.31592  -0.29867  -0.29569
  Beta  occ. eigenvalues --   -0.29041  -0.28989  -0.28711  -0.27257  -0.26357
  Beta  occ. eigenvalues --   -0.25954  -0.24101  -0.22260  -0.21912  -0.21414
  Beta  occ. eigenvalues --   -0.20638  -0.19975  -0.18592  -0.18042
  Beta virt. eigenvalues --    0.06691   0.07599   0.07709   0.07996   0.09124
  Beta virt. eigenvalues --    0.09539   0.09698   0.10141   0.10693   0.11560
  Beta virt. eigenvalues --    0.11989   0.12493   0.12826   0.13177   0.13382

 Mulliken charges and spin densities:
               1          2
     1  C    0.596447  -1.182996
     2  C    0.582501  -1.199243
     3  C   -0.107292  -0.129769
     4  C   -0.396508  -0.111043
     5  C    0.473180  -0.761867
     6  C   -1.059921   1.822603
     7  C    0.175302  -0.636208
     8  C   -0.846492   0.773597
     9  C    0.172284  -0.683097
    10  C    0.292594  -0.645622
    11  C    0.376024  -0.721789
    12  H   -0.194597   0.342510
    13  H   -0.405936   0.549156
    14  H   -0.186174   0.337824
    15  H   -0.475317   0.610776
    16  H    0.011004   0.116403
    17  H   -0.215205   0.375863
    18  H   -0.135516   0.292684
    19  H    0.007421   0.123072
    20  H   -0.419603   0.590353
    21  H    0.190059  -0.057969
    22  H    1.108735  -0.927235
    23  H   -0.025135   0.210101
    24  H    0.077378   0.091872
    25  H   -0.084872   0.222014
    26  H    0.314630  -0.203617
    27  H   -0.438825   0.614770
    28  H    0.078253   0.064892
    29  H   -0.166002   0.298830
    30  H    0.071668   0.063356
    31  H   -0.280130   0.406980
    32  H    0.255973  -0.133678
    33  H   -0.345928   0.486474
 Sum of Mulliken charges =  -1.00000   1.00000

 Dipole moment (field-independent basis, Debye):
    X=              2.5879    Y=             -3.7414    Z=             -0.0072  Tot=              4.5492
 Quadrupole moment (field-independent basis, Debye-Ang):
   XX=           -128.8762   YY=           -127.3287   ZZ=           -117.3151
   XY=              4.4062   XZ=              0.1957   YZ=              1.0502

 Summary of Natural Population Analysis:

                                       Natural Population
                Natural  -----------------------------------------------
    Atom  No    Charge         Core      Valence    Rydberg      Total
 -----------------------------------------------------------------------
      C    1   -0.40191      0.99971     2.40016    0.00204     3.40191
      C    2   -0.18467      0.99962     2.17691    0.00814     3.18467
      C    3   -0.18650      0.99962     2.17859    0.00828     3.18650
      C    4   -0.19215      0.99962     2.18366    0.00887     3.19215
      C    5   -0.19363      0.99957     2.18341    0.01065     3.19363
      C    6   -0.03383      0.99955     2.02017    0.01411     3.03383
      C    7   -0.18942      0.99958     2.17949    0.01036     3.18942
      C    8   -0.19546      0.99962     2.18709    0.00875     3.19546
      C    9   -0.18332      0.99960     2.17627    0.00745     3.18332
      C   10   -0.19126      0.99965     2.18427    0.00734     3.19126
      C   11   -0.18428      0.99960     2.17559    0.00909     3.18428
      H   12    0.10114      0.00000     0.39759    0.00127     0.39886
      H   13    0.10135      0.00000     0.39746    0.00119     0.39865
      H   14    0.10085      0.00000     0.39800    0.00115     0.39915
      H   15    0.09987      0.00000     0.39909    0.00104     0.40013
      H   16    0.08902      0.00000     0.40964    0.00134     0.41098
      H   17    0.09816      0.00000     0.40068    0.00116     0.40184
      H   18    0.09598      0.00000     0.40290    0.00113     0.40402
      H   19    0.09292      0.00000     0.40523    0.00185     0.40708
      H   20    0.09922      0.00000     0.39972    0.00106     0.40078
      H   21    0.09291      0.00000     0.40575    0.00135     0.40709
      H   22    0.09953      0.00000     0.39771    0.00276     0.40047
      H   23    0.09977      0.00000     0.39864    0.00159     0.40023
      H   24    0.09999      0.00000     0.39867    0.00135     0.40001
      H   25    0.09429      0.00000     0.40428    0.00144     0.40571
      H   26    0.09807      0.00000     0.39990    0.00204     0.40193
      H   27    0.09844      0.00000     0.40041    0.00115     0.40156
      H   28    0.09556      0.00000     0.40338    0.00106     0.40444
      H   29    0.09553      0.00000     0.40323    0.00124     0.40447
      H   30    0.09345      0.00000     0.40533    0.00123     0.40655
      H   31    0.09537      0.00000     0.40304    0.00158     0.40463
      H   32    0.09844      0.00000     0.40018    0.00137     0.40156
      H   33    0.09659      0.00000     0.40204    0.00136     0.40341
 =======================================================================
   * Total *   -0.00000     10.99575    32.87845    0.12580    44.00000

 Normal termination of Gaussian 16 at Tue Dec  8 22:55:56 2020.
