 Gaussian 16, Revision A.03,

 -----------------------------------------------------------
 # opt freq B3LYP/6-31G(d) empiricaldispersion=gd3bj scf=xqc
 -----------------------------------------------------------

 -------------------------------
 CID_150256281_JID_3376_neutraal
 -------------------------------
 Symbolic Z-matrix:
 Charge =  0 Multiplicity = 1

 SCF Done:  E(RB3LYP) =  -649.835955095     A.U. after   15 cycles
 SCF Done:  E(RB3LYP) =  -649.838490608     A.U. after   13 cycles
 SCF Done:  E(RB3LYP) =  -649.838931756     A.U. after   12 cycles
 SCF Done:  E(RB3LYP) =  -649.839066850     A.U. after   12 cycles
 SCF Done:  E(RB3LYP) =  -649.839223817     A.U. after   13 cycles
 SCF Done:  E(RB3LYP) =  -649.839623627     A.U. after   12 cycles
 SCF Done:  E(RB3LYP) =  -649.839842936     A.U. after   11 cycles
 SCF Done:  E(RB3LYP) =  -649.839825228     A.U. after   13 cycles
 SCF Done:  E(RB3LYP) =  -649.840020469     A.U. after   12 cycles
 SCF Done:  E(RB3LYP) =  -649.840096768     A.U. after   12 cycles
 SCF Done:  E(RB3LYP) =  -649.840179518     A.U. after    8 cycles
 SCF Done:  E(RB3LYP) =  -649.840179768     A.U. after    8 cycles
 SCF Done:  E(RB3LYP) =  -649.840179835     A.U. after    7 cycles
 SCF Done:  E(RB3LYP) =  -649.840179855     A.U. after    6 cycles
 SCF Done:  E(RB3LYP) =  -649.840179871     A.U. after    6 cycles
 Optimization completed.
    -- Stationary point found.

 1\1\GINC-NODE310\FOpt\RB3LYP\6-31G(d)\C9H10O4\VSC10255\09-Dec-2020\0\\
 # opt freq B3LYP/6-31G(d) empiricaldispersion=gd3bj scf=xqc\\CID_15025
 6281_JID_3376_neutraal\\0,1\C,2.5298610261,0.9953819359,0.1239752161\C
 ,1.2162299612,0.2607064839,0.0995966259\C,0.0028362195,0.9405047456,0.
 1487665529\C,-1.2127990843,0.2473864077,0.108811674\C,-1.2232778636,-1
 .1481619109,0.0197005279\C,-0.0276755843,-1.86704385,-0.0196165303\C,1
 .1728831732,-1.1416287973,0.0147085169\O,2.3386967711,-1.8712266229,-0
 .1191679884\O,3.081934727,-1.7897444749,1.1601121598\C,-0.0109959024,-

 Normal termination of Gaussian 16 at Wed Dec  9 23:05:24 2020.

 --------------------------------------------------------------------
 #N Geom=AllCheck Guess=TCheck SCRF=Check GenChk RB3LYP/6-31G(d) Freq
 --------------------------------------------------------------------

 Structure from the checkpoint file:  "JID_3376.chk"
 -------------------------------
 CID_150256281_JID_3376_neutraal
 -------------------------------
 Charge =  0 Multiplicity = 1

 SCF Done:  E(RB3LYP) =  -649.840179871     A.U. after    1 cycles

  Exact polarizability: 155.567   2.651 121.525   0.422   0.588  54.152
 Approx polarizability: 234.144  -1.914 195.641   0.399   2.578  86.750

                      1                      2                      3
                      A                      A                      A
 Frequencies --     58.5485                73.0596                87.9703
 Red. masses --      8.9654                 6.3055                 5.6983
 Frc consts  --      0.0181                 0.0198                 0.0260
 IR Inten    --      2.2476                 0.2973                 1.6476

                      4                      5                      6
                      A                      A                      A
 Frequencies --    111.9357               148.3189               162.3276
 Red. masses --      1.0405                 2.7757                 1.1892
 Frc consts  --      0.0077                 0.0360                 0.0185
 IR Inten    --      0.3381                 3.7513                22.6283

                      7                      8                      9
                      A                      A                      A
 Frequencies --    170.4157               212.0187               226.9235
 Red. masses --      5.0609                 1.4079                 2.5882
 Frc consts  --      0.0866                 0.0373                 0.0785
 IR Inten    --      1.9855               103.0130                10.6395

                     10                     11                     12
                      A                      A                      A
 Frequencies --    239.6828               280.9059               309.1130
 Red. masses --      2.9127                 2.6722                 4.4307
 Frc consts  --      0.0986                 0.1242                 0.2494
 IR Inten    --      0.2249                 0.9794                 4.6567

                     13                     14                     15
                      A                      A                      A
 Frequencies --    337.9508               409.6857               427.2493
 Red. masses --      8.0959                 6.3038                 5.5985
 Frc consts  --      0.5448                 0.6234                 0.6021
 IR Inten    --      2.4145                 6.1676                10.8553

                     16                     17                     18
                      A                      A                      A
 Frequencies --    515.8667               523.5974               557.7827
 Red. masses --      3.1850                 4.0057                 5.1704
 Frc consts  --      0.4994                 0.6470                 0.9478
 IR Inten    --      2.4338                11.6975                 2.5157

                     19                     20                     21
                      A                      A                      A
 Frequencies --    562.9742               595.5618               637.9071
 Red. masses --      2.9075                 3.8502                 1.5576
 Frc consts  --      0.5429                 0.8046                 0.3734
 IR Inten    --     13.1828                 2.5801                76.3086

                     22                     23                     24
                      A                      A                      A
 Frequencies --    664.8001               732.8859               774.7287
 Red. masses --      4.0058                 4.8442                 4.4771
 Frc consts  --      1.0431                 1.5330                 1.5832
 IR Inten    --     61.2213                 2.1604                39.3443

                     25                     26                     27
                      A                      A                      A
 Frequencies --    801.9669               858.6867               913.5138
 Red. masses --      5.5772                10.7506                 1.3383
 Frc consts  --      2.1134                 4.6704                 0.6580
 IR Inten    --     15.5180                22.1294                 1.8167

                     28                     29                     30
                      A                      A                      A
 Frequencies --    934.0105               954.7068               975.6112
 Red. masses --      1.4456                 6.5357                 2.9603
 Frc consts  --      0.7430                 3.5098                 1.6601
 IR Inten    --      9.7177                 3.1069                 8.7347

                     31                     32                     33
                      A                      A                      A
 Frequencies --   1029.9861              1071.6579              1079.8618
 Red. masses --      1.5470                 1.7201                 1.5891
 Frc consts  --      0.9669                 1.1639                 1.0918
 IR Inten    --      9.5415                 3.7410                 4.8618

                     34                     35                     36
                      A                      A                      A
 Frequencies --   1081.1238              1138.1386              1189.6720
 Red. masses --      1.4951                 2.1255                 2.5844
 Frc consts  --      1.0296                 1.6222                 2.1551
 IR Inten    --      0.7166                30.0641               371.1438

                     37                     38                     39
                      A                      A                      A
 Frequencies --   1224.2830              1282.0492              1314.0910
 Red. masses --      2.6000                 1.3588                 2.8710
 Frc consts  --      2.2961                 1.3159                 2.9210
 IR Inten    --     27.5237                 0.8228                 4.2534

                     40                     41                     42
                      A                      A                      A
 Frequencies --   1362.5021              1377.0721              1404.1134
 Red. masses --      3.6286                 1.4083                 3.1032
 Frc consts  --      3.9689                 1.5735                 3.6047
 IR Inten    --     24.2265                46.6734               166.8875

                     43                     44                     45
                      A                      A                      A
 Frequencies --   1437.8764              1446.7724              1469.0079
 Red. masses --      1.2549                 1.2793                 3.5545
 Frc consts  --      1.5287                 1.5777                 4.5193
 IR Inten    --      0.8373                 2.8263                19.9570

                     46                     47                     48
                      A                      A                      A
 Frequencies --   1482.6675              1510.7722              1512.7175
 Red. masses --      2.3641                 1.0476                 1.0537
 Frc consts  --      3.0620                 1.4088                 1.4207
 IR Inten    --      6.0866                10.9058                 3.4037

                     49                     50                     51
                      A                      A                      A
 Frequencies --   1530.4664              1542.0146              1645.7850
 Red. masses --      1.1527                 1.2875                 8.1389
 Frc consts  --      1.5908                 1.8038                12.9886
 IR Inten    --     15.7458                 8.6787                 9.4993

                     52                     53                     54
                      A                      A                      A
 Frequencies --   1660.1377              1819.8783              3054.2105
 Red. masses --      5.4997                 9.7656                 1.0366
 Frc consts  --      8.9306                19.0560                 5.6974
 IR Inten    --     18.0939               310.2685                23.4432

                     55                     56                     57
                      A                      A                      A
 Frequencies --   3058.9151              3111.0789              3117.5380
 Red. masses --      1.0375                 1.1006                 1.0986
 Frc consts  --      5.7198                 6.2762                 6.2907
 IR Inten    --     20.3584                12.7769                13.3864

                     58                     59                     60
                      A                      A                      A
 Frequencies --   3139.2808              3141.8479              3218.6534
 Red. masses --      1.1019                 1.1037                 1.0907
 Frc consts  --      6.3981                 6.4190                 6.6571
 IR Inten    --     12.7806                13.1313                 1.4850

                     61                     62                     63
                      A                      A                      A
 Frequencies --   3226.3718              3701.1818              3709.8906
 Red. masses --      1.0907                 1.0642                 1.0685
 Frc consts  --      6.6895                 8.5889                 8.6649
 IR Inten    --      1.8880                79.2505                42.7776

 - Thermochemistry -
 -------------------
 Temperature   298.150 Kelvin.  Pressure   1.00000 Atm.
 Atom     1 has atomic number  6 and mass  12.00000

 Molecular mass:   182.05791 amu.
 Principal axes and moments of inertia in atomic units:
                           1         2         3
     Eigenvalues --  1249.071563534.665904638.36502
           X            0.99991   0.01355  -0.00126
           Y           -0.01355   0.99991  -0.00248
           Z            0.00123   0.00250   1.00000
 This molecule is an asymmetric top.
 Rotational symmetry number  1.
 Warning -- assumption of classical behavior for rotation
           may cause significant error
 Rotational temperatures (Kelvin)      0.06934     0.02450     0.01867
 Rotational constants (GHZ):           1.44487     0.51058     0.38909
 Zero-point vibrational energy     468651.0 (Joules/Mol)
                                  112.01027 (Kcal/Mol)
 Warning -- explicit consideration of  20 degrees of freedom as
           vibrations may cause significant error
 Vibrational temperatures:     84.24   105.12   126.57   161.05   213.40
          (Kelvin)            233.55   245.19   305.05   326.49   344.85
                              404.16   444.74   486.24   589.45   614.72
                              742.22   753.34   802.52   809.99   856.88
                              917.81   956.50  1054.46  1114.66  1153.85
                             1235.46  1314.34  1343.83  1373.61  1403.69
                             1481.92  1541.88  1553.68  1555.50  1637.53
                             1711.67  1761.47  1844.58  1890.68  1960.34
                             1981.30  2020.21  2068.78  2081.58  2113.57
                             2133.23  2173.66  2176.46  2202.00  2218.62
                             2367.92  2388.57  2618.40  4394.33  4401.10
                             4476.15  4485.44  4516.72  4520.42  4630.92
                             4642.03  5325.18  5337.71

 Zero-point correction=                           0.178500 (Hartree/Particle)
 Thermal correction to Energy=                    0.191648
 Thermal correction to Enthalpy=                  0.192593
 Thermal correction to Gibbs Free Energy=         0.138828
 Sum of electronic and zero-point Energies=           -649.661680
 Sum of electronic and thermal Energies=              -649.648531
 Sum of electronic and thermal Enthalpies=            -649.647587
 Sum of electronic and thermal Free Energies=         -649.701352

                     E (Thermal)             CV                S
                      KCal/Mol        Cal/Mol-Kelvin    Cal/Mol-Kelvin
 Total                  120.261             47.942            113.158
 Electronic               0.000              0.000              0.000
 Translational            0.889              2.981             41.504
 Rotational               0.889              2.981             31.394
 Vibrational            118.484             41.980             40.261
 Vibration     1          0.596              1.974              4.506
 Vibration     2          0.599              1.967              4.069
 Vibration     3          0.601              1.958              3.705
 Vibration     4          0.607              1.940              3.235
 Vibration     5          0.618              1.904              2.694
 Vibration     6          0.622              1.889              2.522
 Vibration     7          0.626              1.879              2.431
 Vibration     8          0.643              1.823              2.026
 Vibration     9          0.651              1.800              1.903
 Vibration    10          0.657              1.780              1.805
 Vibration    11          0.681              1.709              1.528
 Vibration    12          0.698              1.656              1.367
 Vibration    13          0.718              1.600              1.222
 Vibration    14          0.774              1.449              0.928
 Vibration    15          0.789              1.411              0.868
 Vibration    16          0.871              1.215              0.620
 Vibration    17          0.879              1.198              0.602
 Vibration    18          0.913              1.123              0.528
 Vibration    19          0.919              1.111              0.518
 Vibration    20          0.953              1.041              0.457

 Optimization completed.
    -- Stationary point found.

 1\1\GINC-NODE310\Freq\RB3LYP\6-31G(d)\C9H10O4\VSC10255\09-Dec-2020\0\\
 #N Geom=AllCheck Guess=TCheck SCRF=Check GenChk RB3LYP/6-31G(d) Freq\\
 CID_150256281_JID_3376_neutraal\\0,1\C,2.5298610261,0.9953819359,0.123
 9752161\C,1.2162299612,0.2607064839,0.0995966259\C,0.0028362195,0.9405
 047456,0.1487665529\C,-1.2127990843,0.2473864077,0.108811674\C,-1.2232
 778636,-1.1481619109,0.0197005279\C,-0.0276755843,-1.86704385,-0.01961
 65303\C,1.1728831732,-1.1416287973,0.0147085169\O,2.3386967711,-1.8712
 266229,-0.1191679884\O,3.081934727,-1.7897444749,1.1601121598\C,-0.010

 Normal termination of Gaussian 16 at Wed Dec  9 23:10:25 2020.

 ----------------------------------------------------------------------
 # B3LYP/6-311++G(d,p) empiricaldispersion=gd3bj scf=xqc pop=npa geom=c
 heck
 ----------------------------------------------------------------------

 ---------------------------------------
 CID_150256281_JID_3376_Energie_neutraal
 ---------------------------------------
 Structure from the checkpoint file:  "JID_3376.chk"
 Charge =  0 Multiplicity = 1

 SCF Done:  E(RB3LYP) =  -650.037712614     A.U. after   15 cycles
 Normal termination of Gaussian 16 at Wed Dec  9 23:12:11 2020.

 ----------------------------------------------------------------------
 # B3LYP/6-311++G(d,p) empiricaldispersion=gd3bj scf=xqc pop=npa geom=c
 heck
 ----------------------------------------------------------------------

 -------------------------------------
 CID_150256281_JID_3376_Energie_kation
 -------------------------------------
 Structure from the checkpoint file:  "JID_3376.chk"
 Charge =  1 Multiplicity = 2

 SCF Done:  E(UB3LYP) =  -649.711615123     A.U. after   33 cycles
 SCF Done:  E(UB3LYP) =  -649.711615123     a.u. after    1 cycles
 Normal termination of Gaussian 16 at Wed Dec  9 23:17:22 2020.
 Gaussian 16:  ES64L-G16RevA.03 25-Dec-2016

 ------------------------------------
 CID_150256281_JID_3376_Energie_anion
 ------------------------------------
 Structure from the checkpoint file:  "JID_3376.chk"
 Charge = -1 Multiplicity = 2

                         Standard orientation:
 ---------------------------------------------------------------------
 Center     Atomic      Atomic             Coordinates (Angstroms)
 Number     Number       Type             X           Y           Z
 ---------------------------------------------------------------------
      1          6           0        1.615634    2.394248   -0.253513
      2          6           0        0.770414    1.151678   -0.166375
      3          6           0       -0.616335    1.221696   -0.072082
      4          6           0       -1.393186    0.058853   -0.008229
      5          6           0       -0.780507   -1.197885   -0.037190
      6          6           0        0.608210   -1.310084   -0.118911
      7          6           0        1.356923   -0.125480   -0.188829
      8          8           0        2.720460   -0.266686   -0.362573
      9          8           0        3.393506    0.220550    0.864297
     10          6           0        1.294013   -2.651557   -0.140749
     11          6           0       -2.865101    0.216100    0.086621
     12          8           0       -3.452855    1.279542    0.115396
     13          8           0       -3.525717   -0.970103    0.140011
     14          1           0        0.997846    3.268853   -0.473931
     15          1           0        2.144237    2.577577    0.688220
     16          1           0        2.371225    2.297827   -1.041811
     17          1           0       -1.119543    2.182895   -0.057944
     18          1           0       -1.389651   -2.093069    0.017876
     19          1           0        4.014405    0.849027    0.453197
     20          1           0        0.583677   -3.450359    0.090221
     21          1           0        1.732577   -2.860065   -1.123391
     22          1           0        2.112292   -2.685911    0.584832
     23          1           0       -4.470600   -0.738618    0.201227
 ---------------------------------------------------------------------

 SCF Done:  E(UB3LYP) =  -650.056678067     A.U. after   27 cycles

 The electronic state is 2-A.
 Alpha  occ. eigenvalues --  -19.02948 -19.02184 -19.01018 -18.95525 -10.14126
 Alpha  occ. eigenvalues --  -10.06254 -10.04056 -10.04001 -10.03689 -10.03608
 Alpha  occ. eigenvalues --  -10.02442 -10.02413 -10.02307  -0.96498  -0.96220
 Alpha  occ. eigenvalues --   -0.86991  -0.78269  -0.70823  -0.64868  -0.62218
 Alpha  occ. eigenvalues --   -0.55920  -0.54701  -0.50397  -0.44866  -0.43078
 Alpha  occ. eigenvalues --   -0.38158  -0.36649  -0.35765  -0.33988  -0.33257
 Alpha  occ. eigenvalues --   -0.31073  -0.29409  -0.28978  -0.28715  -0.28324
 Alpha  occ. eigenvalues --   -0.27431  -0.26429  -0.25822  -0.24599  -0.22601
 Alpha  occ. eigenvalues --   -0.21395  -0.20475  -0.18748  -0.17503  -0.13701
 Alpha  occ. eigenvalues --   -0.13043  -0.10727  -0.09805   0.03884
 Alpha virt. eigenvalues --    0.08568   0.08997   0.09814   0.10566   0.11781
 Alpha virt. eigenvalues --    0.12358   0.12835   0.13537   0.14219   0.14664
 Alpha virt. eigenvalues --    0.15082   0.15329   0.16756   0.17352   0.18157

  Beta  occ. eigenvalues --  -19.02897 -19.01968 -19.00426 -18.95282 -10.13930
  Beta  occ. eigenvalues --  -10.05966 -10.04057 -10.04002 -10.03700 -10.03589
  Beta  occ. eigenvalues --  -10.02380 -10.02300 -10.02126  -0.96266  -0.95151
  Beta  occ. eigenvalues --   -0.86631  -0.77390  -0.70506  -0.64721  -0.61895
  Beta  occ. eigenvalues --   -0.55681  -0.54528  -0.49933  -0.44642  -0.42810
  Beta  occ. eigenvalues --   -0.37527  -0.36269  -0.35454  -0.33645  -0.33012
  Beta  occ. eigenvalues --   -0.30109  -0.29176  -0.28860  -0.28656  -0.28138
  Beta  occ. eigenvalues --   -0.27252  -0.26235  -0.25245  -0.24459  -0.22385
  Beta  occ. eigenvalues --   -0.21008  -0.19942  -0.17809  -0.17049  -0.13442
  Beta  occ. eigenvalues --   -0.12379  -0.09960  -0.08448
  Beta virt. eigenvalues --    0.08390   0.08976   0.09634   0.09828   0.11127
  Beta virt. eigenvalues --    0.11979   0.12415   0.12801   0.13519   0.14637
  Beta virt. eigenvalues --    0.14992   0.15188   0.16420   0.16830   0.17281

 Mulliken charges and spin densities:
               1          2
     1  C   -0.533419  -0.177554
     2  C    0.939210   0.168622
     3  C   -1.501186   0.093943
     4  C    1.275648   0.083985
     5  C   -2.498508   0.119600
     6  C    1.343687  -0.004366
     7  C   -0.171624   0.063961
     8  O   -0.222960   0.090539
     9  O   -0.194672   0.086201
    10  C   -0.480394  -0.001567
    11  C    0.337272   0.114595
    12  O   -0.412293   0.086003
    13  O   -0.224483   0.012009
    14  H    0.126724  -0.003171
    15  H    0.085844   0.075389
    16  H    0.153111   0.008342
    17  H    0.128098  -0.005684
    18  H    0.119497  -0.006912
    19  H    0.043487   0.182812
    20  H    0.129591  -0.000090
    21  H    0.141292   0.003185
    22  H    0.149894   0.011052
    23  H    0.266185  -0.000893
 Sum of Mulliken charges =  -1.00000   1.00000

 Dipole moment (field-independent basis, Debye):
    X=             -0.7169    Y=             -1.2287    Z=             -1.2244  Tot=              1.8769
 Quadrupole moment (field-independent basis, Debye-Ang):
   XX=           -117.2068   YY=            -89.0381   ZZ=            -86.5765
   XY=              9.6953   XZ=             -4.9691   YZ=             -1.2044

 Summary of Natural Population Analysis:

                                       Natural Population
                Natural  -----------------------------------------------
    Atom  No    Charge         Core      Valence    Rydberg      Total
 -----------------------------------------------------------------------
      C    1   -0.29230      0.99964     2.28708    0.00558     3.29230
      C    2   -0.03062      0.99948     2.02271    0.00843     3.03062
      C    3   -0.07096      0.99951     2.06328    0.00817     3.07096
      C    4   -0.05374      0.99945     2.04425    0.01004     3.05374
      C    5   -0.06737      0.99951     2.05952    0.00835     3.06737
      C    6   -0.03488      0.99948     2.02742    0.00798     3.03488
      C    7    0.20151      0.99928     1.78504    0.01416     2.79849
      O    8   -0.16987      0.99986     3.16058    0.00942     4.16987
      O    9   -0.19064      0.99991     3.18427    0.00646     4.19064
      C   10   -0.28890      0.99964     2.28416    0.00510     3.28890
      C   11    0.41998      0.99966     1.55572    0.02464     2.58002
      O   12   -0.31156      0.99987     3.30368    0.00801     4.31156
      O   13   -0.35355      0.99988     3.34774    0.00593     4.35355
      H   14    0.09482      0.00000     0.40415    0.00103     0.40518
      H   15    0.10494      0.00000     0.39338    0.00168     0.39506
      H   16    0.09893      0.00000     0.39960    0.00147     0.40107
      H   17    0.10193      0.00000     0.39695    0.00112     0.39807
      H   18    0.09817      0.00000     0.40074    0.00110     0.40183
      H   19    0.21616      0.00000     0.27945    0.00439     0.28384
      H   20    0.09233      0.00000     0.40674    0.00093     0.40767
      H   21    0.09924      0.00000     0.39968    0.00108     0.40076
      H   22    0.10589      0.00000     0.39309    0.00102     0.39411
      H   23    0.23048      0.00000     0.26623    0.00329     0.26952
 =======================================================================
   * Total *   -0.00000     12.99518    34.86545    0.13937    48.00000

 Normal termination of Gaussian 16 at Wed Dec  9 23:21:35 2020.
