 Gaussian 16, Revision A.03,

 -----------------------------------------------------------
 # opt freq B3LYP/6-31G(d) empiricaldispersion=gd3bj scf=xqc
 -----------------------------------------------------------

 ------------------------------
 CID_64251259_JID_7923_neutraal
 ------------------------------
 Symbolic Z-matrix:
 Charge =  0 Multiplicity = 1

 SCF Done:  E(RB3LYP) =  -734.154795391     A.U. after   15 cycles
 SCF Done:  E(RB3LYP) =  -734.157541341     A.U. after   15 cycles
 SCF Done:  E(RB3LYP) =  -734.157711821     A.U. after   13 cycles
 SCF Done:  E(RB3LYP) =  -734.158024843     A.U. after   12 cycles
 SCF Done:  E(RB3LYP) =  -734.160049108     A.U. after   12 cycles
 SCF Done:  E(RB3LYP) =  -734.160344830     A.U. after   12 cycles
 SCF Done:  E(RB3LYP) =  -734.160427712     A.U. after   12 cycles
 SCF Done:  E(RB3LYP) =  -734.160498186     A.U. after   11 cycles
 SCF Done:  E(RB3LYP) =  -734.160539040     A.U. after   11 cycles
 SCF Done:  E(RB3LYP) =  -734.160548938     A.U. after   10 cycles
 SCF Done:  E(RB3LYP) =  -734.160550925     A.U. after    9 cycles
 SCF Done:  E(RB3LYP) =  -734.160551627     A.U. after    8 cycles
 SCF Done:  E(RB3LYP) =  -734.160552078     A.U. after    8 cycles
 SCF Done:  E(RB3LYP) =  -734.160552214     A.U. after    7 cycles
 SCF Done:  E(RB3LYP) =  -734.160552298     A.U. after    7 cycles
 Optimization completed.
    -- Stationary point found.
 Normal termination of Gaussian 16 at Fri Dec 11 13:06:51 2020.

 --------------------------------------------------------------------
 #N Geom=AllCheck Guess=TCheck SCRF=Check GenChk RB3LYP/6-31G(d) Freq
 --------------------------------------------------------------------

 Structure from the checkpoint file:  "JID_7923.chk"
 ------------------------------
 CID_64251259_JID_7923_neutraal
 ------------------------------
 Charge =  0 Multiplicity = 1

 SCF Done:  E(RB3LYP) =  -734.160552298     A.U. after    1 cycles

  Exact polarizability: 168.713  11.776 156.383  21.974  -7.371 132.090
 Approx polarizability: 223.355  22.583 249.905  40.110 -26.089 212.107

                      1                      2                      3
                      A                      A                      A
 Frequencies --     26.3618                41.1088                51.2960
 Red. masses --      4.3577                 3.7201                 4.5016
 Frc consts  --      0.0018                 0.0037                 0.0070
 IR Inten    --      0.0908                 0.0461                 1.5213

                      4                      5                      6
                      A                      A                      A
 Frequencies --     72.4557               102.3044               134.0469
 Red. masses --      5.1944                 3.9080                 3.4171
 Frc consts  --      0.0161                 0.0241                 0.0362
 IR Inten    --      2.1671                 0.9492                 1.4534

                      7                      8                      9
                      A                      A                      A
 Frequencies --    161.5081               172.1426               236.8012
 Red. masses --      2.5530                 4.0344                 1.1567
 Frc consts  --      0.0392                 0.0704                 0.0382
 IR Inten    --      0.5774                 2.9573                 0.0554

                     10                     11                     12
                      A                      A                      A
 Frequencies --    253.0495               263.2120               284.8086
 Red. masses --      3.1818                 3.6605                 2.1348
 Frc consts  --      0.1200                 0.1494                 0.1020
 IR Inten    --      0.8444                 2.3603                 0.7954

                     13                     14                     15
                      A                      A                      A
 Frequencies --    308.3698               331.5256               371.2237
 Red. masses --      3.2009                 2.9568                 2.8256
 Frc consts  --      0.1793                 0.1915                 0.2294
 IR Inten    --      0.3301                 0.9278                 6.9289

                     16                     17                     18
                      A                      A                      A
 Frequencies --    417.4778               425.2302               446.5471
 Red. masses --      3.6311                 3.1760                 1.7578
 Frc consts  --      0.3729                 0.3384                 0.2065
 IR Inten    --      0.2527                 0.5667                 0.3465

                     19                     20                     21
                      A                      A                      A
 Frequencies --    447.8668               503.9989               523.3910
 Red. masses --      4.4121                 2.8145                 2.9167
 Frc consts  --      0.5214                 0.4212                 0.4707
 IR Inten    --      7.9770                 1.1488                 4.5885

                     22                     23                     24
                      A                      A                      A
 Frequencies --    527.0411               562.9073               573.8289
 Red. masses --      2.6608                 3.2771                 5.2401
 Frc consts  --      0.4355                 0.6118                 1.0166
 IR Inten    --      1.8676                13.7599                12.2937

                     25                     26                     27
                      A                      A                      A
 Frequencies --    628.5319               660.7396               705.6300
 Red. masses --      5.7366                 4.2834                 2.4666
 Frc consts  --      1.3352                 1.1018                 0.7236
 IR Inten    --      2.8647                 3.9926                10.1864

                     28                     29                     30
                      A                      A                      A
 Frequencies --    767.4437               794.1578               805.8784
 Red. masses --      1.5504                 2.0316                 4.3430
 Frc consts  --      0.5380                 0.7549                 1.6618
 IR Inten    --     59.5022                 0.7686                17.5771

                     31                     32                     33
                      A                      A                      A
 Frequencies --    828.5784               839.3532               868.4371
 Red. masses --      2.9473                 1.2628                 1.7320
 Frc consts  --      1.1922                 0.5242                 0.7696
 IR Inten    --      1.3528                 0.3516                 2.8692

                     34                     35                     36
                      A                      A                      A
 Frequencies --    879.0365               899.6811               903.7637
 Red. masses --      1.9175                 1.7357                 1.4917
 Frc consts  --      0.8730                 0.8277                 0.7179
 IR Inten    --      2.3613                10.3152                 4.5231

                     37                     38                     39
                      A                      A                      A
 Frequencies --    922.9401               961.9840               966.6690
 Red. masses --      2.1094                 1.3235                 2.1077
 Frc consts  --      1.0586                 0.7216                 1.1604
 IR Inten    --      0.7659                 0.1120                 2.7281

                     40                     41                     42
                      A                      A                      A
 Frequencies --    985.5975               993.7047               996.4808
 Red. masses --      1.2288                 1.4482                 1.6347
 Frc consts  --      0.7033                 0.8425                 0.9564
 IR Inten    --      1.0466                 6.5732                 2.0034

                     43                     44                     45
                      A                      A                      A
 Frequencies --   1017.3595              1023.9759              1056.4359
 Red. masses --      5.6443                 1.9724                 2.3480
 Frc consts  --      3.4420                 1.2185                 1.5440
 IR Inten    --      0.4397                 1.4628                 0.9920

                     46                     47                     48
                      A                      A                      A
 Frequencies --   1064.6156              1089.8096              1103.0466
 Red. masses --      1.8074                 4.1599                 2.0695
 Frc consts  --      1.2070                 2.9109                 1.4836
 IR Inten    --      3.8508                46.5774                 1.8878

                     49                     50                     51
                      A                      A                      A
 Frequencies --   1105.8352              1115.2302              1121.9022
 Red. masses --      1.7730                 1.4845                 1.6137
 Frc consts  --      1.2775                 1.0879                 1.1967
 IR Inten    --      6.5520                 1.3317                 8.5029

                     52                     53                     54
                      A                      A                      A
 Frequencies --   1178.1167              1183.6795              1190.5520
 Red. masses --      2.4257                 2.0275                 1.1033
 Frc consts  --      1.9837                 1.6737                 0.9213
 IR Inten    --      9.7035                 0.1532                 2.8146

                     55                     56                     57
                      A                      A                      A
 Frequencies --   1215.6653              1228.3042              1249.7397
 Red. masses --      1.1522                 2.6311                 1.4244
 Frc consts  --      1.0033                 2.3389                 1.3108
 IR Inten    --      8.5112                90.7877                26.7981

                     58                     59                     60
                      A                      A                      A
 Frequencies --   1282.4478              1297.7871              1306.6454
 Red. masses --      3.0087                 1.3278                 1.5815
 Frc consts  --      2.9154                 1.3176                 1.5908
 IR Inten    --     78.4235                24.4049                87.3087

                     61                     62                     63
                      A                      A                      A
 Frequencies --   1308.0844              1320.3394              1337.1184
 Red. masses --      1.3226                 1.2172                 1.2692
 Frc consts  --      1.3334                 1.2502                 1.3370
 IR Inten    --      6.6132                 3.3306                 1.6705

                     64                     65                     66
                      A                      A                      A
 Frequencies --   1353.8611              1356.1351              1377.0166
 Red. masses --      1.9498                 1.2989                 2.1433
 Frc consts  --      2.1057                 1.4074                 2.3945
 IR Inten    --     23.1092                 3.9041                 8.4264

                     67                     68                     69
                      A                      A                      A
 Frequencies --   1384.1978              1392.2171              1396.6882
 Red. masses --      1.3213                 1.4143                 1.3438
 Frc consts  --      1.4916                 1.6151                 1.5445
 IR Inten    --      0.4181                 9.4531                 1.2425

                     70                     71                     72
                      A                      A                      A
 Frequencies --   1398.5425              1408.4992              1421.4875
 Red. masses --      1.4102                 1.4912                 1.6137
 Frc consts  --      1.6252                 1.7430                 1.9212
 IR Inten    --      1.1416                 3.0509                 2.4435

                     73                     74                     75
                      A                      A                      A
 Frequencies --   1439.6364              1504.7766              1511.5616
 Red. masses --      1.2412                 1.6142                 1.2167
 Frc consts  --      1.5156                 2.1535                 1.6378
 IR Inten    --      2.1941                 2.5175                 6.8687

                     76                     77                     78
                      A                      A                      A
 Frequencies --   1513.6713              1515.6893              1522.6237
 Red. masses --      1.2004                 1.0897                 1.0934
 Frc consts  --      1.6204                 1.4749                 1.4935
 IR Inten    --      2.8825                 6.5576                 0.9171

                     79                     80                     81
                      A                      A                      A
 Frequencies --   1527.5208              1530.6788              1536.4759
 Red. masses --      1.0471                 1.0596                 1.0949
 Frc consts  --      1.4395                 1.4627                 1.5229
 IR Inten    --      5.6951                 2.9591                 4.4566

                     82                     83                     84
                      A                      A                      A
 Frequencies --   1549.7721              1649.3167              1666.1150
 Red. masses --      2.2313                 5.7983                 5.7018
 Frc consts  --      3.1575                 9.2930                 9.3256
 IR Inten    --     96.7900                20.9393                67.1145

                     85                     86                     87
                      A                      A                      A
 Frequencies --   1797.9437              2999.9048              3019.8274
 Red. masses --     11.3635                 1.0818                 1.0660
 Frc consts  --     21.6428                 5.7359                 5.7276
 IR Inten    --    134.5192                11.5112                22.8950

                     88                     89                     90
                      A                      A                      A
 Frequencies --   3029.9529              3032.4784              3039.6545
 Red. masses --      1.0639                 1.0600                 1.0490
 Frc consts  --      5.7549                 5.7434                 5.7106
 IR Inten    --     28.8929                16.3248                49.4139

                     91                     92                     93
                      A                      A                      A
 Frequencies --   3040.6146              3065.1121              3065.5833
 Red. masses --      1.0725                 1.0666                 1.0571
 Frc consts  --      5.8423                 5.9041                 5.8530
 IR Inten    --     13.3250                18.1958                27.3992

                     94                     95                     96
                      A                      A                      A
 Frequencies --   3069.3833              3079.7957              3085.2734
 Red. masses --      1.0965                 1.0947                 1.0996
 Frc consts  --      6.0866                 6.1178                 6.1668
 IR Inten    --     44.8725                38.0099                23.9507

                     97                     98                     99
                      A                      A                      A
 Frequencies --   3104.3475              3109.7973              3115.8266
 Red. masses --      1.1015                 1.1024                 1.1029
 Frc consts  --      6.2544                 6.2816                 6.3083
 IR Inten    --     52.8421                36.6086                30.3392

                    100                    101                    102
                      A                      A                      A
 Frequencies --   3116.9590              3187.7712              3195.7624
 Red. masses --      1.1083                 1.0853                 1.0896
 Frc consts  --      6.3441                 6.4977                 6.5562
 IR Inten    --     14.9270                 1.2701                14.9223

                    103                    104                    105
                      A                      A                      A
 Frequencies --   3210.6825              3218.1387              3237.0222
 Red. masses --      1.0930                 1.0962                 1.0922
 Frc consts  --      6.6384                 6.6888                 6.7428
 IR Inten    --     26.9933                 9.7847                 1.1936

 - Thermochemistry -
 -------------------
 Temperature   298.150 Kelvin.  Pressure   1.00000 Atm.
 Atom     1 has atomic number  6 and mass  12.00000

 Molecular mass:   232.14633 amu.
 Principal axes and moments of inertia in atomic units:
                           1         2         3
     Eigenvalues --  2504.067795995.342126715.95455
           X            0.99986  -0.01303   0.01028
           Y            0.01281   0.99971   0.02060
           Z           -0.01054  -0.02046   0.99974
 This molecule is an asymmetric top.
 Rotational symmetry number  1.
 Warning -- assumption of classical behavior for rotation
           may cause significant error
 Rotational temperatures (Kelvin)      0.03459     0.01445     0.01290
 Rotational constants (GHZ):           0.72072     0.30102     0.26872
 Zero-point vibrational energy     850677.2 (Joules/Mol)
                                  203.31672 (Kcal/Mol)
 Warning -- explicit consideration of  24 degrees of freedom as
           vibrations may cause significant error
 Vibrational temperatures:     37.93    59.15    73.80   104.25   147.19
          (Kelvin)            192.86   232.37   247.67   340.70   364.08
                              378.70   409.78   443.68   476.99   534.11
                              600.66   611.81   642.48   644.38   725.14
                              753.04   758.29   809.90   825.61   904.32
                              950.66  1015.24  1104.18  1142.62  1159.48
                             1192.14  1207.64  1249.49  1264.74  1294.44
                             1300.31  1327.90  1384.08  1390.82  1418.06
                             1429.72  1433.71  1463.75  1473.27  1519.98
                             1531.74  1567.99  1587.04  1591.05  1604.57
                             1614.17  1695.05  1703.05  1712.94  1749.07
                             1767.26  1798.10  1845.16  1867.23  1879.97
                             1882.04  1899.67  1923.82  1947.90  1951.18
                             1981.22  1991.55  2003.09  2009.52  2012.19
                             2026.52  2045.20  2071.32  2165.04  2174.80
                             2177.84  2180.74  2190.72  2197.76  2202.31
                             2210.65  2229.78  2373.00  2397.17  2586.84
                             4316.19  4344.86  4359.43  4363.06  4373.38
                             4374.77  4410.01  4410.69  4416.16  4431.14
                             4439.02  4466.46  4474.30  4482.98  4484.61
                             4586.49  4597.99  4619.46  4630.18  4657.35

 Zero-point correction=                           0.324006 (Hartree/Particle)
 Thermal correction to Energy=                    0.339733
 Thermal correction to Enthalpy=                  0.340677
 Thermal correction to Gibbs Free Energy=         0.279943
 Sum of electronic and zero-point Energies=           -733.836546
 Sum of electronic and thermal Energies=              -733.820820
 Sum of electronic and thermal Enthalpies=            -733.819876
 Sum of electronic and thermal Free Energies=         -733.880609

                     E (Thermal)             CV                S
                      KCal/Mol        Cal/Mol-Kelvin    Cal/Mol-Kelvin
 Total                  213.185             61.732            127.824
 Electronic               0.000              0.000              0.000
 Translational            0.889              2.981             42.228
 Rotational               0.889              2.981             32.977
 Vibrational            211.408             55.771             52.618
 Vibration     1          0.593              1.985              6.086
 Vibration     2          0.594              1.981              5.205
 Vibration     3          0.596              1.977              4.767
 Vibration     4          0.599              1.967              4.086
 Vibration     5          0.604              1.947              3.410
 Vibration     6          0.613              1.919              2.887
 Vibration     7          0.622              1.890              2.532
 Vibration     8          0.626              1.877              2.412
 Vibration     9          0.656              1.784              1.827
 Vibration    10          0.664              1.758              1.709
 Vibration    11          0.670              1.740              1.640
 Vibration    12          0.683              1.702              1.505
 Vibration    13          0.698              1.658              1.371
 Vibration    14          0.714              1.613              1.253
 Vibration    15          0.743              1.531              1.075
 Vibration    16          0.781              1.432              0.901
 Vibration    17          0.787              1.415              0.874
 Vibration    18          0.806              1.369              0.806
 Vibration    19          0.807              1.366              0.802
 Vibration    20          0.859              1.241              0.648
 Vibration    21          0.878              1.198              0.602
 Vibration    22          0.882              1.190              0.594
 Vibration    23          0.919              1.112              0.518
 Vibration    24          0.930              1.088              0.497

 Optimization completed.
    -- Stationary point found.
 Normal termination of Gaussian 16 at Fri Dec 11 13:21:51 2020.

 ----------------------------------------------------------------------
 # B3LYP/6-311++G(d,p) empiricaldispersion=gd3bj scf=xqc pop=npa geom=c
 heck
 ----------------------------------------------------------------------

 --------------------------------------
 CID_64251259_JID_7923_Energie_neutraal
 --------------------------------------
 Structure from the checkpoint file:  "JID_7923.chk"
 Charge =  0 Multiplicity = 1

 SCF Done:  E(RB3LYP) =  -734.360666705     A.U. after   14 cycles
 Normal termination of Gaussian 16 at Fri Dec 11 13:28:51 2020.

 ----------------------------------------------------------------------
 # B3LYP/6-311++G(d,p) empiricaldispersion=gd3bj scf=xqc pop=npa geom=c
 heck
 ----------------------------------------------------------------------

 ------------------------------------
 CID_64251259_JID_7923_Energie_kation
 ------------------------------------
 Structure from the checkpoint file:  "JID_7923.chk"
 Charge =  1 Multiplicity = 2

 SCF Done:  E(UB3LYP) =  -734.063601909     A.U. after   22 cycles
 Normal termination of Gaussian 16 at Fri Dec 11 13:43:51 2020.
 Gaussian 16:  ES64L-G16RevA.03 25-Dec-2016

 ----------------------------------------------------------------------
 # B3LYP/6-311++G(d,p) empiricaldispersion=gd3bj scf=xqc pop=npa geom=c
 heck
 ----------------------------------------------------------------------

 -----------------------------------
 CID_64251259_JID_7923_Energie_anion
 -----------------------------------
 Structure from the checkpoint file:  "JID_7923.chk"
 Charge = -1 Multiplicity = 2

                         Standard orientation:
 ---------------------------------------------------------------------
 Center     Atomic      Atomic             Coordinates (Angstroms)
 Number     Number       Type             X           Y           Z
 ---------------------------------------------------------------------
      1          6           0        4.138551   -1.060277    1.306308
      2          6           0        3.323607   -0.514505    0.131399
      3          6           0        2.722116   -1.647374   -0.715090
      4          6           0        1.881151   -1.110783   -1.879619
      5          6           0        0.775345   -0.173738   -1.381536
      6          6           0        1.384462    0.984111   -0.554050
      7          6           0        2.215787    0.433601    0.618414
      8          6           0        0.311254    1.982658   -0.148247
      9          8           0        0.042733    2.946779   -0.842517
     10          6           0       -0.429129    1.807186    1.187811
     11          8           0       -0.838786    0.478500    1.475022
     12          6           0       -1.906473   -0.030360    0.777583
     13          6           0       -2.292754   -1.326207    1.140438
     14          6           0       -3.355390   -1.940064    0.486786
     15          6           0       -4.043311   -1.271842   -0.530800
     16          6           0       -3.650787    0.016294   -0.885498
     17          6           0       -2.583564    0.648491   -0.240686
     18          1           0        3.501798   -1.644456    1.982726
     19          1           0        4.945504   -1.715627    0.958453
     20          1           0        4.590058   -0.249488    1.890086
     21          1           0        3.999132    0.064943   -0.517574
     22          1           0        3.523728   -2.295944   -1.091038
     23          1           0        2.088408   -2.273401   -0.068880
     24          1           0        1.436799   -1.940938   -2.442018
     25          1           0        2.531595   -0.567212   -2.579617
     26          1           0        0.071933   -0.740656   -0.762804
     27          1           0        0.204910    0.238026   -2.221493
     28          1           0        2.043691    1.548186   -1.227377
     29          1           0        1.557978   -0.108828    1.308702
     30          1           0        2.665182    1.260760    1.184809
     31          1           0        0.261433    2.070323    1.996513
     32          1           0       -1.272027    2.505905    1.209877
     33          1           0       -1.747326   -1.827278    1.933653
     34          1           0       -3.648639   -2.945844    0.774380
     35          1           0       -4.872194   -1.753192   -1.040528
     36          1           0       -4.172234    0.546112   -1.677696
     37          1           0       -2.286495    1.643237   -0.549487
 ---------------------------------------------------------------------

 SCF Done:  E(UB3LYP) =  -734.351722325     A.U. after   33 cycles
 SCF Done:  E(UB3LYP) =  -734.351722326     a.u. after    1 cycles

 The electronic state is 2-A.
 Alpha  occ. eigenvalues --  -19.04986 -18.97529 -10.13172 -10.11807 -10.11174
 Alpha  occ. eigenvalues --  -10.07352 -10.07247 -10.07205 -10.06800 -10.06717
 Alpha  occ. eigenvalues --  -10.06693 -10.06372 -10.06148 -10.06067 -10.06025
 Alpha  occ. eigenvalues --  -10.06001 -10.05561  -0.96658  -0.91167  -0.75183
 Alpha  occ. eigenvalues --   -0.73624  -0.66940  -0.66020  -0.64717  -0.64237
 Alpha  occ. eigenvalues --   -0.60035  -0.57667  -0.52432  -0.51128  -0.49676
 Alpha  occ. eigenvalues --   -0.48771  -0.45471  -0.44527  -0.41906  -0.38879
 Alpha  occ. eigenvalues --   -0.38280  -0.37161  -0.35731  -0.34972  -0.34337
 Alpha  occ. eigenvalues --   -0.32955  -0.32480  -0.32224  -0.31595  -0.31426
 Alpha  occ. eigenvalues --   -0.29055  -0.28988  -0.28476  -0.27066  -0.26769
 Alpha  occ. eigenvalues --   -0.26620  -0.25482  -0.24412  -0.23612  -0.23353
 Alpha  occ. eigenvalues --   -0.22995  -0.22518  -0.21073  -0.20675  -0.19654
 Alpha  occ. eigenvalues --   -0.15640  -0.13475  -0.11477   0.04614
 Alpha virt. eigenvalues --    0.06330   0.06521   0.07835   0.07968   0.08426
 Alpha virt. eigenvalues --    0.08699   0.08821   0.09646   0.09940   0.10032
 Alpha virt. eigenvalues --    0.10797   0.11076   0.11791   0.11879   0.12195

  Beta  occ. eigenvalues --  -19.04942 -18.97213 -10.13179 -10.11827 -10.10834
  Beta  occ. eigenvalues --  -10.07302 -10.07202 -10.07181 -10.06807 -10.06705
  Beta  occ. eigenvalues --  -10.06653 -10.06400 -10.06127 -10.06052 -10.06007
  Beta  occ. eigenvalues --  -10.05984 -10.05534  -0.96559  -0.90553  -0.75104
  Beta  occ. eigenvalues --   -0.73576  -0.66815  -0.65940  -0.64610  -0.64172
  Beta  occ. eigenvalues --   -0.59891  -0.57615  -0.52217  -0.50995  -0.49572
  Beta  occ. eigenvalues --   -0.48717  -0.45429  -0.44337  -0.41669  -0.38783
  Beta  occ. eigenvalues --   -0.38152  -0.37106  -0.35624  -0.34850  -0.34288
  Beta  occ. eigenvalues --   -0.32792  -0.32412  -0.32067  -0.31376  -0.31338
  Beta  occ. eigenvalues --   -0.28928  -0.28843  -0.28404  -0.26858  -0.26564
  Beta  occ. eigenvalues --   -0.26418  -0.25353  -0.24291  -0.23381  -0.23194
  Beta  occ. eigenvalues --   -0.22819  -0.22062  -0.20972  -0.20522  -0.19430
  Beta  occ. eigenvalues --   -0.15327  -0.13302  -0.11275
  Beta virt. eigenvalues --    0.06652   0.07020   0.07991   0.08219   0.08469
  Beta virt. eigenvalues --    0.08734   0.09024   0.09691   0.09958   0.10200
  Beta virt. eigenvalues --    0.10415   0.11056   0.11281   0.11796   0.11980

 Mulliken charges and spin densities:
               1          2
     1  C    0.395937  -1.108677
     2  C   -0.793691   1.235356
     3  C    0.166868  -0.595429
     4  C   -0.379052  -0.149101
     5  C   -0.296925   0.089665
     6  C    0.858882  -0.034844
     7  C   -0.339004  -0.620913
     8  C   -0.414517   0.195734
     9  O   -0.298773   0.108378
    10  C   -0.366265   0.016432
    11  O   -0.063299   0.022386
    12  C    0.167797  -0.368139
    13  C   -0.648363   0.762394
    14  C    0.198903  -0.419489
    15  C    0.455453  -0.872417
    16  C   -0.320840   0.193877
    17  C    0.083541  -0.045318
    18  H    0.073488   0.061218
    19  H   -0.353970   0.499255
    20  H   -0.053513   0.176205
    21  H    0.042748   0.114690
    22  H   -0.215833   0.380571
    23  H   -0.032567   0.165573
    24  H   -0.137858   0.309191
    25  H    0.084854   0.036483
    26  H    0.448099  -0.314987
    27  H    0.100667   0.080296
    28  H    0.243169  -0.017800
    29  H    0.191419   0.016697
    30  H    0.140448  -0.022005
    31  H    0.173065   0.002211
    32  H    0.192945   0.018670
    33  H    0.063875   0.087174
    34  H   -0.345877   0.513346
    35  H   -0.128577   0.260585
    36  H   -0.056148   0.226779
    37  H    0.162912  -0.004048
 Sum of Mulliken charges =  -1.00000   1.00000

 Dipole moment (field-independent basis, Debye):
    X=             -0.3818    Y=              2.0432    Z=              1.7882  Tot=              2.7419
 Quadrupole moment (field-independent basis, Debye-Ang):
   XX=           -177.1798   YY=           -151.4597   ZZ=           -129.2764
   XY=              5.1044   XZ=             -0.4899   YZ=              4.8286

 Summary of Natural Population Analysis:

                                       Natural Population
                Natural  -----------------------------------------------
    Atom  No    Charge         Core      Valence    Rydberg      Total
 -----------------------------------------------------------------------
      C    1   -0.28221      0.99965     2.27674    0.00582     3.28221
      C    2   -0.10989      0.99960     2.10129    0.00900     3.10989
      C    3   -0.18861      0.99961     2.17975    0.00925     3.18861
      C    4   -0.18693      0.99963     2.17854    0.00876     3.18693
      C    5   -0.18258      0.99961     2.17468    0.00829     3.18258
      C    6   -0.15221      0.99955     2.14171    0.01095     3.15221
      C    7   -0.18985      0.99960     2.18124    0.00901     3.18985
      C    8    0.32347      0.99964     1.65570    0.02119     2.67653
      O    9   -0.26874      0.99988     3.26205    0.00681     4.26874
      C   10   -0.05575      0.99952     2.04513    0.01110     3.05575
      O   11   -0.27463      0.99986     3.26623    0.00853     4.27463
      C   12    0.15788      0.99938     1.82908    0.01366     2.84212
      C   13   -0.11834      0.99952     2.10875    0.01007     3.11834
      C   14   -0.09024      0.99957     2.08059    0.01009     3.09024
      C   15   -0.12558      0.99956     2.11601    0.01001     3.12558
      C   16   -0.08269      0.99958     2.07324    0.00988     3.08269
      C   17   -0.14514      0.99951     2.13721    0.00842     3.14514
      H   18    0.09632      0.00000     0.40275    0.00093     0.40368
      H   19    0.09971      0.00000     0.39916    0.00113     0.40029
      H   20    0.09605      0.00000     0.40319    0.00076     0.40395
      H   21    0.08883      0.00000     0.40938    0.00179     0.41117
      H   22    0.09828      0.00000     0.40054    0.00119     0.40172
      H   23    0.09402      0.00000     0.40464    0.00135     0.40598
      H   24    0.09891      0.00000     0.40022    0.00087     0.40109
      H   25    0.09035      0.00000     0.40841    0.00123     0.40965
      H   26    0.10035      0.00000     0.39771    0.00194     0.39965
      H   27    0.10225      0.00000     0.39676    0.00099     0.39775
      H   28    0.10245      0.00000     0.39571    0.00184     0.39755
      H   29    0.10305      0.00000     0.39548    0.00147     0.39695
      H   30    0.09553      0.00000     0.40359    0.00088     0.40447
      H   31    0.09932      0.00000     0.39983    0.00085     0.40068
      H   32    0.09242      0.00000     0.40572    0.00186     0.40758
      H   33    0.10393      0.00000     0.39455    0.00152     0.39607
      H   34    0.09913      0.00000     0.39986    0.00101     0.40087
      H   35    0.09895      0.00000     0.40020    0.00086     0.40105
      H   36    0.09819      0.00000     0.40102    0.00079     0.40181
      H   37    0.11402      0.00000     0.38371    0.00227     0.38598
 =======================================================================
   * Total *    0.00000     16.99326    45.81038    0.19635    63.00000

 Normal termination of Gaussian 16 at Fri Dec 11 14:06:53 2020.
