 Gaussian 16, Revision A.03,

 -----------------------------------------------------------
 # opt freq B3LYP/6-31G(d) empiricaldispersion=gd3bj scf=xqc
 -----------------------------------------------------------

 ------------------------------
 CID_57878645_JID_1542_neutraal
 ------------------------------
 Symbolic Z-matrix:
 Charge =  0 Multiplicity = 1

 SCF Done:  E(RB3LYP) =  -511.598217284     A.U. after   14 cycles
 SCF Done:  E(RB3LYP) =  -511.609646928     A.U. after   12 cycles
 SCF Done:  E(RB3LYP) =  -511.611405987     A.U. after   11 cycles
 SCF Done:  E(RB3LYP) =  -511.611858431     A.U. after   11 cycles
 SCF Done:  E(RB3LYP) =  -511.612316236     A.U. after   12 cycles
 SCF Done:  E(RB3LYP) =  -511.612401331     A.U. after   10 cycles
 SCF Done:  E(RB3LYP) =  -511.612437872     A.U. after   12 cycles
 SCF Done:  E(RB3LYP) =  -511.612656614     A.U. after   11 cycles
 SCF Done:  E(RB3LYP) =  -511.612694368     A.U. after   11 cycles
 SCF Done:  E(RB3LYP) =  -511.612717539     A.U. after   10 cycles
 SCF Done:  E(RB3LYP) =  -511.612733395     A.U. after   10 cycles
 SCF Done:  E(RB3LYP) =  -511.612735148     A.U. after    9 cycles
 SCF Done:  E(RB3LYP) =  -511.612735513     A.U. after    8 cycles
 SCF Done:  E(RB3LYP) =  -511.612735593     A.U. after    7 cycles
 SCF Done:  E(RB3LYP) =  -511.612735645     A.U. after    7 cycles
 Optimization completed.
    -- Stationary point found.
 Normal termination of Gaussian 16 at Mon Dec 14 16:26:32 2020.

 --------------------------------------------------------------------
 #N Geom=AllCheck Guess=TCheck SCRF=Check GenChk RB3LYP/6-31G(d) Freq
 --------------------------------------------------------------------

 Structure from the checkpoint file:  "JID_1542.chk"
 ------------------------------
 CID_57878645_JID_1542_neutraal
 ------------------------------
 Charge =  0 Multiplicity = 1

 SCF Done:  E(RB3LYP) =  -511.612735645     A.U. after    1 cycles

  Exact polarizability: 134.791  -1.927  96.504   0.069  -0.173  47.424
 Approx polarizability: 181.028 -10.263 173.478   1.303   1.493  70.934

 ******    1 imaginary frequencies (negative Signs) ******

                      1                      2                      3
                      A                      A                      A
 Frequencies --    -38.1244                77.7408               126.5637
 Red. masses --      1.7153                 2.8492                 1.1102
 Frc consts  --      0.0015                 0.0101                 0.0105
 IR Inten    --     72.4361                 1.1469                 0.3581

                      4                      5                      6
                      A                      A                      A
 Frequencies --    143.9958               160.0824               180.6010
 Red. masses --      3.0594                 3.2252                 1.3138
 Frc consts  --      0.0374                 0.0487                 0.0252
 IR Inten    --      8.6892                 1.7990                 4.4470

                      7                      8                      9
                      A                      A                      A
 Frequencies --    243.5787               279.2288               300.7363
 Red. masses --      2.4799                 2.9206                 5.3111
 Frc consts  --      0.0867                 0.1342                 0.2830
 IR Inten    --      1.0004                 2.9548                 0.9035

                     10                     11                     12
                      A                      A                      A
 Frequencies --    362.2420               453.8677               542.4157
 Red. masses --      3.5026                 2.6266                 4.6123
 Frc consts  --      0.2708                 0.3188                 0.7995
 IR Inten    --      7.8917                30.3486                 1.3906

                     13                     14                     15
                      A                      A                      A
 Frequencies --    565.0411               594.1126               615.3057
 Red. masses --      1.8933                 5.0704                 5.0484
 Frc consts  --      0.3562                 1.0545                 1.1261
 IR Inten    --     94.4295                 2.6987                 0.1119

                     16                     17                     18
                      A                      A                      A
 Frequencies --    656.4909               724.1413               740.9829
 Red. masses --      5.4061                 6.1126                 2.3981
 Frc consts  --      1.3727                 1.8885                 0.7758
 IR Inten    --     42.6253                 0.6172                41.7495

                     19                     20                     21
                      A                      A                      A
 Frequencies --    779.7842               812.6911               848.8381
 Red. masses --      1.2888                 5.0331                 5.6746
 Frc consts  --      0.4617                 1.9586                 2.4090
 IR Inten    --     22.2059                10.6649                 5.5999

                     22                     23                     24
                      A                      A                      A
 Frequencies --    951.1058              1023.8354              1061.2356
 Red. masses --      5.4332                 1.6327                 3.8790
 Frc consts  --      2.8957                 1.0084                 2.5739
 IR Inten    --     32.8121                 2.8172                 3.9917

                     25                     26                     27
                      A                      A                      A
 Frequencies --   1078.1409              1088.9170              1159.0127
 Red. masses --      1.4586                 2.4180                 2.0098
 Frc consts  --      0.9989                 1.6892                 1.5907
 IR Inten    --      3.1901                36.9118                 7.7196

                     28                     29                     30
                      A                      A                      A
 Frequencies --   1165.5437              1176.8823              1195.8553
 Red. masses --      2.4298                 1.8206                 2.1131
 Frc consts  --      1.9448                 1.4857                 1.7805
 IR Inten    --      5.5280                 1.9142                 7.3607

                     31                     32                     33
                      A                      A                      A
 Frequencies --   1233.7103              1321.6179              1378.4098
 Red. masses --      3.5680                 3.4432                 1.8697
 Frc consts  --      3.1997                 3.5434                 2.0930
 IR Inten    --    167.0352                 7.9990                12.6295

                     34                     35                     36
                      A                      A                      A
 Frequencies --   1434.5339              1448.2412              1471.8960
 Red. masses --      1.9092                 1.7901                 1.3714
 Frc consts  --      2.3149                 2.2121                 1.7505
 IR Inten    --      4.5452                 9.1569                12.5827

                     37                     38                     39
                      A                      A                      A
 Frequencies --   1496.0125              1500.0829              1509.9833
 Red. masses --      1.7353                 1.0431                 1.0763
 Frc consts  --      2.2882                 1.3829                 1.4458
 IR Inten    --      4.9352                 6.5195                25.0311

                     40                     41                     42
                      A                      A                      A
 Frequencies --   1516.9600              1542.6504              1565.8196
 Red. masses --      1.1253                 1.1352                 2.4571
 Frc consts  --      1.5257                 1.5917                 3.5494
 IR Inten    --      8.0634                 3.0899                28.8130

                     43                     44                     45
                      A                      A                      A
 Frequencies --   1602.3068              1633.4985              1645.6375
 Red. masses --      6.1557                 7.0689                 6.5239
 Frc consts  --      9.3114                11.1132                10.4095
 IR Inten    --      1.5089               188.5998                71.9750

                     46                     47                     48
                      A                      A                      A
 Frequencies --   3012.7556              3046.6071              3097.3028
 Red. masses --      1.0532                 1.0378                 1.1015
 Frc consts  --      5.6322                 5.6756                 6.2258
 IR Inten    --     77.8641                33.8967                15.3331

                     49                     50                     51
                      A                      A                      A
 Frequencies --   3107.4904              3144.0257              3150.3959
 Red. masses --      1.0810                 1.0997                 1.1048
 Frc consts  --      6.1505                 6.4046                 6.4605
 IR Inten    --     39.0963                11.2238                18.9809

                     52                     53                     54
                      A                      A                      A
 Frequencies --   3275.4908              3570.4321              3703.9801
 Red. masses --      1.0964                 1.0754                 1.0812
 Frc consts  --      6.9307                 8.0773                 8.7392
 IR Inten    --      5.2405                 7.1338                73.9036

 - Thermochemistry -
 -------------------
 Temperature   298.150 Kelvin.  Pressure   1.00000 Atm.
 Atom     1 has atomic number  6 and mass  12.00000

 Molecular mass:   151.07456 amu.
 Principal axes and moments of inertia in atomic units:
                           1         2         3
     Eigenvalues --   670.003972467.122103110.30950
           X            0.99998   0.00557  -0.00242
           Y           -0.00558   0.99997  -0.00553
           Z            0.00239   0.00554   0.99998
 This molecule is an asymmetric top.
 Rotational symmetry number  1.
 Warning -- assumption of classical behavior for rotation
           may cause significant error
 Rotational temperatures (Kelvin)      0.12927     0.03511     0.02785
 Rotational constants (GHZ):           2.69363     0.73152     0.58024
    1 imaginary frequencies ignored.
 Zero-point vibrational energy     421796.2 (Joules/Mol)
                                  100.81170 (Kcal/Mol)
 Warning -- explicit consideration of  14 degrees of freedom as
           vibrations may cause significant error
 Vibrational temperatures:    111.85   182.10   207.18   230.32   259.84
          (Kelvin)            350.46   401.75   432.69   521.19   653.01
                              780.42   812.97   854.80   885.29   944.54
                             1041.88  1066.11  1121.94  1169.28  1221.29
                             1368.43  1473.07  1526.88  1551.20  1566.71
                             1667.56  1676.96  1693.27  1720.57  1775.03
                             1901.51  1983.22  2063.97  2083.70  2117.73
                             2152.43  2158.28  2172.53  2182.57  2219.53
                             2252.87  2305.36  2350.24  2367.71  4334.68
                             4383.39  4456.33  4470.99  4523.55  4532.72
                             4712.70  5137.06  5329.20

 Zero-point correction=                           0.160654 (Hartree/Particle)
 Thermal correction to Energy=                    0.170359
 Thermal correction to Enthalpy=                  0.171303
 Thermal correction to Gibbs Free Energy=         0.125496
 Sum of electronic and zero-point Energies=           -511.452082
 Sum of electronic and thermal Energies=              -511.442377
 Sum of electronic and thermal Enthalpies=            -511.441432
 Sum of electronic and thermal Free Energies=         -511.487240

                     E (Thermal)             CV                S
                      KCal/Mol        Cal/Mol-Kelvin    Cal/Mol-Kelvin
 Total                  106.902             36.068             96.410
 Electronic               0.000              0.000              0.000
 Translational            0.889              2.981             40.948
 Rotational               0.889              2.981             30.020
 Vibrational            105.124             30.107             25.441
 Vibration     1          0.599              1.964              3.947
 Vibration     2          0.611              1.927              2.998
 Vibration     3          0.616              1.909              2.750
 Vibration     4          0.622              1.891              2.549
 Vibration     5          0.630              1.866              2.322
 Vibration     6          0.659              1.773              1.777
 Vibration     7          0.680              1.712              1.538
 Vibration     8          0.693              1.672              1.413
 Vibration     9          0.736              1.550              1.112
 Vibration    10          0.812              1.352              0.784
 Vibration    11          0.898              1.156              0.560
 Vibration    12          0.921              1.107              0.514
 Vibration    13          0.952              1.044              0.460
 Vibration    14          0.975              1.000              0.424

                           ! Non-Optimized Parameters !
 Normal termination of Gaussian 16 at Mon Dec 14 16:29:42 2020.

 ----------------------------------------------------------------------
 # B3LYP/6-311++G(d,p) empiricaldispersion=gd3bj scf=xqc pop=npa geom=c
 heck
 ----------------------------------------------------------------------

 --------------------------------------
 CID_57878645_JID_1542_Energie_neutraal
 --------------------------------------
 Structure from the checkpoint file:  "JID_1542.chk"
 Charge =  0 Multiplicity = 1

 SCF Done:  E(RB3LYP) =  -511.757285004     A.U. after   14 cycles
 Normal termination of Gaussian 16 at Mon Dec 14 16:30:43 2020.

 ----------------------------------------------------------------------
 # B3LYP/6-311++G(d,p) empiricaldispersion=gd3bj scf=xqc pop=npa geom=c
 heck
 ----------------------------------------------------------------------

 ------------------------------------
 CID_57878645_JID_1542_Energie_kation
 ------------------------------------
 Structure from the checkpoint file:  "JID_1542.chk"
 Charge =  1 Multiplicity = 2

 SCF Done:  E(UB3LYP) =  -511.483922351     A.U. after   23 cycles
 Normal termination of Gaussian 16 at Mon Dec 14 16:33:02 2020.
 Gaussian 16:  ES64L-G16RevA.03 25-Dec-2016

 ----------------------------------------------------------------------
 # B3LYP/6-311++G(d,p) empiricaldispersion=gd3bj scf=xqc pop=npa geom=c
 heck
 ----------------------------------------------------------------------

 -----------------------------------
 CID_57878645_JID_1542_Energie_anion
 -----------------------------------
 Structure from the checkpoint file:  "JID_1542.chk"
 Charge = -1 Multiplicity = 2

                         Standard orientation:
 ---------------------------------------------------------------------
 Center     Atomic      Atomic             Coordinates (Angstroms)
 Number     Number       Type             X           Y           Z
 ---------------------------------------------------------------------
      1          6           0        3.581520   -1.027664    0.019102
      2          6           0        2.292783   -0.287180    0.010667
      3          6           0        2.005495    1.054095    0.029772
      4          6           0        0.572957    1.127285    0.006941
      5          6           0        0.109187   -0.172438   -0.028111
      6          8           0        1.150536   -1.065616   -0.024404
      7          6           0       -1.304589   -0.120237   -0.048082
      8          7           0       -1.690112    1.161483   -0.021499
      9          7           0       -0.533880    1.914562    0.003998
     10          7           0       -2.213798   -1.165840   -0.143713
     11          6           0       -3.617103   -0.849870    0.087040
     12          1           0        3.657136   -1.687021    0.892427
     13          1           0        4.416078   -0.322114    0.046888
     14          1           0        3.687218   -1.653312   -0.875552
     15          1           0        2.733977    1.851396    0.056999
     16          1           0       -0.617923    2.916429   -0.000224
     17          1           0       -1.897726   -1.992809    0.348644
     18          1           0       -4.204152   -1.765450   -0.024540
     19          1           0       -3.809196   -0.410888    1.078156
     20          1           0       -3.946669   -0.126678   -0.663043
 ---------------------------------------------------------------------

 SCF Done:  E(UB3LYP) =  -511.741316590     A.U. after   33 cycles
 SCF Done:  E(UB3LYP) =  -511.741316590     a.u. after    1 cycles

 The electronic state is 2-A.
 Alpha  occ. eigenvalues --  -19.08329 -14.27163 -14.22415 -14.21778 -10.13521
 Alpha  occ. eigenvalues --  -10.12936 -10.10624 -10.10298 -10.09679 -10.07466
 Alpha  occ. eigenvalues --  -10.07316  -1.00449  -0.92983  -0.83104  -0.71593
 Alpha  occ. eigenvalues --   -0.68991  -0.68109  -0.60929  -0.58553  -0.51763
 Alpha  occ. eigenvalues --   -0.48859  -0.46884  -0.44364  -0.39966  -0.37798
 Alpha  occ. eigenvalues --   -0.37166  -0.35927  -0.33617  -0.32039  -0.31857
 Alpha  occ. eigenvalues --   -0.30128  -0.29794  -0.29082  -0.28869  -0.25897
 Alpha  occ. eigenvalues --   -0.21902  -0.19284  -0.16855  -0.11496  -0.10280
 Alpha  occ. eigenvalues --    0.04575
 Alpha virt. eigenvalues --    0.06110   0.06944   0.08672   0.08938   0.09117
 Alpha virt. eigenvalues --    0.10070   0.11017   0.11306   0.11677   0.14047
 Alpha virt. eigenvalues --    0.14597   0.14987   0.15840   0.16239   0.17006

  Beta  occ. eigenvalues --  -19.08317 -14.27144 -14.22398 -14.21770 -10.13520
  Beta  occ. eigenvalues --  -10.12935 -10.10622 -10.10299 -10.09658 -10.07435
  Beta  occ. eigenvalues --  -10.07262  -1.00433  -0.92966  -0.83076  -0.71570
  Beta  occ. eigenvalues --   -0.68958  -0.68077  -0.60880  -0.58500  -0.51728
  Beta  occ. eigenvalues --   -0.48815  -0.46845  -0.44305  -0.39932  -0.37769
  Beta  occ. eigenvalues --   -0.37141  -0.35885  -0.33584  -0.31995  -0.31820
  Beta  occ. eigenvalues --   -0.30077  -0.29746  -0.29048  -0.28839  -0.25873
  Beta  occ. eigenvalues --   -0.21886  -0.19250  -0.16835  -0.11479  -0.10262
  Beta virt. eigenvalues --    0.06739   0.07487   0.07885   0.09130   0.09374
  Beta virt. eigenvalues --    0.10006   0.10458   0.11449   0.11596   0.12309
  Beta virt. eigenvalues --    0.14218   0.14904   0.15017   0.15986   0.16301

 Mulliken charges and spin densities:
               1          2
     1  C    4.463540  -4.902271
     2  C    0.094364   0.160487
     3  C   -4.482284   3.970318
     4  C    4.662441  -4.361564
     5  C   -2.661039   2.471779
     6  O   -0.185497   0.061323
     7  C    0.564957  -0.576584
     8  N   -0.368335   0.117581
     9  N   -0.004600  -0.158975
    10  N   -0.163526   0.035483
    11  C    0.373315  -0.802538
    12  H   -0.321545   0.478811
    13  H   -0.643055   0.824170
    14  H   -0.248260   0.404201
    15  H   -1.768668   1.953476
    16  H    0.011864   0.294075
    17  H   -0.049348   0.301460
    18  H   -0.310151   0.446902
    19  H   -0.019056   0.172270
    20  H    0.054881   0.109598
 Sum of Mulliken charges =  -1.00000   1.00000

 Dipole moment (field-independent basis, Debye):
    X=             -5.5315    Y=             -0.6601    Z=             -0.2674  Tot=              5.5771
 Quadrupole moment (field-independent basis, Debye-Ang):
   XX=           -147.0899   YY=           -104.3394   ZZ=            -89.3578
   XY=             -8.8103   XZ=             -0.8756   YZ=             -0.5107

 Summary of Natural Population Analysis:

                                       Natural Population
                Natural  -----------------------------------------------
    Atom  No    Charge         Core      Valence    Rydberg      Total
 -----------------------------------------------------------------------
      C    1   -0.30782      0.99962     2.30204    0.00616     3.30782
      C    2    0.16976      0.99949     1.81616    0.01459     2.83024
      C    3   -0.15914      0.99946     2.15080    0.00888     3.15914
      C    4    0.04819      0.99942     1.94012    0.01227     2.95181
      C    5    0.09198      0.99921     1.89595    0.01286     2.90802
      O    6   -0.24017      0.99985     3.23171    0.00861     4.24017
      C    7    0.15238      0.99952     1.83301    0.01508     2.84762
      N    8   -0.18865      0.99970     2.67664    0.01231     3.68865
      N    9   -0.18129      0.99966     2.66936    0.01227     3.68129
      N   10   -0.31601      0.99969     2.80569    0.01063     3.81601
      C   11   -0.17717      0.99966     2.17006    0.00745     3.17717
      H   12    0.10901      0.00000     0.38934    0.00166     0.39099
      H   13    0.11389      0.00000     0.38324    0.00286     0.38611
      H   14    0.10842      0.00000     0.39009    0.00150     0.39158
      H   15    0.11687      0.00000     0.37844    0.00470     0.38313
      H   16    0.19865      0.00000     0.29851    0.00285     0.30135
      H   17    0.18462      0.00000     0.31097    0.00442     0.31538
      H   18    0.09284      0.00000     0.40572    0.00143     0.40716
      H   19    0.08540      0.00000     0.41219    0.00240     0.41460
      H   20    0.09823      0.00000     0.39992    0.00185     0.40177
 =======================================================================
   * Total *   -0.00000     10.99528    28.85995    0.14477    40.00000

 Normal termination of Gaussian 16 at Mon Dec 14 16:36:09 2020.
