 Gaussian 16, Revision A.03,

 -----------------------------------------------------------
 # opt freq B3LYP/6-31G(d) empiricaldispersion=gd3bj scf=xqc
 -----------------------------------------------------------

 -------------------------------
 CID_121503864_JID_8131_neutraal
 -------------------------------
 Symbolic Z-matrix:
 Charge =  0 Multiplicity = 1

 SCF Done:  E(RB3LYP) =  -804.312472166     A.U. after   15 cycles
 SCF Done:  E(RB3LYP) =  -804.317253266     A.U. after   12 cycles
 SCF Done:  E(RB3LYP) =  -804.316203289     A.U. after   12 cycles
 SCF Done:  E(RB3LYP) =  -804.318124833     A.U. after   12 cycles
 SCF Done:  E(RB3LYP) =  -804.318567392     A.U. after   12 cycles
 SCF Done:  E(RB3LYP) =  -804.318927763     A.U. after   12 cycles
 SCF Done:  E(RB3LYP) =  -804.319064582     A.U. after   11 cycles
 SCF Done:  E(RB3LYP) =  -804.319124429     A.U. after   12 cycles
 SCF Done:  E(RB3LYP) =  -804.319146191     A.U. after   11 cycles
 SCF Done:  E(RB3LYP) =  -804.319182022     A.U. after   11 cycles
 SCF Done:  E(RB3LYP) =  -804.322565565     A.U. after    8 cycles
 SCF Done:  E(RB3LYP) =  -804.322566652     A.U. after    8 cycles
 SCF Done:  E(RB3LYP) =  -804.322567572     A.U. after    8 cycles
 SCF Done:  E(RB3LYP) =  -804.322568454     A.U. after    8 cycles
 SCF Done:  E(RB3LYP) =  -804.322568704     A.U. after    7 cycles
 Optimization completed.
    -- Stationary point found.
 Normal termination of Gaussian 16 at Fri Dec 11 18:59:31 2020.

 --------------------------------------------------------------------
 #N Geom=AllCheck Guess=TCheck SCRF=Check GenChk RB3LYP/6-31G(d) Freq
 --------------------------------------------------------------------

 Structure from the checkpoint file:  "JID_8131.chk"
 -------------------------------
 CID_121503864_JID_8131_neutraal
 -------------------------------
 Charge =  0 Multiplicity = 1

 SCF Done:  E(RB3LYP) =  -804.322568704     A.U. after    1 cycles

  Exact polarizability: 225.148 -18.256 172.170  -9.744 -16.280 102.778
 Approx polarizability: 314.160 -27.348 268.482 -22.961 -43.021 166.116

                      1                      2                      3
                      A                      A                      A
 Frequencies --     24.6012                33.5014                46.6030
 Red. masses --      4.8068                 3.2674                 3.1120
 Frc consts  --      0.0017                 0.0022                 0.0040
 IR Inten    --      1.4894                 0.1947                 1.3833

                      4                      5                      6
                      A                      A                      A
 Frequencies --     62.0494                86.4796               104.1366
 Red. masses --      4.4390                 4.3835                 4.1471
 Frc consts  --      0.0101                 0.0193                 0.0265
 IR Inten    --      0.2833                 0.6203                 0.9319

                      7                      8                      9
                      A                      A                      A
 Frequencies --    125.6693               156.6877               172.5207
 Red. masses --      4.1481                 3.1017                 5.1859
 Frc consts  --      0.0386                 0.0449                 0.0909
 IR Inten    --      1.2292                 0.6873                 6.7902

                     10                     11                     12
                      A                      A                      A
 Frequencies --    236.8881               247.4169               257.6010
 Red. masses --      1.6418                 2.2427                 2.6879
 Frc consts  --      0.0543                 0.0809                 0.1051
 IR Inten    --      0.2034                 0.7120                 0.3209

                     13                     14                     15
                      A                      A                      A
 Frequencies --    278.9190               289.2810               318.9551
 Red. masses --      1.9667                 1.6278                 2.9685
 Frc consts  --      0.0901                 0.0803                 0.1779
 IR Inten    --      0.2590                 0.1058                 0.5240

                     16                     17                     18
                      A                      A                      A
 Frequencies --    356.5317               380.2237               382.8410
 Red. masses --      3.3341                 2.9530                 3.0021
 Frc consts  --      0.2497                 0.2515                 0.2592
 IR Inten    --      5.4303                 0.1857                 0.2245

                     19                     20                     21
                      A                      A                      A
 Frequencies --    423.8279               475.0318               503.3665
 Red. masses --      3.9491                 2.8223                 3.3783
 Frc consts  --      0.4179                 0.3752                 0.5043
 IR Inten    --      5.8181                 3.2638                 3.0157

                     22                     23                     24
                      A                      A                      A
 Frequencies --    512.1163               537.7764               556.3346
 Red. masses --      3.4143                 4.1211                 3.9501
 Frc consts  --      0.5276                 0.7022                 0.7203
 IR Inten    --      6.8571                 4.3637                 0.3679

                     25                     26                     27
                      A                      A                      A
 Frequencies --    621.6564               631.7254               643.8115
 Red. masses --      3.5337                 1.2885                 3.3766
 Frc consts  --      0.8046                 0.3030                 0.8246
 IR Inten    --      1.1581               114.6607                18.0851

                     28                     29                     30
                      A                      A                      A
 Frequencies --    668.0652               684.2536               709.4460
 Red. masses --      3.4627                 3.5901                 3.5831
 Frc consts  --      0.9105                 0.9903                 1.0626
 IR Inten    --      1.2642                11.4481                18.0581

                     31                     32                     33
                      A                      A                      A
 Frequencies --    759.5756               768.8873               795.8362
 Red. masses --      3.8073                 1.6207                 2.5640
 Frc consts  --      1.2942                 0.5645                 0.9568
 IR Inten    --      2.9734                39.8242                19.1447

                     34                     35                     36
                      A                      A                      A
 Frequencies --    829.2575               858.0727               866.0839
 Red. masses --      1.3327                 3.2740                 1.3950
 Frc consts  --      0.5399                 1.4203                 0.6165
 IR Inten    --      8.2487                11.4709                13.7115

                     37                     38                     39
                      A                      A                      A
 Frequencies --    883.8858               897.9123               939.6722
 Red. masses --      1.5536                 2.4243                 1.3344
 Frc consts  --      0.7151                 1.1516                 0.6942
 IR Inten    --      0.2942                 9.7540                 0.9358

                     40                     41                     42
                      A                      A                      A
 Frequencies --    944.0482               949.3758               958.8423
 Red. masses --      1.4546                 1.3231                 1.9142
 Frc consts  --      0.7638                 0.7026                 1.0369
 IR Inten    --      6.7744                 2.2263                 6.5145

                     43                     44                     45
                      A                      A                      A
 Frequencies --    964.5565               976.4496               986.7791
 Red. masses --      2.4272                 1.2728                 6.6831
 Frc consts  --      1.3305                 0.7150                 3.8341
 IR Inten    --     51.1714                 4.1059                18.1239

                     46                     47                     48
                      A                      A                      A
 Frequencies --   1017.7554              1076.7777              1093.9806
 Red. masses --      4.1465                 2.2908                 2.3186
 Frc consts  --      2.5306                 1.5649                 1.6349
 IR Inten    --     34.2259                 1.6579                 9.8657

                     49                     50                     51
                      A                      A                      A
 Frequencies --   1102.4943              1113.9265              1140.7916
 Red. masses --      2.2328                 2.9751                 1.6893
 Frc consts  --      1.5990                 2.1750                 1.2953
 IR Inten    --     46.1373                56.7866                12.4560

                     52                     53                     54
                      A                      A                      A
 Frequencies --   1156.4653              1172.2966              1192.5760
 Red. masses --      2.0028                 1.9427                 1.1298
 Frc consts  --      1.5781                 1.5730                 0.9467
 IR Inten    --     14.6239                90.0275                 7.3768

                     55                     56                     57
                      A                      A                      A
 Frequencies --   1205.1536              1212.5800              1219.9394
 Red. masses --      1.3794                 2.0114                 2.2785
 Frc consts  --      1.1804                 1.7425                 1.9979
 IR Inten    --     34.4313                18.3781                50.4896

                     58                     59                     60
                      A                      A                      A
 Frequencies --   1246.8873              1255.9954              1267.4648
 Red. masses --      2.6462                 1.1735                 1.6960
 Frc consts  --      2.4239                 1.0907                 1.6053
 IR Inten    --    113.8241                18.3625                22.2089

                     61                     62                     63
                      A                      A                      A
 Frequencies --   1299.0809              1333.6371              1355.0231
 Red. masses --      1.6550                 7.1965                 2.1130
 Frc consts  --      1.6456                 7.5413                 2.2859
 IR Inten    --      6.5180                 5.4215                11.9866

                     64                     65                     66
                      A                      A                      A
 Frequencies --   1380.8501              1397.8149              1403.9762
 Red. masses --      1.3504                 1.7441                 2.4999
 Frc consts  --      1.5171                 2.0078                 2.9033
 IR Inten    --      4.7700                20.0755                15.1749

                     67                     68                     69
                      A                      A                      A
 Frequencies --   1414.4192              1420.9692              1428.7154
 Red. masses --      1.3015                 1.3790                 1.3247
 Frc consts  --      1.5341                 1.6405                 1.5932
 IR Inten    --     11.6191                 3.6766                13.3466

                     70                     71                     72
                      A                      A                      A
 Frequencies --   1434.6563              1444.5899              1480.0956
 Red. masses --      3.6114                 1.2462                 2.7431
 Frc consts  --      4.3795                 1.5323                 3.5405
 IR Inten    --     29.0431                23.2738                 9.6286

                     73                     74                     75
                      A                      A                      A
 Frequencies --   1496.9796              1508.4108              1509.7215
 Red. masses --      1.4999                 1.8536                 1.2542
 Frc consts  --      1.9804                 2.4849                 1.6843
 IR Inten    --     92.8468               121.1527                14.0904

                     76                     77                     78
                      A                      A                      A
 Frequencies --   1513.4795              1519.5787              1528.0585
 Red. masses --      1.0579                 1.0736                 1.0484
 Frc consts  --      1.4277                 1.4606                 1.4424
 IR Inten    --      3.7083                 2.8652                 4.9599

                     79                     80                     81
                      A                      A                      A
 Frequencies --   1531.7978              1539.3362              1543.4089
 Red. masses --      1.1177                 1.8503                 1.2904
 Frc consts  --      1.5452                 2.5831                 1.8111
 IR Inten    --      3.5809                12.4720                27.2670

                     82                     83                     84
                      A                      A                      A
 Frequencies --   1613.4207              1631.1775              1660.7442
 Red. masses --      5.3354                 6.0498                 6.0012
 Frc consts  --      8.1831                 9.4840                 9.7520
 IR Inten    --     49.3938                 4.3627                 6.1747

                     85                     86                     87
                      A                      A                      A
 Frequencies --   2992.0422              3055.3635              3064.5181
 Red. masses --      1.0712                 1.0356                 1.0366
 Frc consts  --      5.6500                 5.6961                 5.7356
 IR Inten    --     59.6508                14.2898                11.8458

                     88                     89                     90
                      A                      A                      A
 Frequencies --   3066.2544              3068.4271              3093.8443
 Red. masses --      1.0617                 1.0862                 1.0926
 Frc consts  --      5.8812                 6.0254                 6.1617
 IR Inten    --     16.4194                26.0134                74.5273

                     91                     92                     93
                      A                      A                      A
 Frequencies --   3122.0439              3124.4868              3130.7723
 Red. masses --      1.1014                 1.1044                 1.1015
 Frc consts  --      6.3251                 6.3521                 6.3614
 IR Inten    --      7.8841                16.5484                48.3903

                     94                     95                     96
                      A                      A                      A
 Frequencies --   3138.5429              3153.1448              3188.0338
 Red. masses --      1.1033                 1.1020                 1.0853
 Frc consts  --      6.4035                 6.4556                 6.4987
 IR Inten    --     30.4104                15.0023                 0.8352

                     97                     98                     99
                      A                      A                      A
 Frequencies --   3198.6648              3211.5048              3229.3004
 Red. masses --      1.0900                 1.0955                 1.0933
 Frc consts  --      6.5710                 6.6571                 6.7174
 IR Inten    --     16.1972                27.4961                11.9260

                    100                    101                    102
                      A                      A                      A
 Frequencies --   3261.7303              3314.3389              3596.2783
 Red. masses --      1.0958                 1.0978                 1.0655
 Frc consts  --      6.8686                 7.1048                 8.1188
 IR Inten    --      3.7436                 0.9162               273.0243

 - Thermochemistry -
 -------------------
 Temperature   298.150 Kelvin.  Pressure   1.00000 Atm.
 Atom     1 has atomic number  6 and mass  12.00000

 Molecular mass:   246.13683 amu.
 Principal axes and moments of inertia in atomic units:
                           1         2         3
     Eigenvalues --  2415.949947543.801669189.39859
           X            0.99994   0.00662   0.00823
           Y           -0.00664   0.99997   0.00318
           Z           -0.00821  -0.00323   0.99996
 This molecule is an asymmetric top.
 Rotational symmetry number  1.
 Warning -- assumption of classical behavior for rotation
           may cause significant error
 Rotational temperatures (Kelvin)      0.03585     0.01148     0.00943
 Rotational constants (GHZ):           0.74701     0.23923     0.19639
 Zero-point vibrational energy     800193.3 (Joules/Mol)
                                  191.25079 (Kcal/Mol)
 Warning -- explicit consideration of  24 degrees of freedom as
           vibrations may cause significant error
 Vibrational temperatures:     35.40    48.20    67.05    89.28   124.42
          (Kelvin)            149.83   180.81   225.44   248.22   340.83
                              355.98   370.63   401.30   416.21   458.91
                              512.97   547.06   550.82   609.79   683.46
                              724.23   736.82   773.74   800.44   894.42
                              908.91   926.30   961.20   984.49  1020.73
                             1092.86  1106.26  1145.03  1193.12  1234.58
                             1246.10  1271.71  1291.90  1351.98  1358.27
                             1365.94  1379.56  1387.78  1404.89  1419.76
                             1464.32  1549.24  1573.99  1586.24  1602.69
                             1641.34  1663.90  1686.67  1715.85  1733.95
                             1744.63  1755.22  1793.99  1807.10  1823.60
                             1869.09  1918.81  1949.58  1986.74  2011.14
                             2020.01  2035.03  2044.46  2055.60  2064.15
                             2078.44  2129.53  2153.82  2170.27  2172.15
                             2177.56  2186.33  2198.54  2203.92  2214.76
                             2220.62  2321.35  2346.90  2389.44  4304.88
                             4395.99  4409.16  4411.66  4414.78  4451.35
                             4491.92  4495.44  4504.48  4515.66  4536.67
                             4586.87  4602.17  4620.64  4646.24  4692.90
                             4768.59  5174.24

 Zero-point correction=                           0.304778 (Hartree/Particle)
 Thermal correction to Energy=                    0.321632
 Thermal correction to Enthalpy=                  0.322576
 Thermal correction to Gibbs Free Energy=         0.258689
 Sum of electronic and zero-point Energies=           -804.017791
 Sum of electronic and thermal Energies=              -804.000937
 Sum of electronic and thermal Enthalpies=            -803.999993
 Sum of electronic and thermal Free Energies=         -804.063880

                     E (Thermal)             CV                S
                      KCal/Mol        Cal/Mol-Kelvin    Cal/Mol-Kelvin
 Total                  201.827             64.692            134.462
 Electronic               0.000              0.000              0.000
 Translational            0.889              2.981             42.403
 Rotational               0.889              2.981             33.482
 Vibrational            200.050             58.731             58.577
 Vibration     1          0.593              1.985              6.223
 Vibration     2          0.594              1.983              5.610
 Vibration     3          0.595              1.979              4.957
 Vibration     4          0.597              1.972              4.391
 Vibration     5          0.601              1.959              3.738
 Vibration     6          0.605              1.946              3.375
 Vibration     7          0.611              1.927              3.011
 Vibration     8          0.620              1.895              2.589
 Vibration     9          0.626              1.876              2.408
 Vibration    10          0.656              1.784              1.826
 Vibration    11          0.661              1.767              1.749
 Vibration    12          0.667              1.750              1.678
 Vibration    13          0.679              1.713              1.540
 Vibration    14          0.686              1.694              1.478
 Vibration    15          0.705              1.637              1.315
 Vibration    16          0.732              1.562              1.137
 Vibration    17          0.750              1.512              1.038
 Vibration    18          0.752              1.507              1.028
 Vibration    19          0.786              1.418              0.879
 Vibration    20          0.832              1.305              0.724
 Vibration    21          0.859              1.243              0.650
 Vibration    22          0.867              1.223              0.629
 Vibration    23          0.893              1.166              0.570
 Vibration    24          0.912              1.126              0.531

                           ! Non-Optimized Parameters !
 Normal termination of Gaussian 16 at Fri Dec 11 19:14:55 2020.

 ----------------------------------------------------------------------
 # B3LYP/6-311++G(d,p) empiricaldispersion=gd3bj scf=xqc pop=npa geom=c
 heck
 ----------------------------------------------------------------------

 ---------------------------------------
 CID_121503864_JID_8131_Energie_neutraal
 ---------------------------------------
 Structure from the checkpoint file:  "JID_8131.chk"
 Charge =  0 Multiplicity = 1

 SCF Done:  E(RB3LYP) =  -804.546260641     A.U. after   15 cycles
 Normal termination of Gaussian 16 at Fri Dec 11 19:21:03 2020.

 ----------------------------------------------------------------------
 # B3LYP/6-311++G(d,p) empiricaldispersion=gd3bj scf=xqc pop=npa geom=c
 heck
 ----------------------------------------------------------------------

 -------------------------------------
 CID_121503864_JID_8131_Energie_kation
 -------------------------------------
 Structure from the checkpoint file:  "JID_8131.chk"
 Charge =  1 Multiplicity = 2

 SCF Done:  E(UB3LYP) =  -804.262151307     A.U. after   24 cycles
 Normal termination of Gaussian 16 at Fri Dec 11 19:33:56 2020.
 Gaussian 16:  ES64L-G16RevA.03 25-Dec-2016

 ----------------------------------------------------------------------
 # B3LYP/6-311++G(d,p) empiricaldispersion=gd3bj scf=xqc pop=npa geom=c
 heck
 ----------------------------------------------------------------------

 ------------------------------------
 CID_121503864_JID_8131_Energie_anion
 ------------------------------------
 Structure from the checkpoint file:  "JID_8131.chk"
 Charge = -1 Multiplicity = 2

                         Standard orientation:
 ---------------------------------------------------------------------
 Center     Atomic      Atomic             Coordinates (Angstroms)
 Number     Number       Type             X           Y           Z
 ---------------------------------------------------------------------
      1          6           0        1.524292    1.821802    1.589015
      2          6           0        1.884224    2.222544    0.161581
      3          6           0        3.321928    2.724022    0.043576
      4          8           0        1.606645    1.169655   -0.803034
      5          6           0        1.993884   -0.118088   -0.496874
      6          6           0        3.325322   -0.508352   -0.656895
      7          6           0        3.718823   -1.816482   -0.379928
      8          6           0        2.770013   -2.746549    0.044864
      9          6           0        1.437858   -2.365306    0.173992
     10          6           0        1.016661   -1.050600   -0.087577
     11          6           0       -0.397171   -0.690495    0.062615
     12          6           0       -1.110198    0.347984   -0.533421
     13          7           0       -2.393551    0.252025   -0.111633
     14          7           0       -2.572606   -0.786128    0.744339
     15          6           0       -1.374621   -1.358512    0.844803
     16          6           0       -3.522860    1.111123   -0.448318
     17          6           0       -4.768185    0.289689   -0.796394
     18          8           0       -5.314984   -0.361036    0.327154
     19          1           0        2.174748    1.017265    1.946875
     20          1           0        0.488086    1.481192    1.653623
     21          1           0        1.653068    2.682810    2.253820
     22          1           0        1.208226    3.019057   -0.167857
     23          1           0        4.032701    1.989851    0.435776
     24          1           0        3.570987    2.932561   -1.001486
     25          1           0        3.442918    3.648191    0.620193
     26          1           0        4.041359    0.220232   -1.019327
     27          1           0        4.757079   -2.107992   -0.509136
     28          1           0        3.061082   -3.771571    0.254599
     29          1           0        0.697186   -3.103470    0.466572
     30          1           0       -0.788390    1.115759   -1.217540
     31          1           0       -1.247371   -2.218044    1.488903
     32          1           0       -3.747668    1.764320    0.402604
     33          1           0       -3.213081    1.729755   -1.295837
     34          1           0       -5.536197    0.970438   -1.179884
     35          1           0       -4.510712   -0.415519   -1.604524
     36          1           0       -4.574040   -0.861752    0.724492
 ---------------------------------------------------------------------

 SCF Done:  E(UB3LYP) =  -804.537133306     A.U. after   33 cycles
 SCF Done:  E(UB3LYP) =  -804.537133306     a.u. after    1 cycles

 The electronic state is 2-A.
 Alpha  occ. eigenvalues --  -19.02820 -19.01749 -14.29138 -14.23691 -10.12776
 Alpha  occ. eigenvalues --  -10.12537 -10.12180 -10.11885 -10.09839 -10.09551
 Alpha  occ. eigenvalues --  -10.07801 -10.07328 -10.07325 -10.07271 -10.07049
 Alpha  occ. eigenvalues --  -10.06910 -10.06258 -10.05751  -0.95695  -0.94356
 Alpha  occ. eigenvalues --   -0.92303  -0.75899  -0.74882  -0.69940  -0.68586
 Alpha  occ. eigenvalues --   -0.65830  -0.63642  -0.62303  -0.59281  -0.55135
 Alpha  occ. eigenvalues --   -0.53214  -0.52463  -0.49221  -0.47349  -0.45974
 Alpha  occ. eigenvalues --   -0.43365  -0.41853  -0.40403  -0.39082  -0.37521
 Alpha  occ. eigenvalues --   -0.36964  -0.36452  -0.35567  -0.34786  -0.34122
 Alpha  occ. eigenvalues --   -0.32760  -0.32102  -0.31638  -0.30952  -0.30341
 Alpha  occ. eigenvalues --   -0.29182  -0.29121  -0.28041  -0.26914  -0.26750
 Alpha  occ. eigenvalues --   -0.25926  -0.25416  -0.24740  -0.22386  -0.20408
 Alpha  occ. eigenvalues --   -0.19031  -0.17878  -0.17372  -0.16162  -0.14610
 Alpha  occ. eigenvalues --   -0.11748   0.04383
 Alpha virt. eigenvalues --    0.06553   0.06621   0.07051   0.08042   0.08196
 Alpha virt. eigenvalues --    0.08741   0.08899   0.09479   0.09608   0.10314
 Alpha virt. eigenvalues --    0.10613   0.11010   0.11505   0.11685   0.12364

  Beta  occ. eigenvalues --  -19.02822 -19.01746 -14.29100 -14.23711 -10.12765
  Beta  occ. eigenvalues --  -10.12506 -10.12137 -10.11857 -10.09725 -10.09543
  Beta  occ. eigenvalues --  -10.07681 -10.07324 -10.07318 -10.07255 -10.07056
  Beta  occ. eigenvalues --  -10.06775 -10.06233 -10.05733  -0.95648  -0.94327
  Beta  occ. eigenvalues --   -0.92294  -0.75779  -0.74813  -0.69801  -0.68532
  Beta  occ. eigenvalues --   -0.65691  -0.63562  -0.62197  -0.59233  -0.55063
  Beta  occ. eigenvalues --   -0.53055  -0.52407  -0.49150  -0.47248  -0.45878
  Beta  occ. eigenvalues --   -0.43280  -0.41815  -0.40341  -0.39010  -0.37435
  Beta  occ. eigenvalues --   -0.36880  -0.36402  -0.35484  -0.34720  -0.34058
  Beta  occ. eigenvalues --   -0.32704  -0.32036  -0.31606  -0.30908  -0.30258
  Beta  occ. eigenvalues --   -0.29139  -0.29062  -0.27923  -0.26841  -0.26684
  Beta  occ. eigenvalues --   -0.25798  -0.25359  -0.24692  -0.22279  -0.20370
  Beta  occ. eigenvalues --   -0.18729  -0.17734  -0.17304  -0.15951  -0.14375
  Beta  occ. eigenvalues --   -0.11310
  Beta virt. eigenvalues --    0.06560   0.07190   0.07397   0.07660   0.08179
  Beta virt. eigenvalues --    0.08421   0.09031   0.09373   0.09703   0.09808
  Beta virt. eigenvalues --    0.10517   0.10828   0.11204   0.11654   0.11845

 Mulliken charges and spin densities:
               1          2
     1  C    0.191004  -0.822217
     2  C   -0.253434   0.545446
     3  C    0.455676  -1.149357
     4  O   -0.078112  -0.009533
     5  C   -0.534989   0.025823
     6  C    0.022721  -0.046877
     7  C   -0.215825   0.014290
     8  C   -0.505918   0.034284
     9  C   -0.306361  -0.116308
    10  C    0.736492  -0.095497
    11  C    0.862587  -0.611793
    12  C   -0.987590   0.728997
    13  N    0.373668   0.029216
    14  N   -0.351712   0.128376
    15  C   -0.123059  -0.075544
    16  C    0.693657  -0.767745
    17  C    0.030015  -0.454455
    18  O   -0.298939   0.018861
    19  H    0.107024   0.021708
    20  H    0.190222  -0.000982
    21  H   -0.201598   0.352475
    22  H   -0.792167   0.994462
    23  H    0.023442   0.120299
    24  H   -0.017799   0.183588
    25  H   -0.205720   0.336683
    26  H    0.128626   0.021457
    27  H    0.098240   0.028425
    28  H    0.111308   0.024667
    29  H    0.119841  -0.018856
    30  H   -0.009871   0.231579
    31  H    0.101829   0.030381
    32  H   -0.210885   0.418880
    33  H   -0.434168   0.566617
    34  H   -0.127771   0.294075
    35  H    0.132977   0.006888
    36  H    0.276590   0.011685
 Sum of Mulliken charges =  -1.00000   1.00000

 Dipole moment (field-independent basis, Debye):
    X=              3.5153    Y=             -6.9836    Z=              0.0854  Tot=              7.8189
 Quadrupole moment (field-independent basis, Debye-Ang):
   XX=           -184.3715   YY=           -161.3502   ZZ=           -132.4804
   XY=              1.1384   XZ=              3.2350   YZ=             -0.6090

 Summary of Natural Population Analysis:

                                       Natural Population
                Natural  -----------------------------------------------
    Atom  No    Charge         Core      Valence    Rydberg      Total
 -----------------------------------------------------------------------
      C    1   -0.30300      0.99964     2.29744    0.00593     3.30300
      C    2    0.06738      0.99954     1.91792    0.01515     2.93262
      C    3   -0.29889      0.99964     2.29273    0.00652     3.29889
      O    4   -0.30302      0.99986     3.29201    0.01115     4.30302
      C    5    0.16906      0.99934     1.81762    0.01397     2.83094
      C    6   -0.12460      0.99951     2.11716    0.00793     3.12460
      C    7   -0.08399      0.99957     2.07448    0.00993     3.08399
      C    8   -0.11375      0.99957     2.10406    0.01012     3.11375
      C    9   -0.08762      0.99955     2.08063    0.00744     3.08762
      C   10   -0.02479      0.99944     2.01603    0.00932     3.02479
      C   11   -0.08151      0.99951     2.07135    0.01065     3.08151
      C   12    0.03229      0.99952     1.95723    0.01096     2.96771
      N   13   -0.10148      0.99966     2.58813    0.01369     3.60148
      N   14   -0.18807      0.99971     2.67527    0.01309     3.68807
      C   15    0.00291      0.99959     1.98496    0.01254     2.99709
      C   16   -0.09508      0.99960     2.08336    0.01212     3.09508
      C   17   -0.01449      0.99961     2.00141    0.01347     3.01449
      O   18   -0.38046      0.99990     3.37343    0.00713     4.38046
      H   19    0.10025      0.00000     0.39888    0.00086     0.39975
      H   20    0.10966      0.00000     0.38911    0.00123     0.39034
      H   21    0.10331      0.00000     0.39588    0.00081     0.39669
      H   22    0.09325      0.00000     0.40286    0.00389     0.40675
      H   23    0.09695      0.00000     0.40195    0.00111     0.40305
      H   24    0.10245      0.00000     0.39656    0.00100     0.39755
      H   25    0.10271      0.00000     0.39626    0.00104     0.39729
      H   26    0.10262      0.00000     0.39604    0.00134     0.39738
      H   27    0.09456      0.00000     0.40458    0.00086     0.40544
      H   28    0.09557      0.00000     0.40349    0.00093     0.40443
      H   29    0.09556      0.00000     0.40310    0.00134     0.40444
      H   30    0.11605      0.00000     0.38250    0.00145     0.38395
      H   31    0.09671      0.00000     0.40241    0.00088     0.40329
      H   32    0.10404      0.00000     0.39392    0.00204     0.39596
      H   33    0.10668      0.00000     0.39147    0.00185     0.39332
      H   34    0.08881      0.00000     0.40992    0.00127     0.41119
      H   35    0.07546      0.00000     0.42323    0.00131     0.42454
      H   36    0.24446      0.00000     0.25221    0.00333     0.25554
 =======================================================================
   * Total *   -0.00000     17.99276    47.78959    0.21765    66.00000

 Normal termination of Gaussian 16 at Fri Dec 11 19:51:31 2020.
