 Gaussian 16, Revision A.03,

 -----------------------------------------------------------
 # opt freq B3LYP/6-31G(d) empiricaldispersion=gd3bj scf=xqc
 -----------------------------------------------------------

 --------------------------------
 CID_102748987_JID_10619_neutraal
 --------------------------------
 Symbolic Z-matrix:
 Charge =  0 Multiplicity = 1

 SCF Done:  E(RB3LYP) =  -1671.28985761     A.U. after   15 cycles
 SCF Done:  E(RB3LYP) =  -1671.29039522     A.U. after   13 cycles
 SCF Done:  E(RB3LYP) =  -1671.29637201     A.U. after   14 cycles
 SCF Done:  E(RB3LYP) =  -1671.29863611     A.U. after   13 cycles
 SCF Done:  E(RB3LYP) =  -1671.29907374     A.U. after   12 cycles
 SCF Done:  E(RB3LYP) =  -1671.29918583     A.U. after   12 cycles
 SCF Done:  E(RB3LYP) =  -1671.29944902     A.U. after   11 cycles
 SCF Done:  E(RB3LYP) =  -1671.29948309     A.U. after   11 cycles
 SCF Done:  E(RB3LYP) =  -1671.29949749     A.U. after   10 cycles
 SCF Done:  E(RB3LYP) =  -1671.29950067     A.U. after    9 cycles
 SCF Done:  E(RB3LYP) =  -1671.29978235     A.U. after   12 cycles
 SCF Done:  E(RB3LYP) =  -1671.29979053     A.U. after   10 cycles
 SCF Done:  E(RB3LYP) =  -1671.29979208     A.U. after    9 cycles
 SCF Done:  E(RB3LYP) =  -1671.29979214     A.U. after    7 cycles
 SCF Done:  E(RB3LYP) =  -1671.29979213     A.U. after    6 cycles
 Optimization completed.
    -- Stationary point found.
 Normal termination of Gaussian 16 at Sat Dec 12 16:24:33 2020.

 --------------------------------------------------------------------
 #N Geom=AllCheck Guess=TCheck SCRF=Check GenChk RB3LYP/6-31G(d) Freq
 --------------------------------------------------------------------

 Structure from the checkpoint file:  "JID_10619.chk"
 --------------------------------
 CID_102748987_JID_10619_neutraal
 --------------------------------
 Charge =  0 Multiplicity = 1

 SCF Done:  E(RB3LYP) =  -1671.29979213     A.U. after    1 cycles

  Exact polarizability: 163.161  -7.270 193.758   8.673  -8.850 166.557
 Approx polarizability: 240.356 -24.373 338.295  24.152 -14.575 308.713

                      1                      2                      3
                      A                      A                      A
 Frequencies --     18.6790                24.2879                41.5435
 Red. masses --      4.5207                 7.5129                 4.8973
 Frc consts  --      0.0009                 0.0026                 0.0050
 IR Inten    --      0.2473                 0.7156                 0.2338

                      4                      5                      6
                      A                      A                      A
 Frequencies --     56.0050                79.1836                87.1235
 Red. masses --      1.0371                 5.3360                 9.7291
 Frc consts  --      0.0019                 0.0197                 0.0435
 IR Inten    --      0.3066                 1.5067                 0.6209

                      7                      8                      9
                      A                      A                      A
 Frequencies --    126.7246               152.2492               168.9351
 Red. masses --      7.1130                 7.8328                 6.7142
 Frc consts  --      0.0673                 0.1070                 0.1129
 IR Inten    --      1.6880                 2.5558                 0.8610

                     10                     11                     12
                      A                      A                      A
 Frequencies --    199.5729               205.9540               207.7542
 Red. masses --      1.7443                 3.4515                 2.5801
 Frc consts  --      0.0409                 0.0863                 0.0656
 IR Inten    --      1.0819                 3.2189                 1.8285

                     13                     14                     15
                      A                      A                      A
 Frequencies --    227.1000               245.1312               259.6067
 Red. masses --      4.7764                 4.3366                 5.1919
 Frc consts  --      0.1451                 0.1535                 0.2062
 IR Inten    --      1.3530                 0.2293                 2.7674

                     16                     17                     18
                      A                      A                      A
 Frequencies --    263.4424               296.7567               337.7137
 Red. masses --      4.8810                10.0268                 5.9487
 Frc consts  --      0.1996                 0.5203                 0.3997
 IR Inten    --      0.5707                 0.4224                 2.3218

                     19                     20                     21
                      A                      A                      A
 Frequencies --    341.7993               349.7639               401.6127
 Red. masses --      5.4009                 6.2898                 4.1573
 Frc consts  --      0.3718                 0.4534                 0.3951
 IR Inten    --      7.8595                 6.3369                 3.4646

                     22                     23                     24
                      A                      A                      A
 Frequencies --    438.7064               459.6500               481.2512
 Red. masses --      6.4893                 2.8046                 4.8375
 Frc consts  --      0.7359                 0.3491                 0.6601
 IR Inten    --      0.7292                 8.8925                 4.4406

                     25                     26                     27
                      A                      A                      A
 Frequencies --    498.6702               520.5959               551.5926
 Red. masses --      5.3293                 6.9669                 4.6404
 Frc consts  --      0.7808                 1.1125                 0.8319
 IR Inten    --     16.9561                35.8271                13.8401

                     28                     29                     30
                      A                      A                      A
 Frequencies --    558.3820               565.3146               591.1772
 Red. masses --      5.8025                 5.9480                 5.9428
 Frc consts  --      1.0659                 1.1200                 1.2237
 IR Inten    --      8.7218                 0.8348                77.7605

                     31                     32                     33
                      A                      A                      A
 Frequencies --    602.3503               639.2712               674.2232
 Red. masses --      1.3257                 5.5358                 4.9874
 Frc consts  --      0.2834                 1.3329                 1.3358
 IR Inten    --     69.9167                 9.3523                26.0025

                     34                     35                     36
                      A                      A                      A
 Frequencies --    682.5033               740.3407               751.9018
 Red. masses --      4.3819                 4.7525                 3.1127
 Frc consts  --      1.2026                 1.5348                 1.0368
 IR Inten    --     51.1882               200.9387                37.0193

                     37                     38                     39
                      A                      A                      A
 Frequencies --    756.2634               791.6479               801.5894
 Red. masses --      3.3513                 1.5646                 5.8060
 Frc consts  --      1.1293                 0.5777                 2.1980
 IR Inten    --     10.9632                45.6545                32.0458

                     40                     41                     42
                      A                      A                      A
 Frequencies --    853.6930               865.3265               884.3625
 Red. masses --      3.4728                 1.7576                 1.4197
 Frc consts  --      1.4912                 0.7754                 0.6542
 IR Inten    --     20.3176                61.6705                16.0814

                     43                     44                     45
                      A                      A                      A
 Frequencies --    891.8503               918.3032               973.4648
 Red. masses --      4.1955                 1.5884                 2.9741
 Frc consts  --      1.9661                 0.7892                 1.6605
 IR Inten    --     12.9598                59.0249                56.4019

                     46                     47                     48
                      A                      A                      A
 Frequencies --    985.9210              1011.3260              1013.9514
 Red. masses --      1.3510                 6.6452                 5.3926
 Frc consts  --      0.7737                 4.0044                 3.2665
 IR Inten    --      4.5811                 7.0426                 1.0997

                     49                     50                     51
                      A                      A                      A
 Frequencies --   1036.4245              1049.8465              1074.8328
 Red. masses --      1.7256                 1.4905                 1.5793
 Frc consts  --      1.0921                 0.9679                 1.0750
 IR Inten    --     17.6977                 4.5107                 6.3482

                     52                     53                     54
                      A                      A                      A
 Frequencies --   1081.3615              1125.4722              1142.3064
 Red. masses --      1.4754                 8.3072                 1.6012
 Frc consts  --      1.0165                 6.1997                 1.2310
 IR Inten    --      3.4689                85.5678                 8.0804

                     55                     56                     57
                      A                      A                      A
 Frequencies --   1154.2591              1190.2548              1213.6720
 Red. masses --      7.5452                 2.3012                 1.6249
 Frc consts  --      5.9228                 1.9208                 1.4102
 IR Inten    --    166.9212               424.2556                22.9798

                     58                     59                     60
                      A                      A                      A
 Frequencies --   1217.3156              1293.3001              1319.0753
 Red. masses --      1.4763                 5.4744                 4.5753
 Frc consts  --      1.2889                 5.3949                 4.6904
 IR Inten    --     32.3515                 7.5457                19.6979

                     61                     62                     63
                      A                      A                      A
 Frequencies --   1335.1828              1352.5471              1369.4202
 Red. masses --      2.3134                 2.6533                 2.6061
 Frc consts  --      2.4298                 2.8598                 2.8795
 IR Inten    --     41.0346                74.1179                44.1218

                     64                     65                     66
                      A                      A                      A
 Frequencies --   1392.4431              1427.0694              1439.4475
 Red. masses --      4.9526                 2.0835                 1.3412
 Frc consts  --      5.6577                 2.5000                 1.6373
 IR Inten    --      6.9695                41.0351                 4.6842

                     67                     68                     69
                      A                      A                      A
 Frequencies --   1451.3576              1472.8465              1503.3450
 Red. masses --      1.2445                 5.1574                 1.4059
 Frc consts  --      1.5445                 6.5917                 1.8720
 IR Inten    --      2.3503               141.6208                62.4989

                     70                     71                     72
                      A                      A                      A
 Frequencies --   1505.5512              1507.6137              1515.7387
 Red. masses --      1.0485                 1.0512                 1.2363
 Frc consts  --      1.4003                 1.4078                 1.6734
 IR Inten    --      6.4121                 8.1845                50.4727

                     73                     74                     75
                      A                      A                      A
 Frequencies --   1522.2973              1536.1121              1579.3058
 Red. masses --      1.5523                 1.8440                 5.1752
 Frc consts  --      2.1195                 2.5636                 7.6051
 IR Inten    --     70.9872                33.0891                 2.9812

                     76                     77                     78
                      A                      A                      A
 Frequencies --   1640.1240              1652.4310              1791.5406
 Red. masses --      4.7633                 5.3967                 9.5509
 Frc consts  --      7.5494                 8.6820                18.0612
 IR Inten    --     27.3731               195.0749               296.7635

                     79                     80                     81
                      A                      A                      A
 Frequencies --   3057.7158              3075.0342              3118.5243
 Red. masses --      1.0358                 1.0362                 1.1007
 Frc consts  --      5.7061                 5.7728                 6.3068
 IR Inten    --     16.5628                17.9730                11.0383

                     82                     83                     84
                      A                      A                      A
 Frequencies --   3138.4057              3144.4519              3154.9570
 Red. masses --      1.1034                 1.1026                 1.1015
 Frc consts  --      6.4035                 6.4235                 6.4601
 IR Inten    --     15.8706                11.3975                 4.5886

                     85                     86                     87
                      A                      A                      A
 Frequencies --   3172.1814              3203.9035              3254.0450
 Red. masses --      1.0903                 1.0914                 1.0932
 Frc consts  --      6.4639                 6.6005                 6.8201
 IR Inten    --     30.7293                 3.4309                 0.3025

                     88                     89                     90
                      A                      A                      A
 Frequencies --   3262.7931              3464.7184              3697.4531
 Red. masses --      1.0936                 1.0747                 1.0642
 Frc consts  --      6.8592                 7.6008                 8.5721
 IR Inten    --      0.4132               103.7135               113.4422

 - Thermochemistry -
 -------------------
 Temperature   298.150 Kelvin.  Pressure   1.00000 Atm.
 Atom     1 has atomic number  6 and mass  12.00000

 Molecular mass:   312.02385 amu.
 Principal axes and moments of inertia in atomic units:
                           1         2         3
     Eigenvalues --  4976.469296857.963147679.16393
           X            0.99905   0.04335  -0.00378
           Y           -0.04351   0.99373  -0.10304
           Z           -0.00071   0.10311   0.99467
 This molecule is an asymmetric top.
 Rotational symmetry number  1.
 Warning -- assumption of classical behavior for rotation
           may cause significant error
 Rotational temperatures (Kelvin)      0.01740     0.01263     0.01128
 Rotational constants (GHZ):           0.36265     0.26316     0.23502
 Zero-point vibrational energy     617460.0 (Joules/Mol)
                                  147.57648 (Kcal/Mol)
 Warning -- explicit consideration of  31 degrees of freedom as
           vibrations may cause significant error
 Vibrational temperatures:     26.87    34.94    59.77    80.58   113.93
          (Kelvin)            125.35   182.33   219.05   243.06   287.14
                              296.32   298.91   326.75   352.69   373.52
                              379.03   426.97   485.89   491.77   503.23
                              577.83   631.20   661.33   692.41   717.48
                              749.02   793.62   803.39   813.36   850.57
                              866.65   919.77   970.06   981.97  1065.19
                             1081.82  1088.09  1139.00  1153.31  1228.27
                             1245.01  1272.40  1283.17  1321.23  1400.60
                             1418.52  1455.07  1458.85  1491.18  1510.50
                             1546.44  1555.84  1619.30  1643.52  1660.72
                             1712.51  1746.20  1751.45  1860.77  1897.86
                             1921.03  1946.01  1970.29  2003.41  2053.23
                             2071.04  2088.18  2119.10  2162.98  2166.15
                             2169.12  2180.81  2190.25  2210.12  2272.27
                             2359.77  2377.48  2577.63  4399.37  4424.29
                             4486.86  4515.47  4524.16  4539.28  4564.06
                             4609.70  4681.85  4694.43  4984.96  5319.81

 Zero-point correction=                           0.235178 (Hartree/Particle)
 Thermal correction to Energy=                    0.254093
 Thermal correction to Enthalpy=                  0.255037
 Thermal correction to Gibbs Free Energy=         0.186106
 Sum of electronic and zero-point Energies=          -1671.064614
 Sum of electronic and thermal Energies=             -1671.045699
 Sum of electronic and thermal Enthalpies=           -1671.044755
 Sum of electronic and thermal Free Energies=        -1671.113686

                     E (Thermal)             CV                S
                      KCal/Mol        Cal/Mol-Kelvin    Cal/Mol-Kelvin
 Total                  159.446             70.611            145.078
 Electronic               0.000              0.000              0.000
 Translational            0.889              2.981             43.110
 Rotational               0.889              2.981             33.927
 Vibrational            157.668             64.649             68.041
 Vibration     1          0.593              1.986              6.770
 Vibration     2          0.593              1.985              6.249
 Vibration     3          0.594              1.981              5.184
 Vibration     4          0.596              1.975              4.593
 Vibration     5          0.600              1.963              3.911
 Vibration     6          0.601              1.958              3.724
 Vibration     7          0.611              1.926              2.995
 Vibration     8          0.619              1.900              2.644
 Vibration     9          0.625              1.881              2.447
 Vibration    10          0.638              1.840              2.137
 Vibration    11          0.640              1.831              2.079
 Vibration    12          0.641              1.829              2.063
 Vibration    13          0.651              1.800              1.902
 Vibration    14          0.660              1.771              1.765
 Vibration    15          0.668              1.746              1.664
 Vibration    16          0.670              1.740              1.639
 Vibration    17          0.690              1.680              1.435
 Vibration    18          0.718              1.600              1.223
 Vibration    19          0.721              1.592              1.204
 Vibration    20          0.727              1.576              1.167
 Vibration    21          0.767              1.467              0.957
 Vibration    22          0.799              1.386              0.831
 Vibration    23          0.818              1.340              0.767
 Vibration    24          0.838              1.292              0.707
 Vibration    25          0.854              1.253              0.661
 Vibration    26          0.876              1.204              0.609
 Vibration    27          0.907              1.136              0.541
 Vibration    28          0.914              1.121              0.527
 Vibration    29          0.921              1.106              0.513
 Vibration    30          0.949              1.051              0.465
 Vibration    31          0.961              1.027              0.446

 Optimization completed.
    -- Stationary point found.
 Normal termination of Gaussian 16 at Sat Dec 12 16:42:23 2020.

 ----------------------------------------------------------------------
 # B3LYP/6-311++G(d,p) empiricaldispersion=gd3bj scf=xqc pop=npa geom=c
 heck
 ----------------------------------------------------------------------

 ----------------------------------------
 CID_102748987_JID_10619_Energie_neutraal
 ----------------------------------------
 Structure from the checkpoint file:  "JID_10619.chk"
 Charge =  0 Multiplicity = 1

 SCF Done:  E(RB3LYP) =  -1671.60198635     A.U. after   17 cycles
 Normal termination of Gaussian 16 at Sat Dec 12 16:49:30 2020.

 ----------------------------------------------------------------------
 # B3LYP/6-311++G(d,p) empiricaldispersion=gd3bj scf=xqc pop=npa geom=c
 heck
 ----------------------------------------------------------------------

 --------------------------------------
 CID_102748987_JID_10619_Energie_kation
 --------------------------------------
 Structure from the checkpoint file:  "JID_10619.chk"
 Charge =  1 Multiplicity = 2

 SCF Done:  E(UB3LYP) =  -1671.27771110     A.U. after   33 cycles
 SCF Done:  E(UB3LYP) =  -1671.27771110     a.u. after    2 cycles
 Normal termination of Gaussian 16 at Sat Dec 12 17:28:46 2020.
 Gaussian 16:  ES64L-G16RevA.03 25-Dec-2016

 ----------------------------------------------------------------------
 # B3LYP/6-311++G(d,p) empiricaldispersion=gd3bj scf=xqc pop=npa geom=c
 heck
 ----------------------------------------------------------------------

 -------------------------------------
 CID_102748987_JID_10619_Energie_anion
 -------------------------------------
 Structure from the checkpoint file:  "JID_10619.chk"
 Charge = -1 Multiplicity = 2

                         Standard orientation:
 ---------------------------------------------------------------------
 Center     Atomic      Atomic             Coordinates (Angstroms)
 Number     Number       Type             X           Y           Z
 ---------------------------------------------------------------------
      1          6           0        3.667768    2.594296    0.417940
      2          6           0        3.168433    1.187341    0.214912
      3          7           0        3.779666    0.227807    0.931592
      4          6           0        3.358772   -1.030056    0.763667
      5          6           0        2.336634   -1.415911   -0.100798
      6          6           0        1.694101   -0.411127   -0.829114
      7          6           0        2.117831    0.911237   -0.663156
      8          7           0        0.638836   -0.698816   -1.731686
      9         16           0       -0.732112   -1.497469   -1.143084
     10          8           0       -1.753968   -1.366772   -2.173644
     11          8           0       -0.316914   -2.805994   -0.645280
     12          6           0       -1.229940   -0.516301    0.287792
     13          6           0       -1.653575    0.801337    0.184213
     14         16           0       -2.153608    1.414092    1.732214
     15          6           0       -1.764706   -0.078828    2.488109
     16          6           0       -1.284118   -1.035919    1.623408
     17          6           0       -0.876565   -2.404834    2.093082
     18          6           0       -1.672223    1.705385   -0.974406
     19          8           0       -1.048114    1.571559   -2.013017
     20          8           0       -2.458003    2.781800   -0.751024
     21          1           0        3.083950    3.319907   -0.155881
     22          1           0        3.623358    2.863099    1.478685
     23          1           0        4.717143    2.671177    0.111932
     24          1           0        3.877245   -1.786004    1.351119
     25          1           0        2.048905   -2.453146   -0.212103
     26          1           0        1.626530    1.712409   -1.206749
     27          1           0        0.293799    0.131381   -2.218901
     28          1           0       -1.904844   -0.194318    3.554926
     29          1           0       -1.430211   -3.190541    1.574664
     30          1           0        0.184155   -2.584018    1.898740
     31          1           0       -1.055972   -2.492795    3.168395
     32          1           0       -2.380536    3.349486   -1.540422
 ---------------------------------------------------------------------

 SCF Done:  E(UB3LYP) =  -1671.64679450     A.U. after   24 cycles

 The electronic state is 2-A.
 Alpha  occ. eigenvalues --  -88.94054 -88.73570 -19.03740 -18.99477 -18.99081
 Alpha  occ. eigenvalues --  -18.96673 -14.22992 -14.20627 -10.15398 -10.13097
 Alpha  occ. eigenvalues --  -10.11904 -10.10996 -10.07983 -10.07826 -10.07580
 Alpha  occ. eigenvalues --  -10.06528 -10.06379 -10.06075 -10.05634 -10.05238
 Alpha  occ. eigenvalues --   -8.00128  -7.82259  -5.96447  -5.96383  -5.96200
 Alpha  occ. eigenvalues --   -5.78553  -5.78187  -5.77891  -0.99918  -0.97670
 Alpha  occ. eigenvalues --   -0.88992  -0.88207  -0.85065  -0.82414  -0.75640
 Alpha  occ. eigenvalues --   -0.69018  -0.68832  -0.65008  -0.62543  -0.61072
 Alpha  occ. eigenvalues --   -0.57693  -0.54318  -0.53458  -0.51286  -0.49212
 Alpha  occ. eigenvalues --   -0.44491  -0.44002  -0.43099  -0.39709  -0.38338
 Alpha  occ. eigenvalues --   -0.37959  -0.37081  -0.35773  -0.34450  -0.34137
 Alpha  occ. eigenvalues --   -0.33047  -0.32620  -0.32188  -0.32005  -0.30982
 Alpha  occ. eigenvalues --   -0.30432  -0.30078  -0.29212  -0.28717  -0.27031
 Alpha  occ. eigenvalues --   -0.26640  -0.25668  -0.24715  -0.23519  -0.22339
 Alpha  occ. eigenvalues --   -0.21709  -0.20435  -0.20277  -0.18783  -0.18482
 Alpha  occ. eigenvalues --   -0.16472  -0.16112  -0.15715  -0.14367  -0.13017
 Alpha  occ. eigenvalues --   -0.11622   0.01554
 Alpha virt. eigenvalues --    0.06702   0.07306   0.07829   0.08317   0.08898
 Alpha virt. eigenvalues --    0.09233   0.10605   0.11088   0.11420   0.11805
 Alpha virt. eigenvalues --    0.12357   0.12929   0.13480   0.14039   0.14480

  Beta  occ. eigenvalues --  -88.94051 -88.73479 -19.03663 -18.99440 -18.99050
  Beta  occ. eigenvalues --  -18.96342 -14.22965 -14.20629 -10.15099 -10.13094
  Beta  occ. eigenvalues --  -10.11896 -10.10993 -10.07984 -10.07827 -10.07579
  Beta  occ. eigenvalues --  -10.06664 -10.06123 -10.05757 -10.05344 -10.05231
  Beta  occ. eigenvalues --   -8.00124  -7.82177  -5.96430  -5.96374  -5.96206
  Beta  occ. eigenvalues --   -5.78506  -5.78145  -5.77598  -0.99834  -0.97325
  Beta  occ. eigenvalues --   -0.88907  -0.87725  -0.85050  -0.82358  -0.75253
  Beta  occ. eigenvalues --   -0.69000  -0.68819  -0.64809  -0.61925  -0.61032
  Beta  occ. eigenvalues --   -0.57179  -0.54249  -0.53410  -0.50823  -0.49078
  Beta  occ. eigenvalues --   -0.44139  -0.43822  -0.43050  -0.39617  -0.38170
  Beta  occ. eigenvalues --   -0.37906  -0.36938  -0.35401  -0.34394  -0.34112
  Beta  occ. eigenvalues --   -0.32918  -0.32195  -0.32078  -0.31174  -0.30837
  Beta  occ. eigenvalues --   -0.30271  -0.30063  -0.29060  -0.28573  -0.26994
  Beta  occ. eigenvalues --   -0.26416  -0.25486  -0.24206  -0.22986  -0.22121
  Beta  occ. eigenvalues --   -0.21419  -0.20246  -0.19433  -0.18500  -0.17969
  Beta  occ. eigenvalues --   -0.16457  -0.16074  -0.15478  -0.14102  -0.11527
  Beta  occ. eigenvalues --   -0.09875
  Beta virt. eigenvalues --    0.06724   0.07217   0.07609   0.08300   0.08355
  Beta virt. eigenvalues --    0.08919   0.09227   0.10594   0.11077   0.11404
  Beta virt. eigenvalues --    0.11818   0.12352   0.13003   0.13520   0.14088

 Mulliken charges and spin densities:
               1          2
     1  C   -0.734926   0.000945
     2  C   -0.546391  -0.002285
     3  N   -0.025612  -0.001632
     4  C   -0.368493   0.007495
     5  C    0.080198  -0.044894
     6  C    0.028580  -0.151865
     7  C    0.414684   0.170084
     8  N   -0.193750   0.005363
     9  S    0.155794   0.065884
    10  O   -0.085846  -0.013255
    11  O   -0.168930   0.002761
    12  C   -0.386190   0.221951
    13  C    0.145396   0.114563
    14  S   -0.409007   0.154859
    15  C   -0.262728   0.202588
    16  C   -0.032121  -0.108498
    17  C   -0.747510   0.023039
    18  C    0.464362   0.228351
    19  O   -0.416798   0.116835
    20  O   -0.185090   0.013092
    21  H    0.127184   0.002062
    22  H    0.161738   0.000121
    23  H    0.147872   0.001346
    24  H    0.164714   0.000349
    25  H    0.238292  -0.000515
    26  H    0.200432   0.015962
    27  H    0.324083  -0.002555
    28  H    0.202360  -0.015740
    29  H    0.186794  -0.002348
    30  H    0.161585  -0.003624
    31  H    0.107201  -0.001285
    32  H    0.252124   0.000848
 Sum of Mulliken charges =  -1.00000   1.00000

 Dipole moment (field-independent basis, Debye):
    X=              3.5185    Y=              1.7825    Z=              1.7107  Tot=              4.2993
 Quadrupole moment (field-independent basis, Debye-Ang):
   XX=           -167.4148   YY=           -147.3808   ZZ=           -152.6089
   XY=             -0.3665   XZ=             -6.6164   YZ=            -10.3987

 Summary of Natural Population Analysis:

                                       Natural Population
                Natural  -----------------------------------------------
    Atom  No    Charge         Core      Valence    Rydberg      Total
 -----------------------------------------------------------------------
      C    1   -0.29688      0.99964     2.29205    0.00520     3.29688
      C    2    0.11017      0.99956     1.87776    0.01250     2.88983
      N    3   -0.25509      0.99968     2.74335    0.01207     3.75509
      C    4    0.03266      0.99961     1.95375    0.01399     2.96734
      C    5   -0.13803      0.99950     2.13075    0.00777     3.13803
      C    6    0.09667      0.99948     1.88916    0.01470     2.90333
      C    7   -0.13247      0.99946     2.12594    0.00707     3.13247
      N    8   -0.42815      0.99967     2.91326    0.01521     3.92815
      S    9    1.12349      4.99918     1.77669    0.10064     6.87651
      O   10   -0.45302      0.99990     3.44760    0.00552     4.45302
      O   11   -0.47153      0.99990     3.46371    0.00791     4.47153
      C   12   -0.09524      0.99921     2.07701    0.01903     3.09524
      C   13   -0.10847      0.99938     2.09107    0.01802     3.10847
      S   14    0.26032      4.99942     2.71824    0.02202     7.73968
      C   15   -0.14269      0.99948     2.13249    0.01072     3.14269
      C   16   -0.07061      0.99945     2.06159    0.00958     3.07061
      C   17   -0.28572      0.99963     2.28143    0.00467     3.28572
      C   18    0.42895      0.99961     1.54841    0.02303     2.57105
      O   19   -0.31124      0.99985     3.30367    0.00771     4.31124
      O   20   -0.34446      0.99988     3.33915    0.00544     4.34446
      H   21    0.09932      0.00000     0.39997    0.00072     0.40068
      H   22    0.10687      0.00000     0.39214    0.00099     0.39313
      H   23    0.10322      0.00000     0.39577    0.00102     0.39678
      H   24    0.08605      0.00000     0.41272    0.00124     0.41395
      H   25    0.11928      0.00000     0.37968    0.00104     0.38072
      H   26    0.11207      0.00000     0.38651    0.00143     0.38793
      H   27    0.22028      0.00000     0.27760    0.00212     0.27972
      H   28    0.09735      0.00000     0.40172    0.00093     0.40265
      H   29    0.10726      0.00000     0.39166    0.00108     0.39274
      H   30    0.10444      0.00000     0.39430    0.00126     0.39556
      H   31    0.09260      0.00000     0.40646    0.00095     0.40740
      H   32    0.23260      0.00000     0.26464    0.00276     0.26740
 =======================================================================
   * Total *    0.00000     27.99148    52.67022    0.33829    81.00000

 Normal termination of Gaussian 16 at Sat Dec 12 17:42:23 2020.
