 Gaussian 16, Revision A.03,

 -----------------------------------------------------------
 # opt freq B3LYP/6-31G(d) empiricaldispersion=gd3bj scf=xqc
 -----------------------------------------------------------

 ------------------------------
 CID_105551480_JID_733_neutraal
 ------------------------------
 Symbolic Z-matrix:
 Charge =  0 Multiplicity = 1

 SCF Done:  E(RB3LYP) =  -425.222713215     A.U. after   13 cycles
 SCF Done:  E(RB3LYP) =  -425.225585011     A.U. after   11 cycles
 SCF Done:  E(RB3LYP) =  -425.226158121     A.U. after   11 cycles
 SCF Done:  E(RB3LYP) =  -425.226557984     A.U. after   11 cycles
 SCF Done:  E(RB3LYP) =  -425.226653588     A.U. after   10 cycles
 SCF Done:  E(RB3LYP) =  -425.226697084     A.U. after    9 cycles
 SCF Done:  E(RB3LYP) =  -425.226716416     A.U. after   10 cycles
 SCF Done:  E(RB3LYP) =  -425.226723233     A.U. after    9 cycles
 SCF Done:  E(RB3LYP) =  -425.226727205     A.U. after    8 cycles
 SCF Done:  E(RB3LYP) =  -425.226733918     A.U. after    9 cycles
 SCF Done:  E(RB3LYP) =  -425.226740918     A.U. after    9 cycles
 SCF Done:  E(RB3LYP) =  -425.226743884     A.U. after    9 cycles
 SCF Done:  E(RB3LYP) =  -425.226744912     A.U. after    7 cycles
 SCF Done:  E(RB3LYP) =  -425.226744963     A.U. after    7 cycles
 SCF Done:  E(RB3LYP) =  -425.226744944     A.U. after    6 cycles
 Optimization completed.
    -- Stationary point found.

 1\1\GINC-NODE201\FOpt\RB3LYP\6-31G(d)\C8H18N2\VSC10255\08-Dec-2020\0\\
 # opt freq B3LYP/6-31G(d) empiricaldispersion=gd3bj scf=xqc\\CID_10555
 1480_JID_733_neutraal\\0,1\C,1.0192077058,-0.0032146997,0.0074956537\C
 ,0.0910987366,-0.9273158028,0.7923885332\N,0.3522687619,-0.8958881469,
 2.2228830123\C,0.0710770495,0.3945178887,2.8720781267\C,-0.1389618205,
 0.0649345875,4.3681716142\C,-0.1654379051,-1.4882300855,4.456385539\C,
 -0.4049715006,-1.884389661,2.9864397057\C,-1.2811014294,-2.009361103,5
 .3666824954\C,1.1869172421,-2.0376655956,4.9624588047\N,2.3332292428,-

 Normal termination of Gaussian 16 at Tue Dec  8 12:31:04 2020.

 --------------------------------------------------------------------
 #N Geom=AllCheck Guess=TCheck SCRF=Check GenChk RB3LYP/6-31G(d) Freq
 --------------------------------------------------------------------

 Structure from the checkpoint file:  "JID_733.chk"
 ------------------------------
 CID_105551480_JID_733_neutraal
 ------------------------------
 Charge =  0 Multiplicity = 1

 SCF Done:  E(RB3LYP) =  -425.226744944     A.U. after    1 cycles

  Exact polarizability: 109.181   0.141  93.491  -1.233  -0.393  87.781
 Approx polarizability: 132.374   1.944 133.834  -1.332  -0.435 128.767

                      1                      2                      3
                      A                      A                      A
 Frequencies --     41.9581                87.9254               127.7403
 Red. masses --      2.0960                 2.7541                 2.1478
 Frc consts  --      0.0022                 0.0125                 0.0206
 IR Inten    --      1.2083                 0.7199                 0.2529

                      4                      5                      6
                      A                      A                      A
 Frequencies --    161.9524               212.7007               238.1433
 Red. masses --      2.2447                 1.8124                 1.4123
 Frc consts  --      0.0347                 0.0483                 0.0472
 IR Inten    --      3.5858                 1.2774                 0.6798

                      7                      8                      9
                      A                      A                      A
 Frequencies --    249.6401               269.1415               312.1608
 Red. masses --      1.4628                 1.8749                 1.7522
 Frc consts  --      0.0537                 0.0800                 0.1006
 IR Inten    --      3.9830                 0.2431                 7.4381

                     10                     11                     12
                      A                      A                      A
 Frequencies --    335.2323               349.8984               376.2529
 Red. masses --      2.2670                 1.2989                 2.0714
 Frc consts  --      0.1501                 0.0937                 0.1728
 IR Inten    --      6.7955                68.5721                19.2041

                     13                     14                     15
                      A                      A                      A
 Frequencies --    399.4904               469.2556               491.4259
 Red. masses --      2.3389                 2.4390                 2.5039
 Frc consts  --      0.2199                 0.3164                 0.3563
 IR Inten    --      9.7039                 2.3052                 5.7659

                     16                     17                     18
                      A                      A                      A
 Frequencies --    575.3312               605.9090               793.4731
 Red. masses --      3.6072                 3.5847                 3.1811
 Frc consts  --      0.7035                 0.7754                 1.1800
 IR Inten    --      4.7652                 2.6608                 7.6375

                     19                     20                     21
                      A                      A                      A
 Frequencies --    813.1618               826.2024               869.4557
 Red. masses --      1.3249                 1.1799                 2.2388
 Frc consts  --      0.5162                 0.4745                 0.9972
 IR Inten    --      1.5576                 0.1326                13.9792

                     22                     23                     24
                      A                      A                      A
 Frequencies --    901.1139               912.6942               943.6058
 Red. masses --      1.4685                 1.9619                 1.9505
 Frc consts  --      0.7025                 0.9629                 1.0232
 IR Inten    --     69.5759                13.6851                 6.2892

                     25                     26                     27
                      A                      A                      A
 Frequencies --    975.0005              1004.7953              1016.7461
 Red. masses --      2.0002                 1.6483                 1.7582
 Frc consts  --      1.1203                 0.9805                 1.0709
 IR Inten    --      2.9738                10.6651                 4.1164

                     28                     29                     30
                      A                      A                      A
 Frequencies --   1030.4011              1062.4750              1089.4906
 Red. masses --      1.9892                 1.6836                 2.2815
 Frc consts  --      1.2443                 1.1198                 1.5956
 IR Inten    --      4.1204                 7.4320                 2.5610

                     31                     32                     33
                      A                      A                      A
 Frequencies --   1102.9209              1139.6283              1144.3865
 Red. masses --      2.2459                 1.8505                 1.9394
 Frc consts  --      1.6096                 1.4160                 1.4964
 IR Inten    --      6.5395                 1.5928                21.4376

                     34                     35                     36
                      A                      A                      A
 Frequencies --   1178.0886              1187.7306              1214.1202
 Red. masses --      1.4220                 1.9165                 2.0021
 Frc consts  --      1.1628                 1.5929                 1.7389
 IR Inten    --      4.1242                16.2591                11.7567

                     37                     38                     39
                      A                      A                      A
 Frequencies --   1241.3361              1263.4171              1272.2542
 Red. masses --      2.2989                 1.4679                 1.4563
 Frc consts  --      2.0871                 1.3805                 1.3888
 IR Inten    --     26.9249                 4.4220                 6.0174

                     40                     41                     42
                      A                      A                      A
 Frequencies --   1281.6445              1318.8439              1332.4483
 Red. masses --      1.4678                 1.4670                 1.2956
 Frc consts  --      1.4206                 1.5034                 1.3553
 IR Inten    --      2.2585                 1.9262                10.1836

                     43                     44                     45
                      A                      A                      A
 Frequencies --   1340.1377              1345.8370              1377.7351
 Red. masses --      1.3338                 1.3587                 1.5015
 Frc consts  --      1.4114                 1.4500                 1.6793
 IR Inten    --      2.5466                11.1285                 9.5499

                     46                     47                     48
                      A                      A                      A
 Frequencies --   1404.2899              1423.9485              1436.5684
 Red. masses --      1.4861                 1.3263                 1.2889
 Frc consts  --      1.7266                 1.5844                 1.5672
 IR Inten    --     26.3598                 1.0158                 1.1467

                     49                     50                     51
                      A                      A                      A
 Frequencies --   1445.9020              1461.3693              1511.7500
 Red. masses --      1.3775                 1.3705                 1.0878
 Frc consts  --      1.6967                 1.7244                 1.4647
 IR Inten    --     24.8864                 2.0973                 5.2015

                     52                     53                     54
                      A                      A                      A
 Frequencies --   1520.4324              1523.4989              1526.6956
 Red. masses --      1.0557                 1.0520                 1.0519
 Frc consts  --      1.4380                 1.4387                 1.4446
 IR Inten    --      3.4420                 5.8163                 3.0602

                     55                     56                     57
                      A                      A                      A
 Frequencies --   1527.7828              1536.9225              1540.9209
 Red. masses --      1.0656                 1.0745                 1.0722
 Frc consts  --      1.4654                 1.4954                 1.5000
 IR Inten    --      1.7897                 3.1859                 0.2391

                     58                     59                     60
                      A                      A                      A
 Frequencies --   1547.9357              1557.2830              1680.9570
 Red. masses --      1.0824                 1.1004                 1.0844
 Frc consts  --      1.5281                 1.5723                 1.8053
 IR Inten    --      3.5100                 4.1562                48.1998

                     61                     62                     63
                      A                      A                      A
 Frequencies --   2905.3124              2913.5896              2929.6201
 Red. masses --      1.0735                 1.0734                 1.0740
 Frc consts  --      5.3387                 5.3686                 5.4308
 IR Inten    --     16.4345               120.6584                99.6146

                     64                     65                     66
                      A                      A                      A
 Frequencies --   2939.9810              3034.4557              3040.9132
 Red. masses --      1.0743                 1.0810                 1.0413
 Frc consts  --      5.4709                 5.8643                 5.6732
 IR Inten    --    101.8378                33.7071                48.0837

                     67                     68                     69
                      A                      A                      A
 Frequencies --   3055.9312              3059.9550              3065.6625
 Red. masses --      1.0353                 1.0874                 1.0864
 Frc consts  --      5.6966                 5.9986                 6.0155
 IR Inten    --     19.4307                 4.8661                69.1263

                     70                     71                     72
                      A                      A                      A
 Frequencies --   3074.1820              3098.0215              3103.6106
 Red. masses --      1.0674                 1.0886                 1.1009
 Frc consts  --      5.9432                 6.1559                 6.2477
 IR Inten    --     28.2741                24.9377                38.1793

                     73                     74                     75
                      A                      A                      A
 Frequencies --   3113.2627              3125.3942              3128.5644
 Red. masses --      1.1025                 1.1020                 1.1029
 Frc consts  --      6.2961                 6.3424                 6.3600
 IR Inten    --     33.2532                38.2938                34.4461

                     76                     77                     78
                      A                      A                      A
 Frequencies --   3139.7440              3453.5200              3553.5634
 Red. masses --      1.0997                 1.0507                 1.0926
 Frc consts  --      6.3875                 7.3835                 8.1292
 IR Inten    --     17.2094                41.4117                 7.4088

 - Thermochemistry -
 -------------------
 Temperature   298.150 Kelvin.  Pressure   1.00000 Atm.
 Atom     1 has atomic number  6 and mass  12.00000

 Molecular mass:   142.14700 amu.
 Principal axes and moments of inertia in atomic units:
                           1         2         3
     Eigenvalues --   844.836092032.514162255.27873
           X            0.99994  -0.01023  -0.00491
           Y            0.01018   0.99988  -0.01133
           Z            0.00503   0.01128   0.99992
 This molecule is an asymmetric top.
 Rotational symmetry number  1.
 Warning -- assumption of classical behavior for rotation
           may cause significant error
 Rotational temperatures (Kelvin)      0.10252     0.04261     0.03840
 Rotational constants (GHZ):           2.13620     0.88794     0.80023
 Zero-point vibrational energy     685848.1 (Joules/Mol)
                                  163.92162 (Kcal/Mol)
 Warning -- explicit consideration of  17 degrees of freedom as
           vibrations may cause significant error
 Vibrational temperatures:     60.37   126.51   183.79   233.01   306.03
          (Kelvin)            342.64   359.18   387.23   449.13   482.32
                              503.43   541.34   574.78   675.15   707.05
                              827.77   871.77  1141.63  1169.96  1188.72
                             1250.95  1296.50  1313.16  1357.64  1402.81
                             1445.68  1462.87  1482.52  1528.66  1567.53
                             1586.86  1639.67  1646.52  1695.01  1708.88
                             1746.85  1786.01  1817.78  1830.49  1844.00
                             1897.52  1917.10  1928.16  1936.36  1982.25
                             2020.46  2048.74  2066.90  2080.33  2102.58
                             2175.07  2187.56  2191.98  2196.57  2198.14
                             2211.29  2217.04  2227.13  2240.58  2418.52
                             4180.10  4192.01  4215.07  4229.98  4365.90
                             4375.20  4396.80  4402.59  4410.80  4423.06
                             4457.36  4465.40  4479.29  4496.75  4501.31
                             4517.39  4968.85  5112.79

 Zero-point correction=                           0.261226 (Hartree/Particle)
 Thermal correction to Energy=                    0.272490
 Thermal correction to Enthalpy=                  0.273434
 Thermal correction to Gibbs Free Energy=         0.224716
 Sum of electronic and zero-point Energies=           -424.965519
 Sum of electronic and thermal Energies=              -424.954255
 Sum of electronic and thermal Enthalpies=            -424.953311
 Sum of electronic and thermal Free Energies=         -425.002029

                     E (Thermal)             CV                S
                      KCal/Mol        Cal/Mol-Kelvin    Cal/Mol-Kelvin
 Total                  170.990             43.099            102.536
 Electronic               0.000              0.000              0.000
 Translational            0.889              2.981             40.766
 Rotational               0.889              2.981             29.739
 Vibrational            169.212             37.137             32.031
 Vibration     1          0.595              1.980              5.164
 Vibration     2          0.601              1.958              3.706
 Vibration     3          0.611              1.925              2.980
 Vibration     4          0.622              1.889              2.527
 Vibration     5          0.644              1.822              2.020
 Vibration     6          0.656              1.782              1.817
 Vibration     7          0.662              1.763              1.733
 Vibration     8          0.674              1.730              1.602
 Vibration     9          0.701              1.651              1.351
 Vibration    10          0.716              1.605              1.235
 Vibration    11          0.727              1.575              1.167
 Vibration    12          0.747              1.521              1.054
 Vibration    13          0.766              1.471              0.965
 Vibration    14          0.826              1.318              0.740
 Vibration    15          0.847              1.269              0.680
 Vibration    16          0.932              1.085              0.494
 Vibration    17          0.965              1.019              0.440

 Optimization completed.
    -- Stationary point found.

 1\1\GINC-NODE201\Freq\RB3LYP\6-31G(d)\C8H18N2\VSC10255\08-Dec-2020\0\\
 #N Geom=AllCheck Guess=TCheck SCRF=Check GenChk RB3LYP/6-31G(d) Freq\\
 CID_105551480_JID_733_neutraal\\0,1\C,1.0192077058,-0.0032146997,0.007
 4956537\C,0.0910987366,-0.9273158028,0.7923885332\N,0.3522687619,-0.89
 58881469,2.2228830123\C,0.0710770495,0.3945178887,2.8720781267\C,-0.13
 89618205,0.0649345875,4.3681716142\C,-0.1654379051,-1.4882300855,4.456
 385539\C,-0.4049715006,-1.884389661,2.9864397057\C,-1.2811014294,-2.00
 9361103,5.3666824954\C,1.1869172421,-2.0376655956,4.9624588047\N,2.333

 Normal termination of Gaussian 16 at Tue Dec  8 12:44:08 2020.

 ----------------------------------------------------------------------
 # B3LYP/6-311++G(d,p) empiricaldispersion=gd3bj scf=xqc pop=npa geom=c
 heck
 ----------------------------------------------------------------------

 --------------------------------------
 CID_105551480_JID_733_Energie_neutraal
 --------------------------------------
 Structure from the checkpoint file:  "JID_733.chk"
 Charge =  0 Multiplicity = 1

 SCF Done:  E(RB3LYP) =  -425.352941665     A.U. after   13 cycles
 Normal termination of Gaussian 16 at Tue Dec  8 13:04:38 2020.

 ----------------------------------------------------------------------
 # B3LYP/6-311++G(d,p) empiricaldispersion=gd3bj scf=xqc pop=npa geom=c
 heck
 ----------------------------------------------------------------------

 ------------------------------------
 CID_105551480_JID_733_Energie_kation
 ------------------------------------
 Structure from the checkpoint file:  "JID_733.chk"
 Charge =  1 Multiplicity = 2

 SCF Done:  E(UB3LYP) =  -425.063747713     A.U. after   19 cycles
 Normal termination of Gaussian 16 at Tue Dec  8 13:12:29 2020.
 Gaussian 16:  ES64L-G16RevA.03 25-Dec-2016

 -----------------------------------
 CID_105551480_JID_733_Energie_anion
 -----------------------------------
 Structure from the checkpoint file:  "JID_733.chk"
 Charge = -1 Multiplicity = 2

                         Standard orientation:
 ---------------------------------------------------------------------
 Center     Atomic      Atomic             Coordinates (Angstroms)
 Number     Number       Type             X           Y           Z
 ---------------------------------------------------------------------
      1          6           0       -3.422668    0.314469   -0.007748
      2          6           0       -2.291830   -0.466289   -0.673351
      3          7           0       -0.979392   -0.069700   -0.187827
      4          6           0       -0.728996   -0.375147    1.229803
      5          6           0        0.809841   -0.414922    1.376212
      6          6           0        1.371967   -0.324791   -0.071785
      7          6           0        0.131490   -0.678428   -0.915122
      8          6           0        2.519314   -1.307501   -0.322381
      9          6           0        1.864046    1.105327   -0.387180
     10          7           0        0.934135    2.136258    0.076425
     11          1           0       -3.478623    0.106025    1.065734
     12          1           0       -4.387182    0.043314   -0.450412
     13          1           0       -3.270180    1.391319   -0.136842
     14          1           0       -2.454381   -1.554630   -0.528925
     15          1           0       -2.313353   -0.286305   -1.755439
     16          1           0       -1.192010    0.382615    1.868094
     17          1           0       -1.167481   -1.354897    1.498654
     18          1           0        1.123176   -1.349653    1.852613
     19          1           0        1.174493    0.417042    1.981529
     20          1           0        0.021714   -1.780366   -0.984841
     21          1           0        0.181945   -0.287630   -1.939089
     22          1           0        2.886575   -1.237717   -1.353996
     23          1           0        3.363567   -1.102002    0.345750
     24          1           0        2.196504   -2.340366   -0.149938
     25          1           0        2.822566    1.260200    0.127877
     26          1           0        2.082016    1.148203   -1.471806
     27          1           0        1.209102    3.044327   -0.291364
     28          1           0       -0.000637    1.918303   -0.268470
 ---------------------------------------------------------------------

 SCF Done:  E(UB3LYP) =  -425.334237869     A.U. after   27 cycles

 The electronic state is 2-A.
 Alpha  occ. eigenvalues --  -14.19555 -14.17300 -10.08567 -10.08165 -10.07949
 Alpha  occ. eigenvalues --  -10.07822 -10.07456 -10.05511 -10.05431 -10.05401
 Alpha  occ. eigenvalues --   -0.83012  -0.76704  -0.69772  -0.64348  -0.62231
 Alpha  occ. eigenvalues --   -0.56565  -0.54440  -0.51861  -0.46341  -0.43381
 Alpha  occ. eigenvalues --   -0.39686  -0.38072  -0.35480  -0.34580  -0.33936
 Alpha  occ. eigenvalues --   -0.33485  -0.30781  -0.30191  -0.29327  -0.28557
 Alpha  occ. eigenvalues --   -0.27192  -0.25938  -0.25161  -0.24526  -0.23062
 Alpha  occ. eigenvalues --   -0.22240  -0.21084  -0.20578  -0.12931  -0.11287
 Alpha  occ. eigenvalues --    0.04880
 Alpha virt. eigenvalues --    0.06875   0.07503   0.08262   0.09084   0.09738
 Alpha virt. eigenvalues --    0.10008   0.10268   0.10977   0.11797   0.12313
 Alpha virt. eigenvalues --    0.12808   0.12937   0.13487   0.14299   0.14965

  Beta  occ. eigenvalues --  -14.19539 -14.17283 -10.08545 -10.08150 -10.07927
  Beta  occ. eigenvalues --  -10.07797 -10.07457 -10.05484 -10.05415 -10.05373
  Beta  occ. eigenvalues --   -0.82983  -0.76674  -0.69746  -0.64309  -0.62196
  Beta  occ. eigenvalues --   -0.56505  -0.54376  -0.51794  -0.46271  -0.43333
  Beta  occ. eigenvalues --   -0.39658  -0.38014  -0.35438  -0.34548  -0.33901
  Beta  occ. eigenvalues --   -0.33445  -0.30747  -0.30156  -0.29280  -0.28516
  Beta  occ. eigenvalues --   -0.27161  -0.25903  -0.25113  -0.24486  -0.23027
  Beta  occ. eigenvalues --   -0.22199  -0.21054  -0.20550  -0.12899  -0.11206
  Beta virt. eigenvalues --    0.07117   0.07746   0.08264   0.08980   0.09622
  Beta virt. eigenvalues --    0.10310   0.10620   0.10833   0.11340   0.12235
  Beta virt. eigenvalues --    0.12647   0.13301   0.13413   0.13866   0.14529

 Mulliken charges and spin densities:
               1          2
     1  C    0.715896  -1.276187
     2  C    0.051236  -0.143056
     3  N    0.019641   0.173768
     4  C   -0.210932  -0.107454
     5  C    0.998645  -1.442765
     6  C   -2.231421   2.798584
     7  C    0.372572  -1.045481
     8  C    1.120792  -1.631769
     9  C    0.932503  -1.557235
    10  N   -0.503130   0.148630
    11  H   -0.270352   0.413352
    12  H   -0.433971   0.568822
    13  H   -0.015812   0.155070
    14  H   -0.010419   0.098411
    15  H   -0.459057   0.612105
    16  H    0.201092  -0.040134
    17  H   -0.209790   0.325190
    18  H   -0.043014   0.216883
    19  H   -0.037136   0.207645
    20  H   -0.079165   0.222808
    21  H   -0.209421   0.390108
    22  H   -0.189784   0.319426
    23  H   -0.140026   0.275729
    24  H   -0.178831   0.318607
    25  H   -0.156813   0.326092
    26  H   -0.303886   0.432076
    27  H   -0.050727   0.280712
    28  H    0.321309  -0.039937
 Sum of Mulliken charges =  -1.00000   1.00000

 Dipole moment (field-independent basis, Debye):
    X=              0.6639    Y=              0.0187    Z=              2.2615  Tot=              2.3570
 Quadrupole moment (field-independent basis, Debye-Ang):
   XX=           -128.7607   YY=           -103.5648   ZZ=           -103.5662
   XY=             -1.9861   XZ=             -0.9363   YZ=              0.8462

 Summary of Natural Population Analysis:

                                       Natural Population
                Natural  -----------------------------------------------
    Atom  No    Charge         Core      Valence    Rydberg      Total
 -----------------------------------------------------------------------
      C    1   -0.28837      0.99966     2.28333    0.00537     3.28837
      C    2   -0.07937      0.99963     2.06809    0.01165     3.07937
      N    3   -0.28942      0.99971     2.77669    0.01302     3.78942
      C    4   -0.08337      0.99963     2.07343    0.01031     3.08337
      C    5   -0.19298      0.99959     2.18463    0.00876     3.19298
      C    6   -0.05102      0.99956     2.03721    0.01425     3.05102
      C    7   -0.08122      0.99957     2.06933    0.01233     3.08122
      C    8   -0.28105      0.99962     2.27429    0.00714     3.28105
      C    9   -0.08043      0.99957     2.06866    0.01220     3.08043
      N   10   -0.43397      0.99977     2.92295    0.01125     3.93397
      H   11    0.09618      0.00000     0.40260    0.00122     0.40382
      H   12    0.09973      0.00000     0.39914    0.00113     0.40027
      H   13    0.09899      0.00000     0.39955    0.00146     0.40101
      H   14    0.07746      0.00000     0.42069    0.00185     0.42254
      H   15    0.09524      0.00000     0.40302    0.00174     0.40476
      H   16    0.09670      0.00000     0.40208    0.00122     0.40330
      H   17    0.08114      0.00000     0.41737    0.00149     0.41886
      H   18    0.09773      0.00000     0.40121    0.00106     0.40227
      H   19    0.10880      0.00000     0.38973    0.00148     0.39120
      H   20    0.08218      0.00000     0.41604    0.00178     0.41782
      H   21    0.10058      0.00000     0.39744    0.00198     0.39942
      H   22    0.10080      0.00000     0.39787    0.00134     0.39920
      H   23    0.09949      0.00000     0.39935    0.00116     0.40051
      H   24    0.10006      0.00000     0.39879    0.00115     0.39994
      H   25    0.08699      0.00000     0.41159    0.00142     0.41301
      H   26    0.08057      0.00000     0.41728    0.00215     0.41943
      H   27    0.17238      0.00000     0.32585    0.00177     0.32762
      H   28    0.18619      0.00000     0.31100    0.00281     0.31381
 =======================================================================
   * Total *   -0.00000      9.99631    29.86922    0.13448    40.00000

 Normal termination of Gaussian 16 at Tue Dec  8 13:25:46 2020.
