 Gaussian 16, Revision A.03,

 -----------------------------------------------------------
 # opt freq B3LYP/6-31G(d) empiricaldispersion=gd3bj scf=xqc
 -----------------------------------------------------------

 -------------------------------
 CID_151669200_JID_1069_neutraal
 -------------------------------
 Symbolic Z-matrix:
 Charge =  0 Multiplicity = 1

 SCF Done:  E(RB3LYP) =  -494.149851521     A.U. after   15 cycles
 SCF Done:  E(RB3LYP) =  -494.154791355     A.U. after   15 cycles
 SCF Done:  E(RB3LYP) =  -494.155372705     A.U. after   13 cycles
 SCF Done:  E(RB3LYP) =  -494.155695899     A.U. after   12 cycles
 SCF Done:  E(RB3LYP) =  -494.153674462     A.U. after   14 cycles
 SCF Done:  E(RB3LYP) =  -494.155833439     A.U. after   11 cycles
 SCF Done:  E(RB3LYP) =  -494.155891288     A.U. after   11 cycles
 SCF Done:  E(RB3LYP) =  -494.155893720     A.U. after   10 cycles
 SCF Done:  E(RB3LYP) =  -494.155899190     A.U. after    9 cycles
 SCF Done:  E(RB3LYP) =  -494.155899970     A.U. after    8 cycles
 SCF Done:  E(RB3LYP) =  -494.155900082     A.U. after    8 cycles
 SCF Done:  E(RB3LYP) =  -494.155900206     A.U. after    7 cycles
 Optimization completed.
    -- Stationary point found.

 1\1\GINC-NODE200\FOpt\RB3LYP\6-31G(d)\C7H14N4\VSC10255\08-Dec-2020\0\\
 # opt freq B3LYP/6-31G(d) empiricaldispersion=gd3bj scf=xqc\\CID_15166
 9200_JID_1069_neutraal\\0,1\C,1.0943769309,0.106033906,0.0387584362\C,
 0.4419336273,0.5243859849,-1.2921092709\C,1.1390325877,-0.1522634886,-
 2.4871554281\C,-1.1202624437,0.4481267396,-1.3120526461\C,-1.689983326
 7,1.2992182627,-0.1516777762\C,-1.6456321564,1.0445214921,-2.640135528
 7\C,-1.6852100163,-0.9696641553,-1.1770301688\N,-1.1123873805,-2.10012
 56557,-1.0511944773\N,-3.1168068413,-0.930062021,-1.2065463365\N,-3.67

 Normal termination of Gaussian 16 at Tue Dec  8 19:12:50 2020.

 --------------------------------------------------------------------
 #N Geom=AllCheck Guess=TCheck SCRF=Check GenChk RB3LYP/6-31G(d) Freq
 --------------------------------------------------------------------

 Structure from the checkpoint file:  "JID_1069.chk"
 -------------------------------
 CID_151669200_JID_1069_neutraal
 -------------------------------
 Charge =  0 Multiplicity = 1

 SCF Done:  E(RB3LYP) =  -494.155900206     A.U. after    1 cycles

  Exact polarizability: 129.712   4.495  93.434   0.001   0.000  77.352
 Approx polarizability: 197.537  23.903 154.225   0.003   0.002 107.425

                      1                      2                      3
                      A                      A                      A
 Frequencies --     38.6888                80.4625               106.3677
 Red. masses --      3.8151                 5.9608                 1.5208
 Frc consts  --      0.0034                 0.0227                 0.0101
 IR Inten    --      0.0441                 0.7155                 0.0571

                      4                      5                      6
                      A                      A                      A
 Frequencies --    124.3639               167.0146               187.6861
 Red. masses --      4.6482                 1.2126                 1.3900
 Frc consts  --      0.0424                 0.0199                 0.0288
 IR Inten    --      0.0680                 0.2788                 0.0505

                      7                      8                      9
                      A                      A                      A
 Frequencies --    229.8776               246.2592               262.7924
 Red. masses --      1.9536                 3.4660                 1.4092
 Frc consts  --      0.0608                 0.1238                 0.0573
 IR Inten    --      1.3349                 0.4499                 0.4689

                     10                     11                     12
                      A                      A                      A
 Frequencies --    279.4775               280.1759               314.4609
 Red. masses --      2.5979                 2.4313                 1.7843
 Frc consts  --      0.1196                 0.1124                 0.1040
 IR Inten    --      0.6570                 2.1374                 0.3483

                     13                     14                     15
                      A                      A                      A
 Frequencies --    361.3059               393.5158               433.1845
 Red. masses --      2.8224                 1.9613                 2.5617
 Frc consts  --      0.2171                 0.1789                 0.2832
 IR Inten    --      0.3086                 0.0134                 1.5855

                     16                     17                     18
                      A                      A                      A
 Frequencies --    436.7293               500.5885               545.3606
 Red. masses --      3.1219                 3.1973                 4.6155
 Frc consts  --      0.3508                 0.4721                 0.8088
 IR Inten    --      0.3166                 4.8953                 1.1987

                     19                     20                     21
                      A                      A                      A
 Frequencies --    577.1459               611.1127               713.9421
 Red. masses --     13.3095                 3.7542                 6.9541
 Frc consts  --      2.6121                 0.8261                 2.0884
 IR Inten    --     11.4257                 1.5977                 2.3465

                     22                     23                     24
                      A                      A                      A
 Frequencies --    776.4657               866.4634               871.1941
 Red. masses --      2.5140                 3.7729                 1.1234
 Frc consts  --      0.8930                 1.6689                 0.5023
 IR Inten    --     16.9699                 8.1491                51.1320

                     25                     26                     27
                      A                      A                      A
 Frequencies --    914.7473               951.4622               959.0965
 Red. masses --      3.0451                 1.2289                 1.4944
 Frc consts  --      1.5013                 0.6555                 0.8099
 IR Inten    --      9.1447                 0.6712                 0.7928

                     28                     29                     30
                      A                      A                      A
 Frequencies --    965.7870               983.2409               983.6979
 Red. masses --      2.0808                 2.2161                 1.3538
 Frc consts  --      1.1435                 1.2623                 0.7719
 IR Inten    --      9.1779               116.5297                 1.2131

                     31                     32                     33
                      A                      A                      A
 Frequencies --   1040.8619              1101.1187              1115.6229
 Red. masses --      1.3001                 1.3741                 2.7099
 Frc consts  --      0.8299                 0.9816                 1.9872
 IR Inten    --      0.8624                20.1607                 1.0582

                     34                     35                     36
                      A                      A                      A
 Frequencies --   1195.1059              1211.6531              1228.7609
 Red. masses --      1.8993                 2.8538                 2.1122
 Frc consts  --      1.5983                 2.4684                 1.8789
 IR Inten    --      4.6211                 0.2379                 0.5330

                     37                     38                     39
                      A                      A                      A
 Frequencies --   1248.8089              1302.8765              1355.4772
 Red. masses --      2.0726                 5.1626                 2.8315
 Frc consts  --      1.9044                 5.1633                 3.0652
 IR Inten    --     34.1799                76.3913               374.2243

                     40                     41                     42
                      A                      A                      A
 Frequencies --   1380.3907              1388.3912              1422.3322
 Red. masses --      1.3113                 1.3857                 1.2084
 Frc consts  --      1.4722                 1.5738                 1.4403
 IR Inten    --      2.0250                 6.6129                 1.5260

                     43                     44                     45
                      A                      A                      A
 Frequencies --   1441.9064              1449.2473              1460.6043
 Red. masses --      1.2192                 1.2333                 1.2082
 Frc consts  --      1.4934                 1.5261                 1.5187
 IR Inten    --      7.1493                20.6558                13.8735

                     46                     47                     48
                      A                      A                      A
 Frequencies --   1510.3181              1519.8261              1523.7755
 Red. masses --      1.0479                 1.0510                 1.0454
 Frc consts  --      1.4084                 1.4303                 1.4301
 IR Inten    --      0.9052                 0.0000                 0.2134

                     49                     50                     51
                      A                      A                      A
 Frequencies --   1528.8873              1533.5335              1540.0961
 Red. masses --      1.0558                 1.0489                 1.0443
 Frc consts  --      1.4540                 1.4534                 1.4593
 IR Inten    --      2.2587                22.5232                 3.4231

                     52                     53                     54
                      A                      A                      A
 Frequencies --   1544.9430              1559.3871              1697.1078
 Red. masses --      1.0553                 1.0564                10.2055
 Frc consts  --      1.4841                 1.5136                17.3183
 IR Inten    --     23.2820                 3.4604               108.0653

                     55                     56                     57
                      A                      A                      A
 Frequencies --   2295.9030              3017.2808              3056.8980
 Red. masses --     13.9562                 1.0837                 1.0379
 Frc consts  --     43.3437                 5.8127                 5.7144
 IR Inten    --    550.7004                15.5355                 7.0839

                     58                     59                     60
                      A                      A                      A
 Frequencies --   3061.0389              3061.3767              3066.5913
 Red. masses --      1.0385                 1.0381                 1.0384
 Frc consts  --      5.7334                 5.7322                 5.7533
 IR Inten    --     27.6440                28.1180                19.8492

                     61                     62                     63
                      A                      A                      A
 Frequencies --   3120.1654              3125.1626              3127.4434
 Red. masses --      1.1010                 1.1008                 1.1002
 Frc consts  --      6.3151                 6.3344                 6.3401
 IR Inten    --      1.6595                31.9898                 5.7911

                     64                     65                     66
                      A                      A                      A
 Frequencies --   3130.5098              3138.5249              3140.1902
 Red. masses --      1.0996                 1.0999                 1.0996
 Frc consts  --      6.3493                 6.3834                 6.3882
 IR Inten    --     87.8206                19.9012                21.6856

                     67                     68                     69
                      A                      A                      A
 Frequencies --   3150.1732              3153.7982              3558.9311
 Red. masses --      1.1020                 1.1010                 1.0738
 Frc consts  --      6.4434                 6.4519                 8.0133
 IR Inten    --     18.0287                28.1682                 2.7812

 - Thermochemistry -
 -------------------
 Temperature   298.150 Kelvin.  Pressure   1.00000 Atm.
 Atom     1 has atomic number  6 and mass  12.00000

 Molecular mass:   154.12185 amu.
 Principal axes and moments of inertia in atomic units:
                           1         2         3
     Eigenvalues --   970.646702581.525892776.45373
           X            0.99984  -0.01789  -0.00000
           Y            0.01789   0.99984  -0.00000
           Z            0.00000   0.00000   1.00000
 This molecule is an asymmetric top.
 Rotational symmetry number  1.
 Warning -- assumption of classical behavior for rotation
           may cause significant error
 Rotational temperatures (Kelvin)      0.08923     0.03355     0.03120
 Rotational constants (GHZ):           1.85932     0.69910     0.65002
 Zero-point vibrational energy     566238.5 (Joules/Mol)
                                  135.33425 (Kcal/Mol)
 Warning -- explicit consideration of  20 degrees of freedom as
           vibrations may cause significant error
 Vibrational temperatures:     55.66   115.77   153.04   178.93   240.30
          (Kelvin)            270.04   330.74   354.31   378.10   402.11
                              403.11   452.44   519.84   566.18   623.26
                              628.36   720.24   784.65   830.38   879.25
                             1027.20  1117.16  1246.65  1253.45  1316.12
                             1368.94  1379.93  1389.55  1414.66  1415.32
                             1497.57  1584.26  1605.13  1719.49  1743.30
                             1767.91  1796.76  1874.55  1950.23  1986.07
                             1997.59  2046.42  2074.58  2085.14  2101.48
                             2173.01  2186.69  2192.37  2199.73  2206.41
                             2215.85  2222.83  2243.61  2441.76  3303.29
                             4341.19  4398.19  4404.15  4404.64  4412.14
                             4489.22  4496.41  4499.69  4504.11  4515.64
                             4518.03  4532.40  4537.61  5120.51

 Zero-point correction=                           0.215669 (Hartree/Particle)
 Thermal correction to Energy=                    0.228283
 Thermal correction to Enthalpy=                  0.229227
 Thermal correction to Gibbs Free Energy=         0.177291
 Sum of electronic and zero-point Energies=           -493.940231
 Sum of electronic and thermal Energies=              -493.927617
 Sum of electronic and thermal Enthalpies=            -493.926673
 Sum of electronic and thermal Free Energies=         -493.978610

                     E (Thermal)             CV                S
                      KCal/Mol        Cal/Mol-Kelvin    Cal/Mol-Kelvin
 Total                  143.250             46.413            109.310
 Electronic               0.000              0.000              0.000
 Translational            0.889              2.981             41.007
 Rotational               0.889              2.981             30.321
 Vibrational            141.472             40.451             37.982
 Vibration     1          0.594              1.981              5.325
 Vibration     2          0.600              1.962              3.880
 Vibration     3          0.605              1.944              3.334
 Vibration     4          0.610              1.929              3.031
 Vibration     5          0.624              1.883              2.469
 Vibration     6          0.632              1.857              2.251
 Vibration     7          0.652              1.795              1.880
 Vibration     8          0.661              1.769              1.757
 Vibration     9          0.670              1.741              1.643
 Vibration    10          0.680              1.712              1.537
 Vibration    11          0.680              1.710              1.533
 Vibration    12          0.702              1.646              1.339
 Vibration    13          0.735              1.552              1.116
 Vibration    14          0.761              1.484              0.987
 Vibration    15          0.794              1.398              0.848
 Vibration    16          0.797              1.390              0.837
 Vibration    17          0.856              1.249              0.657
 Vibration    18          0.901              1.150              0.554
 Vibration    19          0.934              1.081              0.491
 Vibration    20          0.970              1.008              0.431

 Optimization completed.
    -- Stationary point found.

 1\1\GINC-NODE200\Freq\RB3LYP\6-31G(d)\C7H14N4\VSC10255\08-Dec-2020\0\\
 #N Geom=AllCheck Guess=TCheck SCRF=Check GenChk RB3LYP/6-31G(d) Freq\\
 CID_151669200_JID_1069_neutraal\\0,1\C,1.0943769309,0.106033906,0.0387
 584362\C,0.4419336273,0.5243859849,-1.2921092709\C,1.1390325877,-0.152
 2634886,-2.4871554281\C,-1.1202624437,0.4481267396,-1.3120526461\C,-1.
 6899833267,1.2992182627,-0.1516777762\C,-1.6456321564,1.0445214921,-2.
 6401355287\C,-1.6852100163,-0.9696641553,-1.1770301688\N,-1.1123873805
 ,-2.1001256557,-1.0511944773\N,-3.1168068413,-0.930062021,-1.206546336

 Normal termination of Gaussian 16 at Tue Dec  8 19:18:00 2020.

 ----------------------------------------------------------------------
 # B3LYP/6-311++G(d,p) empiricaldispersion=gd3bj scf=xqc pop=npa geom=c
 heck
 ----------------------------------------------------------------------

 ---------------------------------------
 CID_151669200_JID_1069_Energie_neutraal
 ---------------------------------------
 Structure from the checkpoint file:  "JID_1069.chk"
 Charge =  0 Multiplicity = 1

 SCF Done:  E(RB3LYP) =  -494.297470837     A.U. after   15 cycles
 Normal termination of Gaussian 16 at Tue Dec  8 19:20:19 2020.

 ----------------------------------------------------------------------
 # B3LYP/6-311++G(d,p) empiricaldispersion=gd3bj scf=xqc pop=npa geom=c
 heck
 ----------------------------------------------------------------------

 -------------------------------------
 CID_151669200_JID_1069_Energie_kation
 -------------------------------------
 Structure from the checkpoint file:  "JID_1069.chk"
 Charge =  1 Multiplicity = 2

 SCF Done:  E(UB3LYP) =  -493.950240347     A.U. after   30 cycles
 Normal termination of Gaussian 16 at Tue Dec  8 19:27:05 2020.
 Gaussian 16:  ES64L-G16RevA.03 25-Dec-2016

 ------------------------------------
 CID_151669200_JID_1069_Energie_anion
 ------------------------------------
 Structure from the checkpoint file:  "JID_1069.chk"
 Charge = -1 Multiplicity = 2

                         Standard orientation:
 ---------------------------------------------------------------------
 Center     Atomic      Atomic             Coordinates (Angstroms)
 Number     Number       Type             X           Y           Z
 ---------------------------------------------------------------------
      1          6           0        2.268489   -0.909694    1.269664
      2          6           0        1.977746   -0.087834    0.000048
      3          6           0        2.268373   -0.909371   -1.269815
      4          6           0        0.603817    0.659821    0.000083
      5          6           0        0.513689    1.566784    1.250964
      6          6           0        0.513761    1.566722   -1.250887
      7          6           0       -0.618211   -0.264394    0.000050
      8          7           0       -0.718682   -1.533964    0.000001
      9          7           0       -1.820168    0.514842    0.000047
     10          7           0       -2.875918   -0.141363   -0.000018
     11          7           0       -3.898443   -0.632364   -0.000065
     12          1           0        1.566604   -1.735686    1.420798
     13          1           0        2.237320   -0.289878    2.169687
     14          1           0        3.272632   -1.342674    1.204838
     15          1           0        2.712784    0.729759    0.000129
     16          1           0        1.566075   -1.734928   -1.421395
     17          1           0        2.237654   -0.289163   -2.169590
     18          1           0        3.272299   -1.342852   -1.204984
     19          1           0        1.401396    2.207258    1.307724
     20          1           0       -0.370195    2.206443    1.198695
     21          1           0        0.450590    0.985325    2.174917
     22          1           0        0.450670    0.985181   -2.174790
     23          1           0       -0.370091    2.206423   -1.198695
     24          1           0        1.401509    2.207136   -1.307666
     25          1           0        0.197246   -1.974618   -0.000061
 ---------------------------------------------------------------------

 SCF Done:  E(UB3LYP) =  -494.287521149     A.U. after   33 cycles
 SCF Done:  E(UB3LYP) =  -494.287687558     a.u. after    6 cycles

 The electronic state is 2-A.
 Alpha  occ. eigenvalues --  -14.34505 -14.25756 -14.23747 -14.17996 -10.14264
 Alpha  occ. eigenvalues --  -10.09103 -10.07367 -10.05411 -10.05411 -10.05292
 Alpha  occ. eigenvalues --  -10.05292  -1.01890  -0.87361  -0.78789  -0.72054
 Alpha  occ. eigenvalues --   -0.65883  -0.59397  -0.56934  -0.56928  -0.51157
 Alpha  occ. eigenvalues --   -0.46134  -0.40701  -0.39003  -0.38034  -0.36027
 Alpha  occ. eigenvalues --   -0.35405  -0.33720  -0.32894  -0.32513  -0.30219
 Alpha  occ. eigenvalues --   -0.29236  -0.28139  -0.26915  -0.26464  -0.26053
 Alpha  occ. eigenvalues --   -0.23433  -0.22942  -0.21831  -0.20981  -0.19726
 Alpha  occ. eigenvalues --   -0.16113  -0.13924   0.04793
 Alpha virt. eigenvalues --    0.06682   0.08001   0.08204   0.08335   0.09328
 Alpha virt. eigenvalues --    0.10822   0.10851   0.11747   0.11880   0.12411
 Alpha virt. eigenvalues --    0.13613   0.13809   0.14825   0.15269   0.15746

  Beta  occ. eigenvalues --  -14.34193 -14.25431 -14.23782 -14.17998 -10.14202
  Beta  occ. eigenvalues --  -10.09105 -10.07348 -10.05383 -10.05383 -10.05263
  Beta  occ. eigenvalues --  -10.05262  -1.01345  -0.87157  -0.78710  -0.72027
  Beta  occ. eigenvalues --   -0.65825  -0.59343  -0.56863  -0.56709  -0.51071
  Beta  occ. eigenvalues --   -0.45977  -0.40454  -0.38761  -0.37204  -0.35782
  Beta  occ. eigenvalues --   -0.35186  -0.33365  -0.32832  -0.32049  -0.30177
  Beta  occ. eigenvalues --   -0.29189  -0.28105  -0.26819  -0.26430  -0.26017
  Beta  occ. eigenvalues --   -0.23387  -0.22871  -0.21702  -0.20947  -0.19164
  Beta  occ. eigenvalues --   -0.16066  -0.13875
  Beta virt. eigenvalues --    0.07428   0.08246   0.08636   0.08855   0.09897
  Beta virt. eigenvalues --    0.10009   0.11083   0.11312   0.12060   0.12272
  Beta virt. eigenvalues --    0.12832   0.13912   0.14143   0.15094   0.15325

 Mulliken charges and spin densities:
               1          2
     1  C    0.508921  -1.104917
     2  C   -2.080281   2.092817
     3  C    0.508201  -1.104219
     4  C   -0.517723   1.344177
     5  C    1.157208  -1.763072
     6  C    1.157366  -1.763256
     7  C    0.145584  -0.849679
     8  N   -0.310242   0.008693
     9  N   -1.673850   1.312175
    10  N    1.670962  -0.836989
    11  N    0.240466  -0.350905
    12  H   -0.041865   0.163287
    13  H   -0.027280   0.175096
    14  H   -0.409825   0.563400
    15  H   -0.508730   0.723362
    16  H   -0.041701   0.163140
    17  H   -0.027442   0.175287
    18  H   -0.409665   0.563236
    19  H   -0.357533   0.522277
    20  H    0.013319   0.146837
    21  H    0.027659   0.124722
    22  H    0.027771   0.124609
    23  H    0.013401   0.146752
    24  H   -0.357775   0.522544
    25  H    0.293055  -0.099374
 Sum of Mulliken charges =  -1.00000   1.00000

 Dipole moment (field-independent basis, Debye):
    X=             -3.0341    Y=             -0.8482    Z=             -0.0000  Tot=              3.1504
 Quadrupole moment (field-independent basis, Debye-Ang):
   XX=           -140.7487   YY=           -100.8556   ZZ=            -93.7222
   XY=             -7.9448   XZ=             -0.0004   YZ=              0.0020

 Summary of Natural Population Analysis:

                                       Natural Population
                Natural  -----------------------------------------------
    Atom  No    Charge         Core      Valence    Rydberg      Total
 -----------------------------------------------------------------------
      C    1   -0.28560      0.99964     2.27923    0.00673     3.28560
      C    2   -0.11583      0.99958     2.10196    0.01429     3.11583
      C    3   -0.28560      0.99964     2.27924    0.00673     3.28560
      C    4   -0.06673      0.99950     2.05274    0.01448     3.06673
      C    5   -0.28228      0.99963     2.27519    0.00746     3.28228
      C    6   -0.28228      0.99963     2.27519    0.00746     3.28228
      C    7    0.23554      0.99955     1.74385    0.02105     2.76446
      N    8   -0.35391      0.99969     2.84618    0.00804     3.85391
      N    9   -0.22001      0.99965     2.70653    0.01383     3.72001
      N   10    0.16000      0.99971     2.32334    0.01694     3.34000
      N   11    0.00892      0.99981     2.47907    0.01220     3.49108
      H   12    0.09324      0.00000     0.40578    0.00098     0.40676
      H   13    0.10257      0.00000     0.39643    0.00100     0.39743
      H   14    0.10179      0.00000     0.39715    0.00106     0.39821
      H   15    0.10281      0.00000     0.39254    0.00465     0.39719
      H   16    0.09324      0.00000     0.40578    0.00098     0.40676
      H   17    0.10257      0.00000     0.39642    0.00100     0.39743
      H   18    0.10179      0.00000     0.39715    0.00106     0.39821
      H   19    0.10220      0.00000     0.39644    0.00136     0.39780
      H   20    0.10820      0.00000     0.39062    0.00119     0.39180
      H   21    0.10040      0.00000     0.39850    0.00110     0.39960
      H   22    0.10040      0.00000     0.39850    0.00110     0.39960
      H   23    0.10820      0.00000     0.39062    0.00119     0.39180
      H   24    0.10220      0.00000     0.39644    0.00136     0.39780
      H   25    0.16817      0.00000     0.32938    0.00245     0.33183
 =======================================================================
   * Total *   -0.00000     10.99603    30.85427    0.14970    42.00000

 Normal termination of Gaussian 16 at Tue Dec  8 20:06:18 2020.
