 Gaussian 16, Revision A.03,

 -----------------------------------------------------------
 # opt freq B3LYP/6-31G(d) empiricaldispersion=gd3bj scf=xqc
 -----------------------------------------------------------

 -------------------------------
 CID_108115724_JID_5191_neutraal
 -------------------------------
 Symbolic Z-matrix:
 Charge =  0 Multiplicity = 1

 SCF Done:  E(RB3LYP) =  -654.075605423     A.U. after   14 cycles
 SCF Done:  E(RB3LYP) =  -654.081814668     A.U. after   11 cycles
 SCF Done:  E(RB3LYP) =  -654.082820657     A.U. after   12 cycles
 SCF Done:  E(RB3LYP) =  -654.083226368     A.U. after   12 cycles
 SCF Done:  E(RB3LYP) =  -654.083791139     A.U. after   12 cycles
 SCF Done:  E(RB3LYP) =  -654.084806634     A.U. after   12 cycles
 SCF Done:  E(RB3LYP) =  -654.085259213     A.U. after   14 cycles
 SCF Done:  E(RB3LYP) =  -654.087503639     A.U. after   12 cycles
 SCF Done:  E(RB3LYP) =  -654.088962273     A.U. after   12 cycles
 SCF Done:  E(RB3LYP) =  -654.089895923     A.U. after   12 cycles
 SCF Done:  E(RB3LYP) =  -654.093347059     A.U. after   11 cycles
 SCF Done:  E(RB3LYP) =  -654.093347181     A.U. after    9 cycles
 SCF Done:  E(RB3LYP) =  -654.093347693     A.U. after    7 cycles
 SCF Done:  E(RB3LYP) =  -654.093348476     A.U. after    8 cycles
 SCF Done:  E(RB3LYP) =  -654.093348615     A.U. after    7 cycles
 Optimization completed.
    -- Stationary point found.
 Normal termination of Gaussian 16 at Thu Dec 10 15:02:56 2020.

 --------------------------------------------------------------------
 #N Geom=AllCheck Guess=TCheck SCRF=Check GenChk RB3LYP/6-31G(d) Freq
 --------------------------------------------------------------------

 Structure from the checkpoint file:  "JID_5191.chk"
 -------------------------------
 CID_108115724_JID_5191_neutraal
 -------------------------------
 Charge =  0 Multiplicity = 1

 SCF Done:  E(RB3LYP) =  -654.093348615     A.U. after    1 cycles

  Exact polarizability: 184.835   2.848 150.978  15.322  -2.331  93.213
 Approx polarizability: 232.692   4.974 247.064  28.688  -1.457 146.551

                      1                      2                      3
                      A                      A                      A
 Frequencies --     22.8472                28.0869                43.8017
 Red. masses --      3.8472                 3.3959                 3.7338
 Frc consts  --      0.0012                 0.0016                 0.0042
 IR Inten    --      0.1527                 0.2522                 0.4791

                      4                      5                      6
                      A                      A                      A
 Frequencies --     72.1574                98.0090               115.0317
 Red. masses --      4.2702                 2.4466                 2.7192
 Frc consts  --      0.0131                 0.0138                 0.0212
 IR Inten    --      0.4479                 5.3809                 0.3622

                      7                      8                      9
                      A                      A                      A
 Frequencies --    145.0220               180.9485               187.9950
 Red. masses --      3.1862                 1.2133                 2.3256
 Frc consts  --      0.0395                 0.0234                 0.0484
 IR Inten    --      1.5073                 3.1233                 1.6403

                     10                     11                     12
                      A                      A                      A
 Frequencies --    228.6898               249.8910               278.5580
 Red. masses --      1.5022                 2.6370                 2.1010
 Frc consts  --      0.0463                 0.0970                 0.0961
 IR Inten    --      0.6456                 4.1472                 2.6575

                     13                     14                     15
                      A                      A                      A
 Frequencies --    290.7514               310.0921               334.0307
 Red. masses --      2.5417                 2.6698                 1.9636
 Frc consts  --      0.1266                 0.1513                 0.1291
 IR Inten    --     11.4742                 0.1033                15.4103

                     16                     17                     18
                      A                      A                      A
 Frequencies --    341.1812               363.5528               390.4704
 Red. masses --      1.2910                 2.7771                 2.2867
 Frc consts  --      0.0885                 0.2163                 0.2054
 IR Inten    --     80.8856                 3.6075                 3.0390

                     19                     20                     21
                      A                      A                      A
 Frequencies --    459.8808               484.7937               505.8399
 Red. masses --      2.3246                 3.0788                 4.5202
 Frc consts  --      0.2897                 0.4263                 0.6815
 IR Inten    --      3.4759                 1.4700                 3.1689

                     22                     23                     24
                      A                      A                      A
 Frequencies --    542.4690               560.3569               567.4678
 Red. masses --      3.3847                 3.5724                 3.0801
 Frc consts  --      0.5868                 0.6609                 0.5844
 IR Inten    --      4.9409                 0.5676                 2.2986

                     25                     26                     27
                      A                      A                      A
 Frequencies --    613.7654               657.3906               685.9448
 Red. masses --      3.6354                 1.3505                 3.7578
 Frc consts  --      0.8069                 0.3439                 1.0418
 IR Inten    --      2.5032               198.9097                 6.6439

                     28                     29                     30
                      A                      A                      A
 Frequencies --    728.9988               744.5076               764.4135
 Red. masses --      1.4023                 1.9508                 1.8757
 Frc consts  --      0.4391                 0.6371                 0.6457
 IR Inten    --     23.7705                26.9099               101.9237

                     31                     32                     33
                      A                      A                      A
 Frequencies --    786.7787               840.9406               860.8890
 Red. masses --      2.0219                 2.8487                 3.2819
 Frc consts  --      0.7374                 1.1869                 1.4331
 IR Inten    --     14.2367                19.3100                 9.8916

                     34                     35                     36
                      A                      A                      A
 Frequencies --    882.4180               890.3843               934.0267
 Red. masses --      2.0311                 1.4114                 1.2929
 Frc consts  --      0.9318                 0.6593                 0.6646
 IR Inten    --      8.1745                 0.1592                 2.3354

                     37                     38                     39
                      A                      A                      A
 Frequencies --    943.1671               961.8488              1008.5580
 Red. masses --      2.1506                 1.9732                 1.9298
 Frc consts  --      1.1272                 1.0755                 1.1566
 IR Inten    --      4.6867                 5.7328                10.1822

                     40                     41                     42
                      A                      A                      A
 Frequencies --   1034.1088              1044.9674              1073.5987
 Red. masses --      1.5516                 1.8856                 1.4788
 Frc consts  --      0.9776                 1.2131                 1.0042
 IR Inten    --      7.6152                10.8733                 1.6813

                     43                     44                     45
                      A                      A                      A
 Frequencies --   1088.9979              1115.9063              1119.8747
 Red. masses --      2.2814                 2.1042                 2.1106
 Frc consts  --      1.5940                 1.5438                 1.5595
 IR Inten    --     30.1529                 5.3852                 8.3703

                     46                     47                     48
                      A                      A                      A
 Frequencies --   1146.0787              1172.9581              1177.9495
 Red. masses --      2.1959                 3.2865                 1.4263
 Frc consts  --      1.6994                 2.6641                 1.1660
 IR Inten    --      6.8296               203.3986                 7.0093

                     49                     50                     51
                      A                      A                      A
 Frequencies --   1193.5739              1199.2370              1212.1159
 Red. masses --      1.2721                 1.3723                 1.5366
 Frc consts  --      1.0677                 1.1628                 1.3301
 IR Inten    --      3.9898                30.4988                 3.1855

                     52                     53                     54
                      A                      A                      A
 Frequencies --   1242.0035              1263.0719              1278.4626
 Red. masses --      1.5147                 1.5087                 2.3564
 Frc consts  --      1.3767                 1.4181                 2.2693
 IR Inten    --      6.6958                25.0767                20.3328

                     55                     56                     57
                      A                      A                      A
 Frequencies --   1287.7107              1308.9302              1324.1813
 Red. masses --      1.6066                 1.4723                 2.0688
 Frc consts  --      1.5697                 1.4862                 2.1373
 IR Inten    --      5.1703                26.9820                19.1019

                     58                     59                     60
                      A                      A                      A
 Frequencies --   1342.3316              1370.5804              1390.1504
 Red. masses --      1.1578                 3.9840                 1.3456
 Frc consts  --      1.2291                 4.4094                 1.5322
 IR Inten    --      4.2929                 9.2219                10.4031

                     61                     62                     63
                      A                      A                      A
 Frequencies --   1404.8360              1420.5671              1441.6897
 Red. masses --      1.4884                 1.3384                 1.2923
 Frc consts  --      1.7306                 1.5913                 1.5826
 IR Inten    --      6.8504                 5.9121                 0.9099

                     64                     65                     66
                      A                      A                      A
 Frequencies --   1446.2303              1473.1127              1503.3736
 Red. masses --      1.3586                 1.5117                 1.1571
 Frc consts  --      1.6743                 1.9328                 1.5408
 IR Inten    --     22.0613                43.1941                 3.5537

                     67                     68                     69
                      A                      A                      A
 Frequencies --   1506.1352              1509.3563              1511.8019
 Red. masses --      1.1107                 1.4665                 1.0980
 Frc consts  --      1.4845                 1.9684                 1.4786
 IR Inten    --      4.7999                 5.5377                 8.9925

                     70                     71                     72
                      A                      A                      A
 Frequencies --   1514.7774              1515.6166              1519.5753
 Red. masses --      1.0506                 1.1022                 1.1315
 Frc consts  --      1.4203                 1.4918                 1.5395
 IR Inten    --      5.0700                 6.9052                 8.9826

                     73                     74                     75
                      A                      A                      A
 Frequencies --   1534.7838              1538.7481              1543.4704
 Red. masses --      1.0662                 1.9470                 1.5879
 Frc consts  --      1.4798                 2.7161                 2.2288
 IR Inten    --      8.9741                15.9774                49.6676

                     76                     77                     78
                      A                      A                      A
 Frequencies --   1561.2236              1641.5437              1650.0703
 Red. masses --      1.0888                 1.7411                 5.3052
 Frc consts  --      1.5636                 2.7643                 8.5105
 IR Inten    --      4.0553                23.7630                10.1537

                     79                     80                     81
                      A                      A                      A
 Frequencies --   1675.4389              2963.7399              2987.7137
 Red. masses --      2.2732                 1.0569                 1.0558
 Frc consts  --      3.7596                 5.4698                 5.5525
 IR Inten    --     56.1575                43.1701                59.7319

                     82                     83                     84
                      A                      A                      A
 Frequencies --   2992.2064              3017.0363              3029.6652
 Red. masses --      1.0831                 1.0479                 1.1048
 Frc consts  --      5.7136                 5.6197                 5.9750
 IR Inten    --    104.9484                43.3384                66.9565

                     85                     86                     87
                      A                      A                      A
 Frequencies --   3048.2851              3056.6409              3061.5693
 Red. masses --      1.0633                 1.0596                 1.0634
 Frc consts  --      5.8212                 5.8330                 5.8727
 IR Inten    --     36.9130                26.5007                 8.5073

                     88                     89                     90
                      A                      A                      A
 Frequencies --   3072.5823              3086.8002              3096.8040
 Red. masses --      1.0900                 1.0994                 1.1023
 Frc consts  --      6.0629                 6.1722                 6.2281
 IR Inten    --     24.2278                35.5335                33.4270

                     91                     92                     93
                      A                      A                      A
 Frequencies --   3107.2042              3128.4389              3136.6940
 Red. masses --      1.1044                 1.0992                 1.0963
 Frc consts  --      6.2823                 6.3383                 6.3554
 IR Inten    --     60.6678                16.4843                33.2220

                     94                     95                     96
                      A                      A                      A
 Frequencies --   3173.9849              3179.9156              3204.7940
 Red. masses --      1.0857                 1.0901                 1.0958
 Frc consts  --      6.4443                 6.4947                 6.6313
 IR Inten    --      2.0549                37.4065                27.1216

                     97                     98                     99
                      A                      A                      A
 Frequencies --   3523.0877              3556.9216              3662.5787
 Red. masses --      1.0737                 1.0464                 1.0991
 Frc consts  --      7.8523                 7.8000                 8.6867
 IR Inten    --      0.1372                12.5812                21.7661

 - Thermochemistry -
 -------------------
 Temperature   298.150 Kelvin.  Pressure   1.00000 Atm.
 Atom     1 has atomic number  6 and mass  12.00000

 Molecular mass:   208.15756 amu.
 Principal axes and moments of inertia in atomic units:
                           1         2         3
     Eigenvalues --  1238.188807218.094427974.05087
           X            0.99996  -0.00309   0.00845
           Y            0.00319   0.99993  -0.01166
           Z           -0.00841   0.01168   0.99990
 This molecule is an asymmetric top.
 Rotational symmetry number  1.
 Warning -- assumption of classical behavior for rotation
           may cause significant error
 Rotational temperatures (Kelvin)      0.06995     0.01200     0.01086
 Rotational constants (GHZ):           1.45757     0.25003     0.22633
 Zero-point vibrational energy     816402.0 (Joules/Mol)
                                  195.12477 (Kcal/Mol)
 Warning -- explicit consideration of  25 degrees of freedom as
           vibrations may cause significant error
 Vibrational temperatures:     32.87    40.41    63.02   103.82   141.01
          (Kelvin)            165.50   208.65   260.34   270.48   329.03
                              359.54   400.78   418.33   446.15   480.60
                              490.88   523.07   561.80   661.67   697.51
                              727.79   780.49   806.23   816.46   883.07
                              945.84   986.92  1048.87  1071.18  1099.82
                             1132.00  1209.93  1238.63  1269.60  1281.06
                             1343.86  1357.01  1383.89  1451.09  1487.85
                             1503.48  1544.67  1566.83  1605.54  1611.25
                             1648.95  1687.63  1694.81  1717.29  1725.43
                             1743.96  1786.97  1817.28  1839.42  1852.73
                             1883.26  1905.20  1931.32  1971.96  2000.12
                             2021.25  2043.88  2074.27  2080.80  2119.48
                             2163.02  2166.99  2171.63  2175.15  2179.43
                             2180.63  2186.33  2208.21  2213.92  2220.71
                             2246.25  2361.82  2374.08  2410.58  4264.16
                             4298.65  4305.12  4340.84  4359.01  4385.80
                             4397.82  4404.92  4420.76  4441.22  4455.61
                             4470.57  4501.13  4513.00  4566.66  4575.19
                             4610.98  5068.94  5117.62  5269.63

 Zero-point correction=                           0.310951 (Hartree/Particle)
 Thermal correction to Energy=                    0.327081
 Thermal correction to Enthalpy=                  0.328026
 Thermal correction to Gibbs Free Energy=         0.265991
 Sum of electronic and zero-point Energies=           -653.782398
 Sum of electronic and thermal Energies=              -653.766267
 Sum of electronic and thermal Enthalpies=            -653.765323
 Sum of electronic and thermal Free Energies=         -653.827358

                     E (Thermal)             CV                S
                      KCal/Mol        Cal/Mol-Kelvin    Cal/Mol-Kelvin
 Total                  205.247             60.777            130.563
 Electronic               0.000              0.000              0.000
 Translational            0.889              2.981             41.903
 Rotational               0.889              2.981             32.633
 Vibrational            203.469             54.816             56.027
 Vibration     1          0.593              1.985              6.370
 Vibration     2          0.593              1.984              5.960
 Vibration     3          0.595              1.980              5.079
 Vibration     4          0.598              1.967              4.094
 Vibration     5          0.603              1.951              3.494
 Vibration     6          0.608              1.937              3.182
 Vibration     7          0.616              1.908              2.737
 Vibration     8          0.630              1.866              2.319
 Vibration     9          0.633              1.856              2.248
 Vibration    10          0.651              1.797              1.889
 Vibration    11          0.663              1.763              1.731
 Vibration    12          0.679              1.713              1.543
 Vibration    13          0.687              1.691              1.470
 Vibration    14          0.699              1.654              1.362
 Vibration    15          0.716              1.608              1.241
 Vibration    16          0.721              1.593              1.207
 Vibration    17          0.737              1.547              1.107
 Vibration    18          0.758              1.491              0.998
 Vibration    19          0.818              1.339              0.766
 Vibration    20          0.841              1.284              0.697
 Vibration    21          0.861              1.237              0.644
 Vibration    22          0.898              1.156              0.560
 Vibration    23          0.916              1.117              0.523
 Vibration    24          0.923              1.102              0.509
 Vibration    25          0.973              1.003              0.427

                           ! Non-Optimized Parameters !
 Normal termination of Gaussian 16 at Thu Dec 10 15:13:40 2020.

 ----------------------------------------------------------------------
 # B3LYP/6-311++G(d,p) empiricaldispersion=gd3bj scf=xqc pop=npa geom=c
 heck
 ----------------------------------------------------------------------

 ---------------------------------------
 CID_108115724_JID_5191_Energie_neutraal
 ---------------------------------------
 Structure from the checkpoint file:  "JID_5191.chk"
 Charge =  0 Multiplicity = 1

 SCF Done:  E(RB3LYP) =  -654.285011075     A.U. after   14 cycles
 Normal termination of Gaussian 16 at Thu Dec 10 15:18:59 2020.

 ----------------------------------------------------------------------
 # B3LYP/6-311++G(d,p) empiricaldispersion=gd3bj scf=xqc pop=npa geom=c
 heck
 ----------------------------------------------------------------------

 -------------------------------------
 CID_108115724_JID_5191_Energie_kation
 -------------------------------------
 Structure from the checkpoint file:  "JID_5191.chk"
 Charge =  1 Multiplicity = 2

 SCF Done:  E(UB3LYP) =  -654.020326243     A.U. after   22 cycles
 Normal termination of Gaussian 16 at Thu Dec 10 15:32:34 2020.
 Gaussian 16:  ES64L-G16RevA.03 25-Dec-2016

 ----------------------------------------------------------------------
 # B3LYP/6-311++G(d,p) empiricaldispersion=gd3bj scf=xqc pop=npa geom=c
 heck
 ----------------------------------------------------------------------

 ------------------------------------
 CID_108115724_JID_5191_Energie_anion
 ------------------------------------
 Structure from the checkpoint file:  "JID_5191.chk"
 Charge = -1 Multiplicity = 2

                         Standard orientation:
 ---------------------------------------------------------------------
 Center     Atomic      Atomic             Coordinates (Angstroms)
 Number     Number       Type             X           Y           Z
 ---------------------------------------------------------------------
      1          6           0        4.592610   -1.028551    0.556618
      2          6           0        3.440813   -0.125536    0.200842
      3          6           0        2.225909   -0.693158   -0.231592
      4          6           0        1.138531    0.143554   -0.568629
      5          6           0        1.299810    1.529833   -0.529134
      6          6           0        2.509093    2.097404   -0.129445
      7          6           0        3.560630    1.265108    0.250817
      8          7           0       -0.088154   -0.486630   -0.951786
      9          6           0       -0.951326   -0.895667    0.174748
     10          6           0       -1.506871    0.233717    1.052200
     11          6           0       -2.406313    1.238447    0.317309
     12          6           0       -3.590762    0.604211   -0.401860
     13          8           0       -4.324888   -0.173919    0.524217
     14          6           0       -5.436282   -0.811287   -0.063799
     15          7           0        2.113391   -2.074960   -0.403229
     16          1           0        4.382329   -1.634860    1.450627
     17          1           0        4.806778   -1.730747   -0.259204
     18          1           0        5.498696   -0.451368    0.762089
     19          1           0        0.461244    2.165594   -0.803260
     20          1           0        2.624636    3.176782   -0.102659
     21          1           0        4.503726    1.697134    0.576778
     22          1           0       -0.607778    0.112947   -1.586825
     23          1           0       -1.774423   -1.489222   -0.239390
     24          1           0       -0.362745   -1.573443    0.803351
     25          1           0       -2.083286   -0.222822    1.864575
     26          1           0       -0.671497    0.775207    1.511281
     27          1           0       -2.783944    1.971472    1.039870
     28          1           0       -1.827572    1.805706   -0.423726
     29          1           0       -4.233765    1.386343   -0.840595
     30          1           0       -3.249192   -0.032110   -1.237668
     31          1           0       -6.151636   -0.082721   -0.478718
     32          1           0       -5.132245   -1.494040   -0.874100
     33          1           0       -5.932199   -1.389042    0.720397
     34          1           0        1.184585   -2.364045   -0.682707
     35          1           0        2.515678   -2.652728    0.322809
 ---------------------------------------------------------------------

 SCF Done:  E(UB3LYP) =  -654.272271041     A.U. after   33 cycles
 SCF Done:  E(UB3LYP) =  -654.272271041     a.u. after    1 cycles

 The electronic state is 2-A.
 Alpha  occ. eigenvalues --  -19.03252 -14.21461 -14.21451 -10.12079 -10.11596
 Alpha  occ. eigenvalues --  -10.11144 -10.10402 -10.09823 -10.08185 -10.07676
 Alpha  occ. eigenvalues --  -10.07578 -10.07483 -10.07365 -10.07325 -10.06816
 Alpha  occ. eigenvalues --   -0.94626  -0.84130  -0.80207  -0.74249  -0.70062
 Alpha  occ. eigenvalues --   -0.67195  -0.63910  -0.61625  -0.59184  -0.57853
 Alpha  occ. eigenvalues --   -0.53838  -0.50530  -0.49834  -0.47367  -0.42320
 Alpha  occ. eigenvalues --   -0.41507  -0.41198  -0.40182  -0.38726  -0.37512
 Alpha  occ. eigenvalues --   -0.35762  -0.35168  -0.34940  -0.33747  -0.32780
 Alpha  occ. eigenvalues --   -0.32442  -0.32112  -0.30090  -0.29738  -0.28782
 Alpha  occ. eigenvalues --   -0.27013  -0.26709  -0.26182  -0.25015  -0.24724
 Alpha  occ. eigenvalues --   -0.24198  -0.22621  -0.21227  -0.17195  -0.16901
 Alpha  occ. eigenvalues --   -0.13497  -0.10723   0.04112
 Alpha virt. eigenvalues --    0.05529   0.06575   0.07260   0.07834   0.07858
 Alpha virt. eigenvalues --    0.08671   0.09204   0.09300   0.09682   0.10052
 Alpha virt. eigenvalues --    0.10415   0.10995   0.11425   0.11588   0.12037

  Beta  occ. eigenvalues --  -19.03241 -14.21442 -14.21424 -10.12047 -10.11553
  Beta  occ. eigenvalues --  -10.11140 -10.10397 -10.09802 -10.08182 -10.07667
  Beta  occ. eigenvalues --  -10.07571 -10.07474 -10.07330 -10.07326 -10.06814
  Beta  occ. eigenvalues --   -0.94608  -0.84101  -0.80168  -0.74226  -0.70037
  Beta  occ. eigenvalues --   -0.67167  -0.63875  -0.61589  -0.59135  -0.57789
  Beta  occ. eigenvalues --   -0.53768  -0.50495  -0.49804  -0.47325  -0.42278
  Beta  occ. eigenvalues --   -0.41475  -0.41168  -0.40112  -0.38697  -0.37478
  Beta  occ. eigenvalues --   -0.35726  -0.35138  -0.34910  -0.33718  -0.32739
  Beta  occ. eigenvalues --   -0.32414  -0.32084  -0.30060  -0.29709  -0.28753
  Beta  occ. eigenvalues --   -0.26986  -0.26688  -0.26155  -0.24992  -0.24700
  Beta  occ. eigenvalues --   -0.24172  -0.22561  -0.21199  -0.17169  -0.16875
  Beta  occ. eigenvalues --   -0.13470  -0.10696
  Beta virt. eigenvalues --    0.06167   0.06617   0.06931   0.07710   0.08045
  Beta virt. eigenvalues --    0.08277   0.08949   0.09395   0.09588   0.09934
  Beta virt. eigenvalues --    0.10446   0.10814   0.11172   0.11552   0.11928

 Mulliken charges and spin densities:
               1          2
     1  C    2.202700  -2.693463
     2  C   -0.460001   1.283342
     3  C   -0.585195   0.390610
     4  C   -0.706759   0.195710
     5  C    0.517669  -0.211984
     6  C   -0.279111  -0.152329
     7  C   -0.601093  -0.226983
     8  N   -0.051176   0.067190
     9  C    0.843706  -0.922589
    10  C   -0.798091   0.332963
    11  C   -0.043664  -0.222324
    12  C   -0.083360  -0.414743
    13  O   -0.172995   0.075808
    14  C    0.925904  -1.159628
    15  N   -0.395615   0.041185
    16  H   -0.320688   0.498454
    17  H   -0.056428   0.226144
    18  H   -0.128074   0.265228
    19  H    0.009945   0.082519
    20  H    0.077338   0.077178
    21  H    0.002710   0.102948
    22  H    0.113044   0.169344
    23  H    0.042520   0.156271
    24  H    0.000724   0.154221
    25  H    0.114296   0.080296
    26  H    0.146441  -0.018381
    27  H    0.026318   0.146265
    28  H    0.009237   0.115739
    29  H   -0.371644   0.516299
    30  H    0.011281   0.135504
    31  H   -0.356237   0.485198
    32  H   -0.346483   0.474770
    33  H   -0.179790   0.312653
    34  H    0.010801   0.272721
    35  H   -0.118231   0.363865
 Sum of Mulliken charges =  -1.00000   1.00000

 Dipole moment (field-independent basis, Debye):
    X=              3.1073    Y=              3.9176    Z=              0.7272  Tot=              5.0529
 Quadrupole moment (field-independent basis, Debye-Ang):
   XX=           -207.4725   YY=           -132.8018   ZZ=           -125.6935
   XY=             10.3577   XZ=             -9.7919   YZ=              1.9281

 Summary of Natural Population Analysis:

                                       Natural Population
                Natural  -----------------------------------------------
    Atom  No    Charge         Core      Valence    Rydberg      Total
 -----------------------------------------------------------------------
      C    1   -0.29581      0.99964     2.29015    0.00602     3.29581
      C    2   -0.03348      0.99949     2.02384    0.01015     3.03348
      C    3    0.07908      0.99940     1.90903    0.01249     2.92092
      C    4    0.06116      0.99943     1.92745    0.01196     2.93884
      C    5   -0.11342      0.99951     2.10572    0.00819     3.11342
      C    6   -0.11878      0.99957     2.10905    0.01016     3.11878
      C    7   -0.10152      0.99952     2.09330    0.00870     3.10152
      N    8   -0.34298      0.99972     2.83102    0.01224     3.84298
      C    9   -0.08949      0.99960     2.07820    0.01169     3.08949
      C   10   -0.20218      0.99962     2.19524    0.00732     3.20218
      C   11   -0.20078      0.99962     2.19122    0.00994     3.20078
      C   12   -0.00921      0.99959     1.99691    0.01272     3.00921
      O   13   -0.30113      0.99988     3.29111    0.01014     4.30113
      C   14   -0.09609      0.99962     2.08727    0.00919     3.09609
      N   15   -0.40081      0.99971     2.89094    0.01015     3.90081
      H   16    0.10360      0.00000     0.39454    0.00186     0.39640
      H   17    0.10669      0.00000     0.39206    0.00125     0.39331
      H   18    0.10119      0.00000     0.39789    0.00092     0.39881
      H   19    0.09779      0.00000     0.40051    0.00170     0.40221
      H   20    0.09730      0.00000     0.40190    0.00080     0.40270
      H   21    0.09625      0.00000     0.40289    0.00086     0.40375
      H   22    0.17893      0.00000     0.31827    0.00281     0.32107
      H   23    0.09648      0.00000     0.40208    0.00143     0.40352
      H   24    0.09527      0.00000     0.40328    0.00145     0.40473
      H   25    0.10516      0.00000     0.39345    0.00139     0.39484
      H   26    0.10041      0.00000     0.39839    0.00120     0.39959
      H   27    0.09993      0.00000     0.39898    0.00109     0.40007
      H   28    0.09517      0.00000     0.40350    0.00133     0.40483
      H   29    0.08231      0.00000     0.41584    0.00185     0.41769
      H   30    0.07672      0.00000     0.42125    0.00202     0.42328
      H   31    0.07916      0.00000     0.41869    0.00215     0.42084
      H   32    0.07980      0.00000     0.41838    0.00182     0.42020
      H   33    0.08908      0.00000     0.40978    0.00114     0.41092
      H   34    0.19491      0.00000     0.30270    0.00240     0.30509
      H   35    0.18930      0.00000     0.30807    0.00264     0.31070
 =======================================================================
   * Total *    0.00000     14.99393    41.82288    0.18319    57.00000

 Normal termination of Gaussian 16 at Thu Dec 10 15:51:57 2020.
