 Gaussian 16, Revision A.03,

 -----------------------------------------------------------
 # opt freq B3LYP/6-31G(d) empiricaldispersion=gd3bj scf=xqc
 -----------------------------------------------------------

 ------------------------------
 CID_89258367_JID_3210_neutraal
 ------------------------------
 Symbolic Z-matrix:
 Charge =  0 Multiplicity = 1

 SCF Done:  E(RB3LYP) =  -931.900724571     A.U. after   14 cycles
 SCF Done:  E(RB3LYP) =  -931.909659689     A.U. after   12 cycles
 SCF Done:  E(RB3LYP) =  -931.911177988     A.U. after   12 cycles
 SCF Done:  E(RB3LYP) =  -931.911652575     A.U. after   11 cycles
 SCF Done:  E(RB3LYP) =  -931.912117050     A.U. after   12 cycles
 SCF Done:  E(RB3LYP) =  -931.912315486     A.U. after   11 cycles
 SCF Done:  E(RB3LYP) =  -931.912449918     A.U. after   11 cycles
 SCF Done:  E(RB3LYP) =  -931.912498802     A.U. after   10 cycles
 SCF Done:  E(RB3LYP) =  -931.912504598     A.U. after    9 cycles
 SCF Done:  E(RB3LYP) =  -931.912512924     A.U. after    9 cycles
 SCF Done:  E(RB3LYP) =  -931.912513102     A.U. after    7 cycles
 SCF Done:  E(RB3LYP) =  -931.912513170     A.U. after    7 cycles
 Optimization completed.
    -- Stationary point found.
 Normal termination of Gaussian 16 at Wed Dec  9 22:28:00 2020.

 --------------------------------------------------------------------
 #N Geom=AllCheck Guess=TCheck SCRF=Check GenChk RB3LYP/6-31G(d) Freq
 --------------------------------------------------------------------

 Structure from the checkpoint file:  "JID_3210.chk"
 ------------------------------
 CID_89258367_JID_3210_neutraal
 ------------------------------
 Charge =  0 Multiplicity = 1

 SCF Done:  E(RB3LYP) =  -931.912513170     A.U. after    1 cycles

  Exact polarizability: 186.619  -4.202 111.380   5.714  -0.504  78.345
 Approx polarizability: 258.429  -5.338 195.517  20.970   4.260 126.469

                      1                      2                      3
                      A                      A                      A
 Frequencies --     52.0425               113.7405               137.5211
 Red. masses --      7.9223                 4.1146                 3.7165
 Frc consts  --      0.0126                 0.0314                 0.0414
 IR Inten    --      0.1544                 2.7729                 3.0605

                      4                      5                      6
                      A                      A                      A
 Frequencies --    209.7198               244.8639               273.4249
 Red. masses --      2.9879                 3.1242                 1.3485
 Frc consts  --      0.0774                 0.1104                 0.0594
 IR Inten    --      3.4842                 1.0665                 6.6273

                      7                      8                      9
                      A                      A                      A
 Frequencies --    295.6684               337.6744               361.3404
 Red. masses --      2.4845                 5.5230                 3.3168
 Frc consts  --      0.1280                 0.3710                 0.2552
 IR Inten    --     10.3035                 1.1827                 5.3159

                     10                     11                     12
                      A                      A                      A
 Frequencies --    384.8836               421.3645               436.0867
 Red. masses --      5.4432                 2.9008                 4.3393
 Frc consts  --      0.4751                 0.3035                 0.4862
 IR Inten    --      9.1458                 7.9211                 0.5499

                     13                     14                     15
                      A                      A                      A
 Frequencies --    456.1229               548.2668               576.8888
 Red. masses --      5.9136                 1.7551                 1.9826
 Frc consts  --      0.7249                 0.3108                 0.3887
 IR Inten    --      0.0981               179.9378               146.2189

                     16                     17                     18
                      A                      A                      A
 Frequencies --    617.0691               662.4832               696.4796
 Red. masses --      3.4878                 5.1180                 5.3453
 Frc consts  --      0.7825                 1.3234                 1.5277
 IR Inten    --     51.3500                 9.2787                27.6010

                     19                     20                     21
                      A                      A                      A
 Frequencies --    719.3813               732.0674               787.6020
 Red. masses --      5.4660                 4.1838                 3.1525
 Frc consts  --      1.6666                 1.3210                 1.1522
 IR Inten    --      1.0789                 5.4131                17.0024

                     22                     23                     24
                      A                      A                      A
 Frequencies --    798.2187               829.9331               840.0574
 Red. masses --      4.1708                 1.4738                 3.5234
 Frc consts  --      1.5657                 0.5981                 1.4650
 IR Inten    --     19.4854                15.4670                55.4768

                     25                     26                     27
                      A                      A                      A
 Frequencies --    853.1549               878.1308               901.3859
 Red. masses --      1.3320                 1.9390                 2.3861
 Frc consts  --      0.5712                 0.8809                 1.1423
 IR Inten    --      6.9974               122.0672                37.0219

                     28                     29                     30
                      A                      A                      A
 Frequencies --    971.2101               997.5951              1016.8084
 Red. masses --      2.0931                 2.5320                 4.1804
 Frc consts  --      1.1632                 1.4847                 2.5465
 IR Inten    --     49.5439                10.5017                94.1407

                     31                     32                     33
                      A                      A                      A
 Frequencies --   1033.4561              1074.1218              1108.0996
 Red. masses --      1.8713                 2.8623                 5.3186
 Frc consts  --      1.1775                 1.9457                 3.8478
 IR Inten    --      2.2891                23.1590                33.3637

                     34                     35                     36
                      A                      A                      A
 Frequencies --   1140.5755              1177.7351              1191.1019
 Red. masses --      1.6114                 1.1576                 1.5632
 Frc consts  --      1.2351                 0.9460                 1.3066
 IR Inten    --     25.1529                 3.9453               165.2832

                     37                     38                     39
                      A                      A                      A
 Frequencies --   1198.1856              1215.7593              1239.7343
 Red. masses --      1.5416                 1.6641                 1.2226
 Frc consts  --      1.3040                 1.4492                 1.1071
 IR Inten    --     12.2021                 0.9377                 0.4042

                     40                     41                     42
                      A                      A                      A
 Frequencies --   1286.0704              1315.8681              1335.7631
 Red. masses --      1.5821                 1.3917                 1.4292
 Frc consts  --      1.5417                 1.4198                 1.5025
 IR Inten    --     40.7495                15.4822                16.6755

                     43                     44                     45
                      A                      A                      A
 Frequencies --   1350.8591              1368.5760              1378.4456
 Red. masses --      1.4600                 5.5553                 2.0572
 Frc consts  --      1.5697                 6.1305                 2.3030
 IR Inten    --      0.4559               131.7175                40.1725

                     46                     47                     48
                      A                      A                      A
 Frequencies --   1439.7747              1472.6458              1515.4198
 Red. masses --      1.7426                 2.2745                 1.1258
 Frc consts  --      2.1283                 2.9062                 1.5232
 IR Inten    --      0.8122                37.0984                 4.2894

                     49                     50                     51
                      A                      A                      A
 Frequencies --   1529.5120              1541.0749              1577.5837
 Red. masses --      3.5156                 3.6055                 1.1359
 Frc consts  --      4.8457                 5.0451                 1.6656
 IR Inten    --    144.1262               123.3617                 1.1383

                     52                     53                     54
                      A                      A                      A
 Frequencies --   1669.6681              1680.6235              2673.6509
 Red. masses --      7.5931                 6.9537                 1.0382
 Frc consts  --     12.4718                11.5719                 4.3726
 IR Inten    --     18.4851                32.2424                 9.8467

                     55                     56                     57
                      A                      A                      A
 Frequencies --   2892.7642              3024.7703              3075.4643
 Red. masses --      1.0764                 1.0724                 1.0886
 Frc consts  --      5.3072                 5.7810                 6.0665
 IR Inten    --    210.1422                44.0828                80.1206

                     58                     59                     60
                      A                      A                      A
 Frequencies --   3124.8332              3148.9477              3195.2842
 Red. masses --      1.0919                 1.0890                 1.0910
 Frc consts  --      6.2816                 6.3622                 6.5629
 IR Inten    --     10.5022                21.3731                13.6351

                     61                     62                     63
                      A                      A                      A
 Frequencies --   3224.0728              3566.6907              3581.8825
 Red. masses --      1.0920                 1.0764                 1.0766
 Frc consts  --      6.6877                 8.0675                 8.1378
 IR Inten    --      4.2865                 6.5809                10.9712

 - Thermochemistry -
 -------------------
 Temperature   298.150 Kelvin.  Pressure   1.00000 Atm.
 Atom     1 has atomic number  6 and mass  12.00000

 Molecular mass:   194.05138 amu.
 Principal axes and moments of inertia in atomic units:
                           1         2         3
     Eigenvalues --   904.829274676.918365040.43714
           X            0.99997  -0.00749   0.00367
           Y            0.00755   0.99986  -0.01461
           Z           -0.00356   0.01463   0.99989
 This molecule is an asymmetric top.
 Rotational symmetry number  1.
 Warning -- assumption of classical behavior for rotation
           may cause significant error
 Rotational temperatures (Kelvin)      0.09572     0.01852     0.01718
 Rotational constants (GHZ):           1.99457     0.38588     0.35805
 Zero-point vibrational energy     475516.8 (Joules/Mol)
                                  113.65124 (Kcal/Mol)
 Warning -- explicit consideration of  16 degrees of freedom as
           vibrations may cause significant error
 Vibrational temperatures:     74.88   163.65   197.86   301.74   352.30
          (Kelvin)            393.40   425.40   485.84   519.89   553.76
                              606.25   627.43   656.26   788.83   830.01
                              887.82   953.17  1002.08  1035.03  1053.28
                             1133.18  1148.46  1194.09  1208.66  1227.50
                             1263.43  1296.89  1397.35  1435.32  1462.96
                             1486.91  1545.42  1594.31  1641.03  1694.50
                             1713.73  1723.92  1749.21  1783.70  1850.37
                             1893.24  1921.87  1943.58  1969.08  1983.28
                             2071.51  2118.81  2180.35  2200.63  2217.26
                             2269.79  2402.28  2418.04  3846.79  4162.04
                             4351.97  4424.91  4495.94  4530.63  4597.30
                             4638.72  5131.67  5153.53

 Zero-point correction=                           0.181115 (Hartree/Particle)
 Thermal correction to Energy=                    0.191774
 Thermal correction to Enthalpy=                  0.192718
 Thermal correction to Gibbs Free Energy=         0.144491
 Sum of electronic and zero-point Energies=           -931.731398
 Sum of electronic and thermal Energies=              -931.720740
 Sum of electronic and thermal Enthalpies=            -931.719795
 Sum of electronic and thermal Free Energies=         -931.768022

                     E (Thermal)             CV                S
                      KCal/Mol        Cal/Mol-Kelvin    Cal/Mol-Kelvin
 Total                  120.340             42.869            101.501
 Electronic               0.000              0.000              0.000
 Translational            0.889              2.981             41.694
 Rotational               0.889              2.981             31.434
 Vibrational            118.562             36.907             28.373
 Vibration     1          0.596              1.977              4.738
 Vibration     2          0.607              1.938              3.204
 Vibration     3          0.614              1.916              2.838
 Vibration     4          0.642              1.826              2.046
 Vibration     5          0.660              1.771              1.767
 Vibration     6          0.676              1.722              1.574
 Vibration     7          0.690              1.682              1.441
 Vibration     8          0.718              1.600              1.223
 Vibration     9          0.736              1.552              1.116
 Vibration    10          0.754              1.502              1.020
 Vibration    11          0.784              1.424              0.887
 Vibration    12          0.797              1.392              0.839
 Vibration    13          0.814              1.347              0.777
 Vibration    14          0.904              1.143              0.548
 Vibration    15          0.933              1.081              0.491
 Vibration    16          0.977              0.996              0.421

 Optimization completed.
    -- Stationary point found.
 Normal termination of Gaussian 16 at Wed Dec  9 22:34:11 2020.

 ----------------------------------------------------------------------
 # B3LYP/6-311++G(d,p) empiricaldispersion=gd3bj scf=xqc pop=npa geom=c
 heck
 ----------------------------------------------------------------------

 --------------------------------------
 CID_89258367_JID_3210_Energie_neutraal
 --------------------------------------
 Structure from the checkpoint file:  "JID_3210.chk"
 Charge =  0 Multiplicity = 1

 SCF Done:  E(RB3LYP) =  -932.089244663     A.U. after   16 cycles
 Normal termination of Gaussian 16 at Wed Dec  9 22:37:02 2020.

 ----------------------------------------------------------------------
 # B3LYP/6-311++G(d,p) empiricaldispersion=gd3bj scf=xqc pop=npa geom=c
 heck
 ----------------------------------------------------------------------

 ------------------------------------
 CID_89258367_JID_3210_Energie_kation
 ------------------------------------
 Structure from the checkpoint file:  "JID_3210.chk"
 Charge =  1 Multiplicity = 2

 SCF Done:  E(UB3LYP) =  -931.842403163     A.U. after   21 cycles
 Normal termination of Gaussian 16 at Wed Dec  9 22:42:29 2020.
 Gaussian 16:  ES64L-G16RevA.03 25-Dec-2016

 ----------------------------------------------------------------------
 # B3LYP/6-311++G(d,p) empiricaldispersion=gd3bj scf=xqc pop=npa geom=c
 heck
 ----------------------------------------------------------------------

 -----------------------------------
 CID_89258367_JID_3210_Energie_anion
 -----------------------------------
 Structure from the checkpoint file:  "JID_3210.chk"
 Charge = -1 Multiplicity = 2

                         Standard orientation:
 ---------------------------------------------------------------------
 Center     Atomic      Atomic             Coordinates (Angstroms)
 Number     Number       Type             X           Y           Z
 ---------------------------------------------------------------------
      1          6           0       -1.878018    1.300931   -0.723480
      2          6           0       -2.694547   -0.010351   -0.604936
      3          8           0       -1.757742   -1.076272   -0.817737
      4          6           0       -0.511428   -0.582264   -0.493127
      5          6           0        0.614070   -1.385369   -0.299265
      6          6           0        1.788987   -0.703606   -0.002218
      7          6           0        1.830848    0.700995    0.110740
      8          6           0        0.695109    1.477261   -0.074378
      9          6           0       -0.493591    0.805057   -0.387163
     10          7           0        3.142274    1.076194    0.489089
     11          6           0        4.005013   -0.080255    0.200975
     12          7           0        3.065702   -1.207059    0.299514
     13         16           0       -3.550124   -0.195567    1.024908
     14          1           0       -1.928637    1.680796   -1.754306
     15          1           0       -2.260963    2.081987   -0.062814
     16          1           0       -3.485054   -0.112072   -1.348365
     17          1           0        0.562981   -2.465498   -0.378828
     18          1           0        0.729635    2.559728    0.011018
     19          1           0        3.476453    1.945921    0.090003
     20          1           0        4.467276   -0.015201   -0.805763
     21          1           0        4.804256   -0.170048    0.944622
     22          1           0        3.347738   -2.046132   -0.192604
     23          1           0       -2.444247    0.061425    1.757303
 ---------------------------------------------------------------------

 SCF Done:  E(UB3LYP) =  -932.077811217     A.U. after   33 cycles
 SCF Done:  E(UB3LYP) =  -932.077811217     a.u. after    1 cycles

 The electronic state is 2-A.
 Alpha  occ. eigenvalues --  -88.75578 -19.05878 -14.21937 -14.21471 -10.17460
 Alpha  occ. eigenvalues --  -10.12652 -10.12133 -10.10521 -10.09816 -10.09444
 Alpha  occ. eigenvalues --  -10.07232 -10.07180 -10.07007  -7.84312  -5.80662
 Alpha  occ. eigenvalues --   -5.80346  -5.79701  -0.98156  -0.87959  -0.77102
 Alpha  occ. eigenvalues --   -0.74534  -0.71257  -0.66123  -0.63551  -0.60661
 Alpha  occ. eigenvalues --   -0.55174  -0.53123  -0.50683  -0.48230  -0.43920
 Alpha  occ. eigenvalues --   -0.41093  -0.40650  -0.38143  -0.36949  -0.35477
 Alpha  occ. eigenvalues --   -0.34012  -0.33619  -0.32285  -0.31649  -0.30934
 Alpha  occ. eigenvalues --   -0.29337  -0.27662  -0.27368  -0.26559  -0.24264
 Alpha  occ. eigenvalues --   -0.22979  -0.20990  -0.16502  -0.16130  -0.12817
 Alpha  occ. eigenvalues --   -0.07425   0.04396
 Alpha virt. eigenvalues --    0.06128   0.07167   0.07899   0.08369   0.08987
 Alpha virt. eigenvalues --    0.09208   0.09873   0.09974   0.10802   0.11285
 Alpha virt. eigenvalues --    0.12098   0.12134   0.13404   0.14097   0.14675

  Beta  occ. eigenvalues --  -88.75574 -19.05878 -14.21898 -14.21434 -10.17449
  Beta  occ. eigenvalues --  -10.12605 -10.12133 -10.10502 -10.09811 -10.09429
  Beta  occ. eigenvalues --  -10.07224 -10.07171 -10.07001  -7.84308  -5.80655
  Beta  occ. eigenvalues --   -5.80344  -5.79698  -0.98153  -0.87907  -0.77035
  Beta  occ. eigenvalues --   -0.74510  -0.71235  -0.66089  -0.63521  -0.60620
  Beta  occ. eigenvalues --   -0.55112  -0.53010  -0.50646  -0.48202  -0.43844
  Beta  occ. eigenvalues --   -0.41040  -0.40612  -0.38120  -0.36880  -0.35432
  Beta  occ. eigenvalues --   -0.33965  -0.33548  -0.32229  -0.31601  -0.30885
  Beta  occ. eigenvalues --   -0.29308  -0.27634  -0.27343  -0.26516  -0.24233
  Beta  occ. eigenvalues --   -0.22945  -0.20907  -0.16467  -0.16111  -0.12759
  Beta  occ. eigenvalues --   -0.07342
  Beta virt. eigenvalues --    0.06493   0.07587   0.07923   0.08260   0.08832
  Beta virt. eigenvalues --    0.09257   0.09628   0.10150   0.10923   0.11070
  Beta virt. eigenvalues --    0.11583   0.12255   0.12629   0.13413   0.14206

 Mulliken charges and spin densities:
               1          2
     1  C    0.635662  -1.300269
     2  C    0.539364  -0.024228
     3  O   -0.049411  -0.004890
     4  C   -0.095137  -0.670491
     5  C   -2.155363   1.585047
     6  C    1.497218  -1.358749
     7  C    0.916322  -0.997004
     8  C   -2.603417   2.089069
     9  C    1.698443  -0.757154
    10  N   -0.376692   0.247937
    11  C    1.900350  -2.200470
    12  N   -0.382877   0.249566
    13  S   -0.094966  -0.182864
    14  H   -0.102560   0.255034
    15  H    0.116999   0.071902
    16  H   -0.138671   0.442941
    17  H   -0.166501   0.337034
    18  H   -0.485616   0.644414
    19  H   -0.251287   0.505869
    20  H   -1.003102   1.186701
    21  H   -0.244364   0.416691
    22  H   -0.181930   0.436787
    23  H    0.027534   0.027127
 Sum of Mulliken charges =  -1.00000   1.00000

 Dipole moment (field-independent basis, Debye):
    X=             -8.0337    Y=             -0.3837    Z=              2.4846  Tot=              8.4179
 Quadrupole moment (field-independent basis, Debye-Ang):
   XX=           -174.3077   YY=           -118.7364   ZZ=           -113.0499
   XY=             -3.9913   XZ=              6.8609   YZ=              1.3221

 Summary of Natural Population Analysis:

                                       Natural Population
                Natural  -----------------------------------------------
    Atom  No    Charge         Core      Valence    Rydberg      Total
 -----------------------------------------------------------------------
      C    1   -0.20751      0.99958     2.19865    0.00927     3.20751
      C    2    0.01177      0.99958     1.97008    0.01857     2.98823
      O    3   -0.27839      0.99986     3.26903    0.00949     4.27839
      C    4    0.14832      0.99933     1.83729    0.01507     2.85168
      C    5   -0.14348      0.99947     2.13456    0.00945     3.14348
      C    6    0.08734      0.99946     1.90154    0.01166     2.91266
      C    7    0.06894      0.99945     1.91971    0.01190     2.93106
      C    8   -0.11037      0.99948     2.10145    0.00944     3.11037
      C    9   -0.06243      0.99947     2.05281    0.01014     3.06243
      N   10   -0.32111      0.99970     2.80966    0.01175     3.82111
      C   11    0.02357      0.99966     1.96330    0.01348     2.97643
      N   12   -0.31684      0.99969     2.80574    0.01140     3.81684
      S   13   -0.03570      4.99964     3.02229    0.01376     8.03570
      H   14    0.10713      0.00000     0.39110    0.00177     0.39287
      H   15    0.10874      0.00000     0.39004    0.00122     0.39126
      H   16    0.09807      0.00000     0.40046    0.00147     0.40193
      H   17    0.10742      0.00000     0.39116    0.00142     0.39258
      H   18    0.10314      0.00000     0.39550    0.00136     0.39686
      H   19    0.19166      0.00000     0.30207    0.00627     0.30834
      H   20    0.07650      0.00000     0.41504    0.00846     0.42350
      H   21    0.08702      0.00000     0.41090    0.00208     0.41298
      H   22    0.19198      0.00000     0.30332    0.00470     0.30802
      H   23    0.06423      0.00000     0.43304    0.00273     0.43577
 =======================================================================
   * Total *   -0.00000     16.99438    33.81873    0.18689    51.00000

 Normal termination of Gaussian 16 at Wed Dec  9 22:51:07 2020.
