 Gaussian 16, Revision A.03,

 -----------------------------------------------------------
 # opt freq B3LYP/6-31G(d) empiricaldispersion=gd3bj scf=xqc
 -----------------------------------------------------------

 -------------------------------
 CID_116290868_JID_2488_neutraal
 -------------------------------
 Symbolic Z-matrix:
 Charge =  0 Multiplicity = 1

 SCF Done:  E(RB3LYP) =  -883.789435259     A.U. after   13 cycles
 SCF Done:  E(RB3LYP) =  -883.793002637     A.U. after   11 cycles
 SCF Done:  E(RB3LYP) =  -883.793227423     A.U. after   11 cycles
 SCF Done:  E(RB3LYP) =  -883.794286281     A.U. after   11 cycles
 SCF Done:  E(RB3LYP) =  -883.794769560     A.U. after   11 cycles
 SCF Done:  E(RB3LYP) =  -883.794968413     A.U. after   10 cycles
 SCF Done:  E(RB3LYP) =  -883.795149122     A.U. after   10 cycles
 SCF Done:  E(RB3LYP) =  -883.795621661     A.U. after   11 cycles
 SCF Done:  E(RB3LYP) =  -883.795136258     A.U. after   13 cycles
 SCF Done:  E(RB3LYP) =  -883.797081068     A.U. after   11 cycles
 SCF Done:  E(RB3LYP) =  -883.800995908     A.U. after    9 cycles
 SCF Done:  E(RB3LYP) =  -883.801001773     A.U. after    9 cycles
 SCF Done:  E(RB3LYP) =  -883.801003160     A.U. after    8 cycles
 SCF Done:  E(RB3LYP) =  -883.801003420     A.U. after    7 cycles
 SCF Done:  E(RB3LYP) =  -883.801003458     A.U. after    6 cycles
 SCF Done:  E(RB3LYP) =  -883.801003470     A.U. after    6 cycles
 Optimization completed.
    -- Stationary point found.
 Normal termination of Gaussian 16 at Wed Dec  9 17:32:36 2020.

 --------------------------------------------------------------------
 #N Geom=AllCheck Guess=TCheck SCRF=Check GenChk RB3LYP/6-31G(d) Freq
 --------------------------------------------------------------------

 Structure from the checkpoint file:  "JID_2488.chk"
 -------------------------------
 CID_116290868_JID_2488_neutraal
 -------------------------------
 Charge =  0 Multiplicity = 1

 SCF Done:  E(RB3LYP) =  -883.801003470     A.U. after    1 cycles

  Exact polarizability: 155.172   0.315 116.661   0.073  -3.999 106.299
 Approx polarizability: 183.776  -1.036 163.506  -1.099  -8.116 161.130

                      1                      2                      3
                      A                      A                      A
 Frequencies --     22.2386                25.1905                50.6740
 Red. masses --      3.5947                 4.2265                 3.3486
 Frc consts  --      0.0010                 0.0016                 0.0051
 IR Inten    --      0.7695                 0.1450                 0.0909

                      4                      5                      6
                      A                      A                      A
 Frequencies --     59.8341                79.6355                90.2256
 Red. masses --      2.7606                 2.7129                 2.4273
 Frc consts  --      0.0058                 0.0101                 0.0116
 IR Inten    --      0.4681                 0.1569                 4.8455

                      7                      8                      9
                      A                      A                      A
 Frequencies --    117.2881               154.7003               179.9463
 Red. masses --      2.0198                 3.6826                 1.8044
 Frc consts  --      0.0164                 0.0519                 0.0344
 IR Inten    --      1.3198                 0.5913                 5.4474

                     10                     11                     12
                      A                      A                      A
 Frequencies --    204.2227               216.2795               244.8735
 Red. masses --      2.6021                 2.0409                 1.4381
 Frc consts  --      0.0639                 0.0562                 0.0508
 IR Inten    --      0.1399                 0.7303                 8.3098

                     13                     14                     15
                      A                      A                      A
 Frequencies --    270.2893               274.9875               286.5002
 Red. masses --      1.7177                 1.7750                 1.2142
 Frc consts  --      0.0739                 0.0791                 0.0587
 IR Inten    --      1.1952                 1.3340                 0.5758

                     16                     17                     18
                      A                      A                      A
 Frequencies --    317.6829               346.9078               360.9697
 Red. masses --      2.1957                 3.3306                 2.5252
 Frc consts  --      0.1306                 0.2362                 0.1939
 IR Inten    --      1.1356                 0.3022                 0.7930

                     19                     20                     21
                      A                      A                      A
 Frequencies --    408.4059               446.6508               496.2533
 Red. masses --      2.4951                 2.1465                 2.5263
 Frc consts  --      0.2452                 0.2523                 0.3666
 IR Inten    --      0.6823                 3.8513                 1.2498

                     22                     23                     24
                      A                      A                      A
 Frequencies --    555.4837               656.7095               739.4410
 Red. masses --      2.6424                 4.2709                 3.0129
 Frc consts  --      0.4804                 1.0852                 0.9706
 IR Inten    --      0.1955                 2.3956                21.5179

                     25                     26                     27
                      A                      A                      A
 Frequencies --    760.6667               772.4995               825.8363
 Red. masses --      1.6063                 1.3096                 1.5738
 Frc consts  --      0.5476                 0.4604                 0.6324
 IR Inten    --     53.0851                 2.8404                 6.4784

                     28                     29                     30
                      A                      A                      A
 Frequencies --    837.0330               890.9531               904.2085
 Red. masses --      1.8912                 1.6755                 2.1430
 Frc consts  --      0.7807                 0.7836                 1.0323
 IR Inten    --      3.0931                 6.4783                 3.3996

                     31                     32                     33
                      A                      A                      A
 Frequencies --    937.9095               954.9585               990.6812
 Red. masses --      1.9012                 1.8956                 1.9179
 Frc consts  --      0.9854                 1.0185                 1.1091
 IR Inten    --     11.3961                 9.5715                 7.8770

                     34                     35                     36
                      A                      A                      A
 Frequencies --   1021.0948              1048.0476              1078.5375
 Red. masses --      1.8845                 1.3170                 1.7564
 Frc consts  --      1.1576                 0.8523                 1.2038
 IR Inten    --      8.1638                 1.7306                 4.3208

                     37                     38                     39
                      A                      A                      A
 Frequencies --   1084.6467              1094.8133              1112.9978
 Red. masses --      2.2228                 1.9483                 1.7803
 Frc consts  --      1.5407                 1.3759                 1.2993
 IR Inten    --      6.6254                22.3837                 8.0108

                     40                     41                     42
                      A                      A                      A
 Frequencies --   1137.9116              1148.2600              1172.8236
 Red. masses --      2.4345                 1.9759                 5.0696
 Frc consts  --      1.8572                 1.5350                 4.1085
 IR Inten    --     13.0857                 7.2139               151.1077

                     43                     44                     45
                      A                      A                      A
 Frequencies --   1175.2794              1195.0166              1212.8248
 Red. masses --      1.9588                 1.2905                 1.3695
 Frc consts  --      1.5941                 1.0858                 1.1869
 IR Inten    --     80.6911                 3.3191                30.2852

                     46                     47                     48
                      A                      A                      A
 Frequencies --   1249.0790              1270.5329              1271.1017
 Red. masses --      1.6478                 1.3052                 1.1807
 Frc consts  --      1.5147                 1.2414                 1.1239
 IR Inten    --     14.1706                 2.9803                11.3492

                     49                     50                     51
                      A                      A                      A
 Frequencies --   1298.1184              1302.9907              1327.1350
 Red. masses --      1.1960                 1.3819                 1.2857
 Frc consts  --      1.1875                 1.3823                 1.3342
 IR Inten    --      4.4611                13.7600                14.5562

                     52                     53                     54
                      A                      A                      A
 Frequencies --   1332.9649              1366.9844              1383.8979
 Red. masses --      1.1226                 1.2797                 1.3393
 Frc consts  --      1.1752                 1.4089                 1.5113
 IR Inten    --      2.4935                14.5579                 5.1449

                     55                     56                     57
                      A                      A                      A
 Frequencies --   1401.2579              1420.2103              1427.3502
 Red. masses --      1.3324                 1.4758                 1.2638
 Frc consts  --      1.5414                 1.7538                 1.5170
 IR Inten    --     15.0969                 0.7029                17.6934

                     58                     59                     60
                      A                      A                      A
 Frequencies --   1439.8808              1445.2957              1489.5138
 Red. masses --      1.2251                 1.3703                 1.0865
 Frc consts  --      1.4966                 1.6865                 1.4202
 IR Inten    --      3.1837                13.2417                 1.6546

                     61                     62                     63
                      A                      A                      A
 Frequencies --   1495.7077              1500.8287              1502.6018
 Red. masses --      1.1359                 1.0824                 1.1610
 Frc consts  --      1.4972                 1.4364                 1.5445
 IR Inten    --     19.6066                 1.9983                 6.9641

                     64                     65                     66
                      A                      A                      A
 Frequencies --   1514.6229              1514.6919              1522.6759
 Red. masses --      1.1408                 1.0551                 1.0435
 Frc consts  --      1.5420                 1.4262                 1.4255
 IR Inten    --     10.4772                 1.2815                 5.2920

                     67                     68                     69
                      A                      A                      A
 Frequencies --   1524.3626              1529.0566              1531.2030
 Red. masses --      1.0790                 1.0470                 1.0612
 Frc consts  --      1.4773                 1.4423                 1.4659
 IR Inten    --      5.1765                 1.6989                13.0995

                     70                     71                     72
                      A                      A                      A
 Frequencies --   1539.1092              1543.3870              1556.3586
 Red. masses --      1.0627                 1.0825                 1.0916
 Frc consts  --      1.4832                 1.5193                 1.5579
 IR Inten    --      8.1060                22.5345                 4.6946

                     73                     74                     75
                      A                      A                      A
 Frequencies --   2964.1713              2976.2717              2988.6577
 Red. masses --      1.0730                 1.0551                 1.0472
 Frc consts  --      5.5548                 5.5068                 5.5110
 IR Inten    --     77.7233                35.6479               104.7885

                     76                     77                     78
                      A                      A                      A
 Frequencies --   3027.3009              3034.2301              3036.5515
 Red. masses --      1.1033                 1.0927                 1.0462
 Frc consts  --      5.9572                 5.9274                 5.6837
 IR Inten    --     89.8082                15.6523                12.4514

                     79                     80                     81
                      A                      A                      A
 Frequencies --   3040.7681              3047.6606              3051.4418
 Red. masses --      1.0688                 1.0394                 1.0759
 Frc consts  --      5.8225                 5.6882                 5.9022
 IR Inten    --     50.1145                27.8991                 5.4907

                     82                     83                     84
                      A                      A                      A
 Frequencies --   3064.3532              3074.0895              3085.8736
 Red. masses --      1.0670                 1.0601                 1.0962
 Frc consts  --      5.9033                 5.9026                 6.1502
 IR Inten    --     28.2378                13.7279                33.3575

                     85                     86                     87
                      A                      A                      A
 Frequencies --   3100.0477              3109.9316              3111.6318
 Red. masses --      1.0907                 1.0994                 1.0940
 Frc consts  --      6.1759                 6.2649                 6.2406
 IR Inten    --     28.8662                31.1791                31.6992

                     88                     89                     90
                      A                      A                      A
 Frequencies --   3116.6842              3130.0209              3131.7288
 Red. masses --      1.1032                 1.1000                 1.0963
 Frc consts  --      6.3139                 6.3492                 6.3352
 IR Inten    --     10.7301                11.8942                35.1698

                     91                     92                     93
                      A                      A                      A
 Frequencies --   3132.5614              3140.2670              3457.1200
 Red. masses --      1.1017                 1.1040                 1.0730
 Frc consts  --      6.3698                 6.4144                 7.5558
 IR Inten    --     32.7750                27.9264                 2.0610

 - Thermochemistry -
 -------------------
 Temperature   298.150 Kelvin.  Pressure   1.00000 Atm.
 Atom     1 has atomic number  6 and mass  12.00000

 Molecular mass:   191.13439 amu.
 Principal axes and moments of inertia in atomic units:
                           1         2         3
     Eigenvalues --  1212.807676728.738597260.90066
           X            0.99991  -0.01278   0.00369
           Y            0.01265   0.99930   0.03520
           Z           -0.00414  -0.03515   0.99937
 This molecule is an asymmetric top.
 Rotational symmetry number  1.
 Warning -- assumption of classical behavior for rotation
           may cause significant error
 Rotational temperatures (Kelvin)      0.07142     0.01287     0.01193
 Rotational constants (GHZ):           1.48807     0.26821     0.24856
 Zero-point vibrational energy     786453.0 (Joules/Mol)
                                  187.96678 (Kcal/Mol)
 Warning -- explicit consideration of  22 degrees of freedom as
           vibrations may cause significant error
 Vibrational temperatures:     32.00    36.24    72.91    86.09   114.58
          (Kelvin)            129.81   168.75   222.58   258.90   293.83
                              311.18   352.32   388.89   395.65   412.21
                              457.07   499.12   519.35   587.60   642.63
                              714.00   799.22   944.86  1063.89  1094.43
                             1111.45  1188.19  1204.30  1281.88  1300.95
                             1349.44  1373.97  1425.37  1469.13  1507.91
                             1551.77  1560.56  1575.19  1601.36  1637.20
                             1652.09  1687.43  1690.96  1719.36  1744.98
                             1797.15  1828.01  1828.83  1867.70  1874.71
                             1909.45  1917.84  1966.79  1991.12  2016.10
                             2043.37  2053.64  2071.67  2079.46  2143.08
                             2151.99  2159.36  2161.91  2179.20  2179.30
                             2190.79  2193.22  2199.97  2203.06  2214.43
                             2220.59  2239.25  4264.78  4282.19  4300.01
                             4355.61  4365.58  4368.92  4374.99  4384.90
                             4390.34  4408.92  4422.93  4439.88  4460.28
                             4474.50  4476.94  4484.21  4503.40  4505.86
                             4507.06  4518.14  4974.02

 Zero-point correction=                           0.299544 (Hartree/Particle)
 Thermal correction to Energy=                    0.315543
 Thermal correction to Enthalpy=                  0.316488
 Thermal correction to Gibbs Free Energy=         0.253822
 Sum of electronic and zero-point Energies=           -883.501459
 Sum of electronic and thermal Energies=              -883.485460
 Sum of electronic and thermal Enthalpies=            -883.484516
 Sum of electronic and thermal Free Energies=         -883.547181

                     E (Thermal)             CV                S
                      KCal/Mol        Cal/Mol-Kelvin    Cal/Mol-Kelvin
 Total                  198.006             56.466            131.890
 Electronic               0.000              0.000              0.000
 Translational            0.889              2.981             41.649
 Rotational               0.889              2.981             32.449
 Vibrational            196.229             50.504             57.792
 Vibration     1          0.593              1.985              6.424
 Vibration     2          0.593              1.985              6.176
 Vibration     3          0.595              1.977              4.791
 Vibration     4          0.597              1.973              4.463
 Vibration     5          0.600              1.963              3.900
 Vibration     6          0.602              1.956              3.655
 Vibration     7          0.608              1.935              3.145
 Vibration     8          0.620              1.897              2.614
 Vibration     9          0.629              1.867              2.329
 Vibration    10          0.640              1.834              2.095
 Vibration    11          0.645              1.816              1.990
 Vibration    12          0.660              1.771              1.767
 Vibration    13          0.674              1.728              1.594
 Vibration    14          0.677              1.720              1.565
 Vibration    15          0.684              1.699              1.495
 Vibration    16          0.704              1.640              1.322
 Vibration    17          0.725              1.582              1.180
 Vibration    18          0.735              1.553              1.118
 Vibration    19          0.773              1.452              0.932
 Vibration    20          0.806              1.368              0.806
 Vibration    21          0.852              1.258              0.668
 Vibration    22          0.911              1.128              0.533

 Optimization completed.
    -- Stationary point found.
 Normal termination of Gaussian 16 at Wed Dec  9 17:40:33 2020.

 ----------------------------------------------------------------------
 # B3LYP/6-311++G(d,p) empiricaldispersion=gd3bj scf=xqc pop=npa geom=c
 heck
 ----------------------------------------------------------------------

 ---------------------------------------
 CID_116290868_JID_2488_Energie_neutraal
 ---------------------------------------
 Structure from the checkpoint file:  "JID_2488.chk"
 Charge =  0 Multiplicity = 1

 SCF Done:  E(RB3LYP) =  -883.974138802     A.U. after   14 cycles
 Normal termination of Gaussian 16 at Wed Dec  9 17:45:24 2020.

 ----------------------------------------------------------------------
 # B3LYP/6-311++G(d,p) empiricaldispersion=gd3bj scf=xqc pop=npa geom=c
 heck
 ----------------------------------------------------------------------

 -------------------------------------
 CID_116290868_JID_2488_Energie_kation
 -------------------------------------
 Structure from the checkpoint file:  "JID_2488.chk"
 Charge =  1 Multiplicity = 2

 SCF Done:  E(UB3LYP) =  -883.688064041     A.U. after   24 cycles
 Normal termination of Gaussian 16 at Wed Dec  9 17:55:49 2020.
 Gaussian 16:  ES64L-G16RevA.03 25-Dec-2016

 ----------------------------------------------------------------------
 # B3LYP/6-311++G(d,p) empiricaldispersion=gd3bj scf=xqc pop=npa geom=c
 heck
 ----------------------------------------------------------------------

 ------------------------------------
 CID_116290868_JID_2488_Energie_anion
 ------------------------------------
 Structure from the checkpoint file:  "JID_2488.chk"
 Charge = -1 Multiplicity = 2

                         Standard orientation:
 ---------------------------------------------------------------------
 Center     Atomic      Atomic             Coordinates (Angstroms)
 Number     Number       Type             X           Y           Z
 ---------------------------------------------------------------------
      1          6           0        4.656556    0.201948    1.298503
      2          6           0        4.156616    0.042324   -0.134939
      3         16           0        2.776986    1.172404   -0.581923
      4          6           0        1.371102    0.447028    0.350761
      5          6           0        0.453957   -0.478049   -0.463170
      6          6           0        1.177212   -1.726240   -0.985786
      7          7           0       -0.717154   -0.763552    0.372791
      8          6           0       -1.846226   -1.390569   -0.313260
      9          6           0       -3.098248   -1.357079    0.567986
     10          6           0       -3.575249    0.060189    0.850229
     11          8           0       -3.977965    0.643083   -0.378723
     12          6           0       -4.316410    2.003900   -0.245931
     13          1           0        4.998058    1.225313    1.480410
     14          1           0        5.491401   -0.483878    1.490161
     15          1           0        3.869161   -0.022768    2.026007
     16          1           0        4.950736    0.289557   -0.847227
     17          1           0        3.855330   -0.989940   -0.336933
     18          1           0        1.768880   -0.080397    1.226459
     19          1           0        0.773503    1.281941    0.725112
     20          1           0        0.085767    0.094925   -1.323742
     21          1           0        1.582976   -2.314690   -0.151414
     22          1           0        0.493530   -2.368633   -1.549819
     23          1           0        2.003476   -1.453078   -1.649250
     24          1           0       -0.432150   -1.351758    1.156708
     25          1           0       -2.045330   -0.812208   -1.221562
     26          1           0       -1.649489   -2.430407   -0.628412
     27          1           0       -3.903451   -1.915547    0.075356
     28          1           0       -2.897317   -1.860288    1.524263
     29          1           0       -4.419841    0.052510    1.560423
     30          1           0       -2.756322    0.643433    1.297154
     31          1           0       -5.161640    2.149577    0.447107
     32          1           0       -3.465763    2.601342    0.120183
     33          1           0       -4.605345    2.366014   -1.236325
 ---------------------------------------------------------------------

 SCF Done:  E(UB3LYP) =  -883.959621085     A.U. after   28 cycles

 The electronic state is 2-A.
 Alpha  occ. eigenvalues --  -88.73957 -19.03285 -14.19835 -10.12198 -10.11524
 Alpha  occ. eigenvalues --  -10.10590 -10.10335 -10.09614 -10.09327 -10.07199
 Alpha  occ. eigenvalues --  -10.06892 -10.06057  -7.82573  -5.78968  -5.78600
 Alpha  occ. eigenvalues --   -5.77948  -0.94599  -0.81398  -0.71736  -0.69042
 Alpha  occ. eigenvalues --   -0.65866  -0.61974  -0.59946  -0.57015  -0.54828
 Alpha  occ. eigenvalues --   -0.50462  -0.49005  -0.47219  -0.40266  -0.39494
 Alpha  occ. eigenvalues --   -0.38457  -0.37328  -0.37170  -0.35966  -0.34610
 Alpha  occ. eigenvalues --   -0.33767  -0.32588  -0.31855  -0.30512  -0.30225
 Alpha  occ. eigenvalues --   -0.28309  -0.27576  -0.27163  -0.26635  -0.25401
 Alpha  occ. eigenvalues --   -0.24995  -0.24650  -0.23626  -0.22977  -0.20762
 Alpha  occ. eigenvalues --   -0.17033  -0.13504  -0.12609   0.04303
 Alpha virt. eigenvalues --    0.05764   0.06715   0.07492   0.07919   0.08680
 Alpha virt. eigenvalues --    0.08862   0.09362   0.09837   0.10276   0.10927
 Alpha virt. eigenvalues --    0.11122   0.11401   0.11767   0.12654   0.12876

  Beta  occ. eigenvalues --  -88.73956 -19.03278 -14.19815 -10.12174 -10.11508
  Beta  occ. eigenvalues --  -10.10588 -10.10318 -10.09598 -10.09320 -10.07182
  Beta  occ. eigenvalues --  -10.06854 -10.06029  -7.82571  -5.78967  -5.78596
  Beta  occ. eigenvalues --   -5.77947  -0.94589  -0.81370  -0.71711  -0.69013
  Beta  occ. eigenvalues --   -0.65831  -0.61934  -0.59901  -0.56962  -0.54774
  Beta  occ. eigenvalues --   -0.50403  -0.48953  -0.47168  -0.40230  -0.39455
  Beta  occ. eigenvalues --   -0.38430  -0.37299  -0.37146  -0.35937  -0.34572
  Beta  occ. eigenvalues --   -0.33731  -0.32548  -0.31830  -0.30472  -0.30170
  Beta  occ. eigenvalues --   -0.28269  -0.27543  -0.27135  -0.26609  -0.25375
  Beta  occ. eigenvalues --   -0.24955  -0.24610  -0.23600  -0.22934  -0.20735
  Beta  occ. eigenvalues --   -0.17015  -0.13483  -0.12592
  Beta virt. eigenvalues --    0.06284   0.06774   0.07420   0.07834   0.08410
  Beta virt. eigenvalues --    0.08922   0.09165   0.09810   0.10094   0.10642
  Beta virt. eigenvalues --    0.11155   0.11428   0.11653   0.11984   0.12796

 Mulliken charges and spin densities:
               1          2
     1  C    0.892539  -1.500124
     2  C   -0.760678   0.435513
     3  S    0.357265  -0.205346
     4  C    0.291981  -0.188305
     5  C   -1.304967   0.773184
     6  C    0.917644  -1.619305
     7  N    0.067363   0.097347
     8  C   -0.111243  -0.121400
     9  C    0.374278  -0.919703
    10  C   -0.343863   0.085917
    11  O   -0.156164   0.037385
    12  C    0.289597  -0.532912
    13  H    0.044548   0.080317
    14  H   -0.523150   0.651717
    15  H   -0.480690   0.643247
    16  H   -0.207260   0.385056
    17  H    0.199549  -0.030438
    18  H    0.148042  -0.099796
    19  H    0.176013   0.112170
    20  H    0.144671  -0.027720
    21  H   -0.522054   0.697921
    22  H    0.149256  -0.004804
    23  H   -0.028252   0.161262
    24  H    0.038742   0.182484
    25  H    0.185060  -0.031726
    26  H   -0.232205   0.339409
    27  H    0.155822   0.011544
    28  H   -0.334122   0.478136
    29  H   -0.246490   0.380686
    30  H    0.152347   0.017228
    31  H   -0.231325   0.355183
    32  H   -0.022993   0.149989
    33  H   -0.079263   0.205884
 Sum of Mulliken charges =  -1.00000   1.00000

 Dipole moment (field-independent basis, Debye):
    X=             -1.9791    Y=              2.2782    Z=             -3.7392  Tot=              4.8050
 Quadrupole moment (field-independent basis, Debye-Ang):
   XX=           -190.8552   YY=           -127.6453   ZZ=           -120.0028
   XY=              9.3707   XZ=             -3.5712   YZ=              5.2286

 Summary of Natural Population Analysis:

                                       Natural Population
                Natural  -----------------------------------------------
    Atom  No    Charge         Core      Valence    Rydberg      Total
 -----------------------------------------------------------------------
      C    1   -0.29049      0.99965     2.28418    0.00666     3.29049
      C    2   -0.25150      0.99961     2.24119    0.01070     3.25150
      S    3    0.07907      4.99963     2.90462    0.01668     7.92093
      C    4   -0.25139      0.99955     2.23998    0.01186     3.25139
      C    5   -0.01439      0.99959     2.00232    0.01248     3.01439
      C    6   -0.29903      0.99964     2.29296    0.00643     3.29903
      N    7   -0.34561      0.99973     2.83352    0.01237     3.84561
      C    8   -0.08792      0.99962     2.07676    0.01155     3.08792
      C    9   -0.20033      0.99962     2.19036    0.01034     3.20033
      C   10   -0.01026      0.99958     1.99843    0.01225     3.01026
      O   11   -0.30174      0.99988     3.29230    0.00956     4.30174
      C   12   -0.09655      0.99962     2.08758    0.00935     3.09655
      H   13    0.09811      0.00000     0.40043    0.00146     0.40189
      H   14    0.10201      0.00000     0.39594    0.00204     0.39799
      H   15    0.09977      0.00000     0.39867    0.00156     0.40023
      H   16    0.10201      0.00000     0.39690    0.00109     0.39799
      H   17    0.10281      0.00000     0.39564    0.00155     0.39719
      H   18    0.10380      0.00000     0.39460    0.00160     0.39620
      H   19    0.11103      0.00000     0.38765    0.00132     0.38897
      H   20    0.09040      0.00000     0.40744    0.00216     0.40960
      H   21    0.09944      0.00000     0.39886    0.00170     0.40056
      H   22    0.09986      0.00000     0.39921    0.00093     0.40014
      H   23    0.10289      0.00000     0.39600    0.00111     0.39711
      H   24    0.17259      0.00000     0.32381    0.00360     0.32741
      H   25    0.09614      0.00000     0.40208    0.00179     0.40386
      H   26    0.08153      0.00000     0.41710    0.00138     0.41847
      H   27    0.09898      0.00000     0.39978    0.00123     0.40102
      H   28    0.09962      0.00000     0.39910    0.00129     0.40038
      H   29    0.07814      0.00000     0.42032    0.00155     0.42186
      H   30    0.08707      0.00000     0.41099    0.00194     0.41293
      H   31    0.07744      0.00000     0.42088    0.00168     0.42256
      H   32    0.07888      0.00000     0.41993    0.00119     0.42112
      H   33    0.08761      0.00000     0.41148    0.00091     0.41239
 =======================================================================
   * Total *   -0.00000     15.99573    36.84098    0.16330    53.00000

 Normal termination of Gaussian 16 at Wed Dec  9 18:07:55 2020.
