 Gaussian 16, Revision A.03,

 -----------------------------------------------------------
 # opt freq B3LYP/6-31G(d) empiricaldispersion=gd3bj scf=xqc
 -----------------------------------------------------------

 -------------------------------
 CID_154085418_JID_4846_neutraal
 -------------------------------
 Symbolic Z-matrix:
 Charge =  0 Multiplicity = 1

 SCF Done:  E(RB3LYP) =  -686.689215536     A.U. after   15 cycles
 SCF Done:  E(RB3LYP) =  -686.702751752     A.U. after   14 cycles
 SCF Done:  E(RB3LYP) =  -686.702591861     A.U. after   14 cycles
 SCF Done:  E(RB3LYP) =  -686.706036580     A.U. after   13 cycles
 SCF Done:  E(RB3LYP) =  -686.706543273     A.U. after   12 cycles
 SCF Done:  E(RB3LYP) =  -686.707175899     A.U. after   14 cycles
 SCF Done:  E(RB3LYP) =  -686.707633641     A.U. after   13 cycles
 SCF Done:  E(RB3LYP) =  -686.708020205     A.U. after   12 cycles
 SCF Done:  E(RB3LYP) =  -686.708318666     A.U. after   14 cycles
 SCF Done:  E(RB3LYP) =  -686.708365910     A.U. after   12 cycles
 SCF Done:  E(RB3LYP) =  -686.708416038     A.U. after    9 cycles
 SCF Done:  E(RB3LYP) =  -686.708418900     A.U. after    9 cycles
 SCF Done:  E(RB3LYP) =  -686.708419687     A.U. after    9 cycles
 SCF Done:  E(RB3LYP) =  -686.708420287     A.U. after    9 cycles
 SCF Done:  E(RB3LYP) =  -686.708420446     A.U. after    8 cycles
 SCF Done:  E(RB3LYP) =  -686.708420528     A.U. after    8 cycles
 Optimization completed.
    -- Stationary point found.

 1\1\GINC-NODE107\FOpt\RB3LYP\6-31G(d)\C10H8O4\VSC10255\10-Dec-2020\0\\
 # opt freq B3LYP/6-31G(d) empiricaldispersion=gd3bj scf=xqc\\CID_15408
 5418_JID_4846_neutraal\\0,1\C,0.9073086919,-0.0332763828,0.089737726\C
 ,-0.5131852431,0.4566486377,0.2942135953\O,-0.554923312,1.755965337,-0
 .3470347449\C,-1.1620338999,2.9337553424,0.1463005875\O,-0.5564394993,
 3.96432261,0.1086419267\C,-2.5637974119,2.5962732606,0.552880094\C,-2.
 6970724496,1.988565762,1.8063119627\C,-3.1486600924,0.6627417005,1.847
 6519954\C,-3.4377128726,0.0310587079,0.6329259198\C,-3.8027188101,0.82

 Normal termination of Gaussian 16 at Thu Dec 10 10:45:34 2020.

 --------------------------------------------------------------------
 #N Geom=AllCheck Guess=TCheck SCRF=Check GenChk RB3LYP/6-31G(d) Freq
 --------------------------------------------------------------------

 Structure from the checkpoint file:  "JID_4846.chk"
 -------------------------------
 CID_154085418_JID_4846_neutraal
 -------------------------------
 Charge =  0 Multiplicity = 1

 SCF Done:  E(RB3LYP) =  -686.708420528     A.U. after    1 cycles

  Exact polarizability: 134.986   0.003  89.137  -0.003   3.710  93.195
 Approx polarizability: 262.087   0.012 123.298  -0.003   4.087 167.552

                      1                      2                      3
                      A                      A                      A
 Frequencies --     48.4804                73.6434               147.9936
 Red. masses --      9.9212                 7.5025                 5.5400
 Frc consts  --      0.0137                 0.0240                 0.0715
 IR Inten    --      5.6698                 3.1291                 2.6021

                      4                      5                      6
                      A                      A                      A
 Frequencies --    152.2968               230.9078               232.1994
 Red. masses --      3.7398                 4.1975                 2.5690
 Frc consts  --      0.0511                 0.1319                 0.0816
 IR Inten    --      1.0567                 2.6646                 0.1379

                      7                      8                      9
                      A                      A                      A
 Frequencies --    258.9862               272.6104               333.2178
 Red. masses --      1.5589                 7.6005                 6.8405
 Frc consts  --      0.0616                 0.3328                 0.4475
 IR Inten    --      0.0364                 1.3342                 0.8878

                     10                     11                     12
                      A                      A                      A
 Frequencies --    335.0276               399.2034               423.7142
 Red. masses --      2.5421                 5.9587                 3.1460
 Frc consts  --      0.1681                 0.5595                 0.3328
 IR Inten    --      3.0791                 2.4992                 1.1367

                     13                     14                     15
                      A                      A                      A
 Frequencies --    468.8219               525.9408               536.5947
 Red. masses --      7.0607                 4.6107                 8.0016
 Frc consts  --      0.9144                 0.7514                 1.3574
 IR Inten    --      1.4333                 7.3689                 1.1728

                     16                     17                     18
                      A                      A                      A
 Frequencies --    604.9933               611.6630               617.7657
 Red. masses --      6.5293                 4.3524                 5.4108
 Frc consts  --      1.4081                 0.9594                 1.2166
 IR Inten    --      1.2462                14.3930                 2.0504

                     19                     20                     21
                      A                      A                      A
 Frequencies --    669.8250               717.1814               737.5393
 Red. masses --      2.5317                 2.6242                 6.2405
 Frc consts  --      0.6692                 0.7953                 2.0001
 IR Inten    --      5.2427                19.6699                30.0767

                     22                     23                     24
                      A                      A                      A
 Frequencies --    767.7224               789.2939               801.1203
 Red. masses --      3.2208                 7.9926                 3.3228
 Frc consts  --      1.1185                 2.9337                 1.2565
 IR Inten    --      3.6708                 9.3449                10.9303

                     25                     26                     27
                      A                      A                      A
 Frequencies --    848.0260               852.7511               924.0805
 Red. masses --      1.9580                11.9176                 2.6190
 Frc consts  --      0.8296                 5.1060                 1.3177
 IR Inten    --     81.1655               524.5267                 1.3571

                     28                     29                     30
                      A                      A                      A
 Frequencies --    926.1047               962.2710               965.8897
 Red. masses --      3.2494                 1.4128                 1.6819
 Frc consts  --      1.6420                 0.7708                 0.9245
 IR Inten    --     10.3912                 0.2313                27.4395

                     31                     32                     33
                      A                      A                      A
 Frequencies --   1016.3775              1021.1198              1057.5762
 Red. masses --      7.6179                 2.6311                 3.1992
 Frc consts  --      4.6365                 1.6164                 2.1082
 IR Inten    --    250.4640                 0.0102               112.6076

                     34                     35                     36
                      A                      A                      A
 Frequencies --   1108.2020              1131.7389              1172.4918
 Red. masses --      1.6333                 1.4225                 2.6363
 Frc consts  --      1.1818                 1.0735                 2.1353
 IR Inten    --      4.8964                 1.0192                 0.0781

                     37                     38                     39
                      A                      A                      A
 Frequencies --   1184.9430              1192.0611              1213.1903
 Red. masses --      2.4510                 2.9587                 1.6702
 Frc consts  --      2.0276                 2.4771                 1.4483
 IR Inten    --     91.1300                 7.1943                13.4995

                     40                     41                     42
                      A                      A                      A
 Frequencies --   1319.9616              1349.2952              1356.7126
 Red. masses --      1.2875                 4.6997                 1.3940
 Frc consts  --      1.3216                 5.0413                 1.5118
 IR Inten    --      0.1675                 5.0212                 3.0329

                     43                     44                     45
                      A                      A                      A
 Frequencies --   1402.5386              1413.1189              1442.1929
 Red. masses --      2.5692                 1.1129                 1.2950
 Frc consts  --      2.9776                 1.3094                 1.5870
 IR Inten    --      7.1302                24.4624                10.2509

                     46                     47                     48
                      A                      A                      A
 Frequencies --   1506.2841              1512.6790              1515.1724
 Red. masses --      2.1921                 1.0420                 1.0495
 Frc consts  --      2.9304                 1.4048                 1.4196
 IR Inten    --      0.0210                 5.4078                 0.9462

                     49                     50                     51
                      A                      A                      A
 Frequencies --   1569.6467              1615.2275              1881.0037
 Red. masses --      6.3272                 5.4506                12.9863
 Frc consts  --      9.1846                 8.3784                27.0716
 IR Inten    --      0.1037                 1.9259               875.1571

                     52                     53                     54
                      A                      A                      A
 Frequencies --   1886.9220              3078.3455              3149.9226
 Red. masses --     13.1828                 1.0341                 1.0922
 Frc consts  --     27.6545                 5.7733                 6.3848
 IR Inten    --     19.6308                 8.3001                 0.4712

                     55                     56                     57
                      A                      A                      A
 Frequencies --   3159.9338              3168.1290              3187.8663
 Red. masses --      1.1051                 1.0975                 1.0867
 Frc consts  --      6.5011                 6.4901                 6.5065
 IR Inten    --     10.6015                16.6343                 1.9078

                     58                     59                     60
                      A                      A                      A
 Frequencies --   3195.0903              3202.9091              3211.0211
 Red. masses --      1.0862                 1.0938                 1.0955
 Frc consts  --      6.5331                 6.6114                 6.6547
 IR Inten    --      0.8745                 4.3870                 4.0426

 - Thermochemistry -
 -------------------
 Temperature   298.150 Kelvin.  Pressure   1.00000 Atm.
 Atom     1 has atomic number  6 and mass  12.00000

 Molecular mass:   192.04226 amu.
 Principal axes and moments of inertia in atomic units:
                           1         2         3
     Eigenvalues --  1619.602212442.771673348.31631
           X            1.00000  -0.00002  -0.00000
           Y            0.00002   0.99980   0.01988
           Z            0.00000  -0.01988   0.99980
 This molecule is an asymmetric top.
 Rotational symmetry number  1.
 Warning -- assumption of classical behavior for rotation
           may cause significant error
 Rotational temperatures (Kelvin)      0.05348     0.03546     0.02587
 Rotational constants (GHZ):           1.11431     0.73881     0.53900
 Zero-point vibrational energy     427411.0 (Joules/Mol)
                                  102.15368 (Kcal/Mol)
 Warning -- explicit consideration of  18 degrees of freedom as
           vibrations may cause significant error
 Vibrational temperatures:     69.75   105.96   212.93   219.12   332.22
          (Kelvin)            334.08   372.62   392.23   479.43   482.03
                              574.36   609.63   674.53   756.71   772.04
                              870.45   880.05   888.83   963.73  1031.86
                             1061.15  1104.58  1135.62  1152.63  1220.12
                             1226.92  1329.55  1332.46  1384.49  1389.70
                             1462.34  1469.16  1521.62  1594.46  1628.32
                             1686.95  1704.87  1715.11  1745.51  1899.13
                             1941.33  1952.01  2017.94  2033.16  2074.99
                             2167.21  2176.41  2180.00  2258.37  2323.95
                             2706.34  2714.86  4429.05  4532.04  4546.44
                             4558.23  4586.63  4597.02  4608.27  4619.94

 Zero-point correction=                           0.162792 (Hartree/Particle)
 Thermal correction to Energy=                    0.174136
 Thermal correction to Enthalpy=                  0.175080
 Thermal correction to Gibbs Free Energy=         0.125441
 Sum of electronic and zero-point Energies=           -686.545628
 Sum of electronic and thermal Energies=              -686.534285
 Sum of electronic and thermal Enthalpies=            -686.533340
 Sum of electronic and thermal Free Energies=         -686.582980

                     E (Thermal)             CV                S
                      KCal/Mol        Cal/Mol-Kelvin    Cal/Mol-Kelvin
 Total                  109.272             44.407            104.475
 Electronic               0.000              0.000              0.000
 Translational            0.889              2.981             41.663
 Rotational               0.889              2.981             30.961
 Vibrational            107.494             38.445             31.851
 Vibration     1          0.595              1.978              4.878
 Vibration     2          0.599              1.966              4.054
 Vibration     3          0.617              1.905              2.698
 Vibration     4          0.619              1.900              2.643
 Vibration     5          0.653              1.794              1.872
 Vibration     6          0.653              1.792              1.862
 Vibration     7          0.668              1.748              1.669
 Vibration     8          0.676              1.724              1.580
 Vibration     9          0.715              1.609              1.244
 Vibration    10          0.716              1.606              1.236
 Vibration    11          0.765              1.472              0.966
 Vibration    12          0.786              1.419              0.879
 Vibration    13          0.826              1.319              0.741
 Vibration    14          0.881              1.193              0.596
 Vibration    15          0.892              1.169              0.573
 Vibration    16          0.964              1.021              0.441
 Vibration    17          0.971              1.007              0.430
 Vibration    18          0.978              0.994              0.420

 Optimization completed.
    -- Stationary point found.

 1\1\GINC-NODE107\Freq\RB3LYP\6-31G(d)\C10H8O4\VSC10255\10-Dec-2020\0\\
 #N Geom=AllCheck Guess=TCheck SCRF=Check GenChk RB3LYP/6-31G(d) Freq\\
 CID_154085418_JID_4846_neutraal\\0,1\C,0.9073086919,-0.0332763828,0.08
 9737726\C,-0.5131852431,0.4566486377,0.2942135953\O,-0.554923312,1.755
 965337,-0.3470347449\C,-1.1620338999,2.9337553424,0.1463005875\O,-0.55
 64394993,3.96432261,0.1086419267\C,-2.5637974119,2.5962732606,0.552880
 094\C,-2.6970724496,1.988565762,1.8063119627\C,-3.1486600924,0.6627417
 005,1.8476519954\C,-3.4377128726,0.0310587079,0.6329259198\C,-3.802718

 Normal termination of Gaussian 16 at Thu Dec 10 10:52:32 2020.

 ----------------------------------------------------------------------
 # B3LYP/6-311++G(d,p) empiricaldispersion=gd3bj scf=xqc pop=npa geom=c
 heck
 ----------------------------------------------------------------------

 ---------------------------------------
 CID_154085418_JID_4846_Energie_neutraal
 ---------------------------------------
 Structure from the checkpoint file:  "JID_4846.chk"
 Charge =  0 Multiplicity = 1

 SCF Done:  E(RB3LYP) =  -686.903078559     A.U. after   16 cycles
 Normal termination of Gaussian 16 at Thu Dec 10 10:56:00 2020.

 ----------------------------------------------------------------------
 # B3LYP/6-311++G(d,p) empiricaldispersion=gd3bj scf=xqc pop=npa geom=c
 heck
 ----------------------------------------------------------------------

 -------------------------------------
 CID_154085418_JID_4846_Energie_kation
 -------------------------------------
 Structure from the checkpoint file:  "JID_4846.chk"
 Charge =  1 Multiplicity = 2

 SCF Done:  E(UB3LYP) =  -686.576137066     A.U. after   22 cycles
 Normal termination of Gaussian 16 at Thu Dec 10 11:02:23 2020.
 Gaussian 16:  ES64L-G16RevA.03 25-Dec-2016

 ------------------------------------
 CID_154085418_JID_4846_Energie_anion
 ------------------------------------
 Structure from the checkpoint file:  "JID_4846.chk"
 Charge = -1 Multiplicity = 2

                         Standard orientation:
 ---------------------------------------------------------------------
 Center     Atomic      Atomic             Coordinates (Angstroms)
 Number     Number       Type             X           Y           Z
 ---------------------------------------------------------------------
      1          6           0       -0.000442    2.913493    0.207533
      2          6           0        0.000053    1.397095    0.194226
      3          8           0       -1.234696    1.030106   -0.470515
      4          6           0       -2.138771    0.010733   -0.092785
      5          8           0       -3.310198    0.249487   -0.061357
      6          6           0       -1.355527   -1.249708    0.112057
      7          6           0       -0.700685   -1.357826    1.343988
      8          6           0        0.700547   -1.357619    1.344111
      9          6           0        1.355646   -1.249483    0.112329
     10          6           0        0.689754   -1.688437   -1.051640
     11          6           0       -0.689337   -1.688539   -1.051770
     12          6           0        2.138895    0.010864   -0.092518
     13          8           0        3.310281    0.249735   -0.061596
     14          8           0        1.234724    1.030581   -0.469887
     15          1           0       -0.895266    3.279705    0.717220
     16          1           0       -0.000326    3.284584   -0.820615
     17          1           0        0.893956    3.280253    0.717593
     18          1           0       -0.000315    0.975335    1.197353
     19          1           0       -1.228135   -1.127974    2.265982
     20          1           0        1.227770   -1.127589    2.266198
     21          1           0        1.225624   -1.743442   -1.994924
     22          1           0       -1.225011   -1.743577   -1.995166
 ---------------------------------------------------------------------

 SCF Done:  E(UB3LYP) =  -686.935201149     A.U. after   28 cycles

 The electronic state is 2-A.
 Alpha  occ. eigenvalues --  -19.02376 -19.02370 -18.99649 -18.99641 -10.17842
 Alpha  occ. eigenvalues --  -10.17770 -10.17763 -10.06248 -10.03503 -10.03450
 Alpha  occ. eigenvalues --  -10.03134 -10.03072 -10.01566 -10.01563  -0.97371
 Alpha  occ. eigenvalues --   -0.95985  -0.91177  -0.88017  -0.72719  -0.65928
 Alpha  occ. eigenvalues --   -0.63204  -0.61236  -0.54821  -0.50082  -0.48463
 Alpha  occ. eigenvalues --   -0.46568  -0.44020  -0.40119  -0.39140  -0.35424
 Alpha  occ. eigenvalues --   -0.34295  -0.33350  -0.32393  -0.31453  -0.30290
 Alpha  occ. eigenvalues --   -0.29652  -0.29575  -0.28819  -0.27934  -0.26786
 Alpha  occ. eigenvalues --   -0.23775  -0.22132  -0.20716  -0.20538  -0.18828
 Alpha  occ. eigenvalues --   -0.18659  -0.16409  -0.13853  -0.12042  -0.08903
 Alpha  occ. eigenvalues --    0.03048
 Alpha virt. eigenvalues --    0.08318   0.08547   0.09915   0.10368   0.11551
 Alpha virt. eigenvalues --    0.11767   0.12285   0.12682   0.13153   0.14261
 Alpha virt. eigenvalues --    0.15028   0.15227   0.16385   0.16404   0.18011

  Beta  occ. eigenvalues --  -19.02296 -19.02290 -18.99636 -18.99628 -10.17847
  Beta  occ. eigenvalues --  -10.17738 -10.17731 -10.06240 -10.03449 -10.03398
  Beta  occ. eigenvalues --  -10.03094 -10.03033 -10.01009 -10.01006  -0.97256
  Beta  occ. eigenvalues --   -0.95904  -0.91104  -0.87876  -0.72091  -0.65851
  Beta  occ. eigenvalues --   -0.62350  -0.60784  -0.54660  -0.49489  -0.48306
  Beta  occ. eigenvalues --   -0.46399  -0.43745  -0.39839  -0.38939  -0.35327
  Beta  occ. eigenvalues --   -0.34180  -0.33086  -0.32115  -0.31301  -0.30095
  Beta  occ. eigenvalues --   -0.29461  -0.29395  -0.28607  -0.27337  -0.26526
  Beta  occ. eigenvalues --   -0.23597  -0.21968  -0.20321  -0.20260  -0.18560
  Beta  occ. eigenvalues --   -0.18404  -0.16193  -0.13456  -0.11304  -0.05885
  Beta virt. eigenvalues --    0.08290   0.08422   0.09448   0.10077   0.11046
  Beta virt. eigenvalues --    0.11503   0.12007   0.12309   0.12656   0.13128
  Beta virt. eigenvalues --    0.14262   0.15154   0.15510   0.16371   0.16447

 Mulliken charges and spin densities:
               1          2
     1  C   -0.568611   0.032867
     2  C   -0.186397  -0.034722
     3  O   -0.047046   0.010256
     4  C   -0.255340  -0.005391
     5  O   -0.258589   0.003458
     6  C    0.152537   0.477453
     7  C   -0.111238  -0.095900
     8  C   -0.110784  -0.095918
     9  C    0.151946   0.477348
    10  C   -0.149570  -0.038302
    11  C   -0.150311  -0.038166
    12  C   -0.255284  -0.005441
    13  O   -0.258459   0.003413
    14  O   -0.047041   0.010255
    15  H    0.138343   0.008790
    16  H    0.165282   0.013325
    17  H    0.138307   0.008788
    18  H    0.287718   0.009940
    19  H    0.078912   0.074928
    20  H    0.078867   0.074933
    21  H    0.103374   0.054062
    22  H    0.103383   0.054024
 Sum of Mulliken charges =  -1.00000   1.00000

 Dipole moment (field-independent basis, Debye):
    X=              0.0021    Y=              3.6899    Z=              0.8016  Tot=              3.7759
 Quadrupole moment (field-independent basis, Debye-Ang):
   XX=           -126.1546   YY=           -101.2375   ZZ=            -86.9906
   XY=             -0.0002   XZ=              0.0000   YZ=              5.1110

 Summary of Natural Population Analysis:

                                       Natural Population
                Natural  -----------------------------------------------
    Atom  No    Charge         Core      Valence    Rydberg      Total
 -----------------------------------------------------------------------
      C    1   -0.28932      0.99963     2.28441    0.00529     3.28932
      C    2    0.21511      0.99952     1.76932    0.01604     2.78489
      O    3   -0.30806      0.99985     3.29832    0.00989     4.30806
      C    4    0.42158      0.99961     1.55155    0.02726     2.57842
      O    5   -0.28431      0.99985     3.27818    0.00628     4.28431
      C    6    0.01188      0.99929     1.97646    0.01237     2.98812
      C    7   -0.10648      0.99950     2.09462    0.01237     3.10648
      C    8   -0.10642      0.99950     2.09456    0.01237     3.10642
      C    9    0.01176      0.99929     1.97658    0.01237     2.98824
      C   10   -0.09009      0.99950     2.08003    0.01055     3.09009
      C   11   -0.09006      0.99950     2.08000    0.01056     3.09006
      C   12    0.42161      0.99961     1.55153    0.02726     2.57839
      O   13   -0.28428      0.99985     3.27814    0.00628     4.28428
      O   14   -0.30803      0.99985     3.29829    0.00989     4.30803
      H   15    0.09938      0.00000     0.39946    0.00116     0.40062
      H   16    0.10509      0.00000     0.39356    0.00134     0.39491
      H   17    0.09937      0.00000     0.39948    0.00116     0.40063
      H   18    0.08702      0.00000     0.41106    0.00192     0.41298
      H   19    0.09840      0.00000     0.40042    0.00118     0.40160
      H   20    0.09839      0.00000     0.40042    0.00118     0.40161
      H   21    0.09873      0.00000     0.39997    0.00129     0.40127
      H   22    0.09873      0.00000     0.39997    0.00129     0.40127
 =======================================================================
   * Total *   -0.00000     13.99434    35.81634    0.18931    50.00000

 Normal termination of Gaussian 16 at Thu Dec 10 11:09:44 2020.
