 Gaussian 16, Revision A.03,

 -----------------------------------------------------------
 # opt freq B3LYP/6-31G(d) empiricaldispersion=gd3bj scf=xqc
 -----------------------------------------------------------

 ------------------------------
 CID_62011326_JID_4116_neutraal
 ------------------------------
 Symbolic Z-matrix:
 Charge =  0 Multiplicity = 1

 SCF Done:  E(RB3LYP) =  -689.028800203     A.U. after   14 cycles
 SCF Done:  E(RB3LYP) =  -689.033183771     A.U. after   12 cycles
 SCF Done:  E(RB3LYP) =  -689.032537681     A.U. after   12 cycles
 SCF Done:  E(RB3LYP) =  -689.034058193     A.U. after   13 cycles
 SCF Done:  E(RB3LYP) =  -689.034737468     A.U. after   12 cycles
 SCF Done:  E(RB3LYP) =  -689.035014766     A.U. after   12 cycles
 SCF Done:  E(RB3LYP) =  -689.035297419     A.U. after   12 cycles
 SCF Done:  E(RB3LYP) =  -689.035461940     A.U. after   12 cycles
 SCF Done:  E(RB3LYP) =  -689.035716046     A.U. after   12 cycles
 SCF Done:  E(RB3LYP) =  -689.035925469     A.U. after   13 cycles
 SCF Done:  E(RB3LYP) =  -689.036237645     A.U. after   10 cycles
 SCF Done:  E(RB3LYP) =  -689.036238194     A.U. after    8 cycles
 SCF Done:  E(RB3LYP) =  -689.036238853     A.U. after    8 cycles
 SCF Done:  E(RB3LYP) =  -689.036239122     A.U. after    8 cycles
 SCF Done:  E(RB3LYP) =  -689.036239346     A.U. after    8 cycles
 SCF Done:  E(RB3LYP) =  -689.036239439     A.U. after    8 cycles
 Optimization completed.
    -- Stationary point found.
 Normal termination of Gaussian 16 at Thu Dec 10 09:26:28 2020.

 --------------------------------------------------------------------
 #N Geom=AllCheck Guess=TCheck SCRF=Check GenChk RB3LYP/6-31G(d) Freq
 --------------------------------------------------------------------

 Structure from the checkpoint file:  "JID_4116.chk"
 ------------------------------
 CID_62011326_JID_4116_neutraal
 ------------------------------
 Charge =  0 Multiplicity = 1

 SCF Done:  E(RB3LYP) =  -689.036239439     A.U. after    1 cycles

  Exact polarizability: 131.355  -2.213 114.950  -2.645  -5.567  99.599
 Approx polarizability: 165.827 -14.244 174.772  -1.566 -14.849 142.731

                      1                      2                      3
                      A                      A                      A
 Frequencies --     19.9458                21.7984                46.1880
 Red. masses --      4.4427                 4.8552                 5.2002
 Frc consts  --      0.0010                 0.0014                 0.0065
 IR Inten    --      1.6832                 2.4978                 0.3437

                      4                      5                      6
                      A                      A                      A
 Frequencies --     63.6144                72.4894               106.1834
 Red. masses --      4.4520                 4.6107                 3.8502
 Frc consts  --      0.0106                 0.0143                 0.0256
 IR Inten    --      3.2173                 1.7543                 0.8579

                      7                      8                      9
                      A                      A                      A
 Frequencies --    131.2463               152.2078               162.7520
 Red. masses --      1.2006                 2.5939                 3.7544
 Frc consts  --      0.0122                 0.0354                 0.0586
 IR Inten    --      1.4967                 1.9783                 0.3846

                     10                     11                     12
                      A                      A                      A
 Frequencies --    205.2573               214.3390               254.0728
 Red. masses --      3.5318                 2.7585                 1.1393
 Frc consts  --      0.0877                 0.0747                 0.0433
 IR Inten    --      3.0137                 1.5427                 0.4602

                     13                     14                     15
                      A                      A                      A
 Frequencies --    280.5745               293.7184               332.0102
 Red. masses --      2.5562                 2.9799                 2.4315
 Frc consts  --      0.1186                 0.1515                 0.1579
 IR Inten    --      9.4626                 8.6000                 0.8977

                     16                     17                     18
                      A                      A                      A
 Frequencies --    357.1114               385.1053               435.2195
 Red. masses --      2.9038                 2.7279                 2.4784
 Frc consts  --      0.2182                 0.2384                 0.2766
 IR Inten    --     11.8829                10.6737                 4.6872

                     19                     20                     21
                      A                      A                      A
 Frequencies --    446.2678               468.9026               503.8056
 Red. masses --      2.6535                 1.6886                 1.5003
 Frc consts  --      0.3114                 0.2188                 0.2244
 IR Inten    --      0.5317                19.9832               105.5871

                     22                     23                     24
                      A                      A                      A
 Frequencies --    533.4562               542.6737               611.0493
 Red. masses --      2.1461                 2.6465                 3.5723
 Frc consts  --      0.3598                 0.4592                 0.7859
 IR Inten    --     66.2130                35.3798                 3.9689

                     25                     26                     27
                      A                      A                      A
 Frequencies --    682.6259               690.8522               762.6773
 Red. masses --      2.1528                 1.9237                 2.0174
 Frc consts  --      0.5910                 0.5409                 0.6914
 IR Inten    --     11.4192                31.4686                 4.5216

                     28                     29                     30
                      A                      A                      A
 Frequencies --    768.4790               797.2703               838.7555
 Red. masses --      2.2192                 2.5093                 2.2046
 Frc consts  --      0.7722                 0.9397                 0.9138
 IR Inten    --      0.0919                 8.7355                12.6777

                     31                     32                     33
                      A                      A                      A
 Frequencies --    879.1989               902.3346               952.6886
 Red. masses --      3.2629                 2.5409                 2.4675
 Frc consts  --      1.4860                 1.2189                 1.3195
 IR Inten    --      7.0650                 2.8775                20.8431

                     34                     35                     36
                      A                      A                      A
 Frequencies --    982.1286              1019.3706              1025.7089
 Red. masses --      2.1675                 2.9820                 2.2512
 Frc consts  --      1.2318                 1.8257                 1.3954
 IR Inten    --      7.8148                 9.5671                11.5377

                     37                     38                     39
                      A                      A                      A
 Frequencies --   1047.9579              1068.5827              1085.5437
 Red. masses --      2.4649                 2.2219                 2.1733
 Frc consts  --      1.5949                 1.4948                 1.5089
 IR Inten    --      7.0263                26.2798                13.1140

                     40                     41                     42
                      A                      A                      A
 Frequencies --   1114.3816              1156.0584              1159.9784
 Red. masses --      2.6842                 1.7602                 1.6279
 Frc consts  --      1.9639                 1.3860                 1.2906
 IR Inten    --     14.6069                29.5955                16.6072

                     43                     44                     45
                      A                      A                      A
 Frequencies --   1176.9929              1186.1829              1199.8077
 Red. masses --      1.6211                 1.2806                 1.5786
 Frc consts  --      1.3232                 1.0616                 1.3389
 IR Inten    --     15.8890                 1.0974                94.7379

                     46                     47                     48
                      A                      A                      A
 Frequencies --   1218.6216              1230.2284              1250.1104
 Red. masses --      1.4483                 1.5813                 1.2851
 Frc consts  --      1.2672                 1.4101                 1.1833
 IR Inten    --      3.6869                62.2547                 4.7541

                     49                     50                     51
                      A                      A                      A
 Frequencies --   1265.8774              1281.0558              1325.7985
 Red. masses --      1.8800                 1.6765                 1.6829
 Frc consts  --      1.7749                 1.6211                 1.7429
 IR Inten    --     75.4959               105.9035                21.3365

                     52                     53                     54
                      A                      A                      A
 Frequencies --   1351.6502              1364.0308              1398.3636
 Red. masses --      1.7432                 1.3705                 1.4785
 Frc consts  --      1.8764                 1.5023                 1.7034
 IR Inten    --     26.3223                71.9801                31.4133

                     55                     56                     57
                      A                      A                      A
 Frequencies --   1404.3938              1414.3455              1421.1336
 Red. masses --      1.4246                 1.3798                 1.4259
 Frc consts  --      1.6555                 1.6262                 1.6967
 IR Inten    --     17.9105                17.7634                21.3201

                     58                     59                     60
                      A                      A                      A
 Frequencies --   1443.4244              1487.1134              1491.7155
 Red. masses --      1.3580                 1.1857                 1.2014
 Frc consts  --      1.6671                 1.5450                 1.5751
 IR Inten    --     17.6197                 1.7493                 6.8003

                     61                     62                     63
                      A                      A                      A
 Frequencies --   1495.2189              1504.8321              1512.4669
 Red. masses --      1.0960                 1.0880                 1.0972
 Frc consts  --      1.4437                 1.4517                 1.4787
 IR Inten    --      7.8547                 3.6957                21.1536

                     64                     65                     66
                      A                      A                      A
 Frequencies --   1512.7989              1523.2719              1524.3267
 Red. masses --      1.0593                 1.0601                 1.0498
 Frc consts  --      1.4284                 1.4493                 1.4372
 IR Inten    --      3.2266                 6.2021                10.7902

                     67                     68                     69
                      A                      A                      A
 Frequencies --   1527.3505              1541.0164              1544.5043
 Red. masses --      1.0645                 1.0640                 1.0851
 Frc consts  --      1.4630                 1.4887                 1.5251
 IR Inten    --      2.1244                 4.2853                 9.5991

                     70                     71                     72
                      A                      A                      A
 Frequencies --   1639.4527              1811.8505              1824.9304
 Red. masses --      1.2414                 8.9999                10.7810
 Frc consts  --      1.9660                17.4074                21.1545
 IR Inten    --    131.1627               363.4771               172.6398

                     73                     74                     75
                      A                      A                      A
 Frequencies --   2957.5486              2971.8691              3031.3305
 Red. masses --      1.0718                 1.0583                 1.0654
 Frc consts  --      5.5238                 5.5071                 5.7682
 IR Inten    --     43.7275                95.0168                37.3136

                     76                     77                     78
                      A                      A                      A
 Frequencies --   3059.1288              3067.4389              3074.5548
 Red. masses --      1.0689                 1.0678                 1.0707
 Frc consts  --      5.8936                 5.9199                 5.9630
 IR Inten    --      8.2238                15.8356                 4.7787

                     79                     80                     81
                      A                      A                      A
 Frequencies --   3077.8191              3082.1254              3087.7442
 Red. masses --      1.0296                 1.0829                 1.0802
 Frc consts  --      5.7468                 6.0609                 6.0679
 IR Inten    --     30.0980                15.7771                22.5631

                     82                     83                     84
                      A                      A                      A
 Frequencies --   3090.8056              3109.6241              3131.6353
 Red. masses --      1.0870                 1.1032                 1.1039
 Frc consts  --      6.1184                 6.2852                 6.3787
 IR Inten    --     53.3792                16.3213                22.9858

                     85                     86                     87
                      A                      A                      A
 Frequencies --   3136.2081              3152.7554              3165.6335
 Red. masses --      1.1021                 1.1075                 1.0902
 Frc consts  --      6.3867                 6.4859                 6.4366
 IR Inten    --     23.8816                20.6323                10.8894

                     88                     89                     90
                      A                      A                      A
 Frequencies --   3186.4133              3461.6355              3657.1589
 Red. masses --      1.1073                 1.0552                 1.0951
 Frc consts  --      6.6237                 7.4497                 8.6296
 IR Inten    --     15.3252               188.5045                69.8456

 - Thermochemistry -
 -------------------
 Temperature   298.150 Kelvin.  Pressure   1.00000 Atm.
 Atom     1 has atomic number  6 and mass  12.00000

 Molecular mass:   202.13174 amu.
 Principal axes and moments of inertia in atomic units:
                           1         2         3
     Eigenvalues --  1636.316665459.562985939.88597
           X            0.99976   0.02154  -0.00432
           Y           -0.02147   0.99964   0.01639
           Z            0.00468  -0.01630   0.99986
 This molecule is an asymmetric top.
 Rotational symmetry number  1.
 Warning -- assumption of classical behavior for rotation
           may cause significant error
 Rotational temperatures (Kelvin)      0.05293     0.01586     0.01458
 Rotational constants (GHZ):           1.10293     0.33057     0.30383
 Zero-point vibrational energy     735397.6 (Joules/Mol)
                                  175.76424 (Kcal/Mol)
 Warning -- explicit consideration of  24 degrees of freedom as
           vibrations may cause significant error
 Vibrational temperatures:     28.70    31.36    66.45    91.53   104.30
          (Kelvin)            152.77   188.83   218.99   234.16   295.32
                              308.39   365.55   403.68   422.60   477.69
                              513.80   554.08   626.18   642.08   674.65
                              724.86   767.52   780.79   879.16   982.15
                              993.98  1097.32  1105.67  1147.09  1206.78
                             1264.97  1298.26  1370.71  1413.06  1466.65
                             1475.77  1507.78  1537.45  1561.86  1603.35
                             1663.31  1668.95  1693.43  1706.65  1726.26
                             1753.32  1770.02  1798.63  1821.32  1843.15
                             1907.53  1944.72  1962.54  2011.93  2020.61
                             2034.93  2044.69  2076.77  2139.62  2146.25
                             2151.29  2165.12  2176.10  2176.58  2191.65
                             2193.17  2197.52  2217.18  2222.20  2358.81
                             2606.85  2625.67  4255.25  4275.86  4361.41
                             4401.40  4413.36  4423.60  4428.30  4434.49
                             4442.58  4446.98  4474.06  4505.72  4512.30
                             4536.11  4554.64  4584.54  4980.52  5261.84

 Zero-point correction=                           0.280098 (Hartree/Particle)
 Thermal correction to Energy=                    0.296104
 Thermal correction to Enthalpy=                  0.297048
 Thermal correction to Gibbs Free Energy=         0.234324
 Sum of electronic and zero-point Energies=           -688.756141
 Sum of electronic and thermal Energies=              -688.740136
 Sum of electronic and thermal Enthalpies=            -688.739191
 Sum of electronic and thermal Free Energies=         -688.801915

                     E (Thermal)             CV                S
                      KCal/Mol        Cal/Mol-Kelvin    Cal/Mol-Kelvin
 Total                  185.808             57.519            132.013
 Electronic               0.000              0.000              0.000
 Translational            0.889              2.981             41.816
 Rotational               0.889              2.981             32.340
 Vibrational            184.031             51.557             57.858
 Vibration     1          0.593              1.986              6.640
 Vibration     2          0.593              1.985              6.463
 Vibration     3          0.595              1.979              4.974
 Vibration     4          0.597              1.972              4.342
 Vibration     5          0.599              1.967              4.085
 Vibration     6          0.605              1.944              3.338
 Vibration     7          0.612              1.922              2.928
 Vibration     8          0.619              1.900              2.644
 Vibration     9          0.623              1.888              2.518
 Vibration    10          0.640              1.832              2.085
 Vibration    11          0.644              1.819              2.006
 Vibration    12          0.665              1.756              1.702
 Vibration    13          0.680              1.710              1.530
 Vibration    14          0.689              1.685              1.452
 Vibration    15          0.714              1.612              1.250
 Vibration    16          0.732              1.561              1.135
 Vibration    17          0.754              1.502              1.019
 Vibration    18          0.796              1.393              0.842
 Vibration    19          0.806              1.369              0.807
 Vibration    20          0.826              1.319              0.741
 Vibration    21          0.859              1.242              0.649
 Vibration    22          0.888              1.176              0.580
 Vibration    23          0.898              1.156              0.560
 Vibration    24          0.970              1.008              0.431

                           ! Non-Optimized Parameters !
 Normal termination of Gaussian 16 at Thu Dec 10 09:35:34 2020.

 ----------------------------------------------------------------------
 # B3LYP/6-311++G(d,p) empiricaldispersion=gd3bj scf=xqc pop=npa geom=c
 heck
 ----------------------------------------------------------------------

 --------------------------------------
 CID_62011326_JID_4116_Energie_neutraal
 --------------------------------------
 Structure from the checkpoint file:  "JID_4116.chk"
 Charge =  0 Multiplicity = 1

 SCF Done:  E(RB3LYP) =  -689.249227150     A.U. after   14 cycles
 Normal termination of Gaussian 16 at Thu Dec 10 09:39:10 2020.

 ----------------------------------------------------------------------
 # B3LYP/6-311++G(d,p) empiricaldispersion=gd3bj scf=xqc pop=npa geom=c
 heck
 ----------------------------------------------------------------------

 ------------------------------------
 CID_62011326_JID_4116_Energie_kation
 ------------------------------------
 Structure from the checkpoint file:  "JID_4116.chk"
 Charge =  1 Multiplicity = 2

 SCF Done:  E(UB3LYP) =  -688.936763589     A.U. after   28 cycles
 Normal termination of Gaussian 16 at Thu Dec 10 09:48:13 2020.
 Gaussian 16:  ES64L-G16RevA.03 25-Dec-2016

 ----------------------------------------------------------------------
 # B3LYP/6-311++G(d,p) empiricaldispersion=gd3bj scf=xqc pop=npa geom=c
 heck
 ----------------------------------------------------------------------

 -----------------------------------
 CID_62011326_JID_4116_Energie_anion
 -----------------------------------
 Structure from the checkpoint file:  "JID_4116.chk"
 Charge = -1 Multiplicity = 2

                         Standard orientation:
 ---------------------------------------------------------------------
 Center     Atomic      Atomic             Coordinates (Angstroms)
 Number     Number       Type             X           Y           Z
 ---------------------------------------------------------------------
      1          6           0        1.429332    2.045425    1.509175
      2          7           0        0.989839    1.160803    0.429180
      3          6           0       -0.270391    1.650382   -0.142706
      4          6           0       -0.714066    1.007496   -1.465768
      5          6           0       -1.475581   -0.325742   -1.367379
      6          6           0       -2.702091   -0.198748   -0.488812
      7          8           0       -3.494947    0.717739   -0.526735
      8          8           0       -2.807832   -1.240408    0.366824
      9          6           0       -3.953630   -1.204550    1.234463
     10          6           0        0.957892   -0.250363    0.870021
     11          6           0        1.670305   -1.215912   -0.095495
     12          6           0        3.176751   -0.975044   -0.204312
     13          8           0        4.004923   -1.833514    0.066095
     14          7           0        3.500020    0.271295   -0.665992
     15          1           0        1.514733    3.070314    1.133588
     16          1           0        2.415284    1.727856    1.861278
     17          1           0        0.737582    2.053718    2.370678
     18          1           0       -1.093448    1.583818    0.593032
     19          1           0       -0.122108    2.718284   -0.335514
     20          1           0       -1.385953    1.720526   -1.954592
     21          1           0        0.157558    0.885421   -2.118703
     22          1           0       -1.825017   -0.603635   -2.370178
     23          1           0       -0.859273   -1.149692   -1.008830
     24          1           0       -3.934078   -0.304700    1.854599
     25          1           0       -4.876568   -1.211014    0.649147
     26          1           0       -3.881752   -2.100384    1.851088
     27          1           0        1.451337   -0.323763    1.845178
     28          1           0       -0.077831   -0.582052    1.029033
     29          1           0        1.536728   -2.243231    0.253184
     30          1           0        1.233626   -1.137210   -1.096914
     31          1           0        2.776685    0.986772   -0.613678
     32          1           0        4.475209    0.536087   -0.629297
 ---------------------------------------------------------------------

 SCF Done:  E(UB3LYP) =  -689.238992682     A.U. after   32 cycles

 The electronic state is 2-A.
 Alpha  occ. eigenvalues --  -19.08122 -19.02153 -18.99632 -14.22935 -14.22447
 Alpha  occ. eigenvalues --  -10.21015 -10.17923 -10.13102 -10.11294 -10.10379
 Alpha  occ. eigenvalues --  -10.09728 -10.09435 -10.08703 -10.08562  -1.01913
 Alpha  occ. eigenvalues --   -0.94374  -0.93135  -0.84073  -0.80589  -0.71293
 Alpha  occ. eigenvalues --   -0.68427  -0.65069  -0.60976  -0.58533  -0.54147
 Alpha  occ. eigenvalues --   -0.50213  -0.48173  -0.46992  -0.44008  -0.41949
 Alpha  occ. eigenvalues --   -0.41069  -0.39540  -0.39135  -0.38360  -0.37011
 Alpha  occ. eigenvalues --   -0.36639  -0.34941  -0.34544  -0.33420  -0.32179
 Alpha  occ. eigenvalues --   -0.31719  -0.30925  -0.29274  -0.29063  -0.28484
 Alpha  occ. eigenvalues --   -0.27427  -0.26523  -0.26018  -0.25012  -0.24631
 Alpha  occ. eigenvalues --   -0.22118  -0.19190  -0.18243  -0.16341  -0.14096
 Alpha  occ. eigenvalues --    0.04000
 Alpha virt. eigenvalues --    0.05801   0.06407   0.07626   0.08110   0.08735
 Alpha virt. eigenvalues --    0.08771   0.09321   0.09931   0.10360   0.10432
 Alpha virt. eigenvalues --    0.10986   0.11723   0.12080   0.12571   0.12915

  Beta  occ. eigenvalues --  -19.08113 -19.02137 -18.99622 -14.22918 -14.22433
  Beta  occ. eigenvalues --  -10.20998 -10.17919 -10.13054 -10.11279 -10.10357
  Beta  occ. eigenvalues --  -10.09688 -10.09423 -10.08694 -10.08545  -1.01886
  Beta  occ. eigenvalues --   -0.94359  -0.93107  -0.84046  -0.80560  -0.71255
  Beta  occ. eigenvalues --   -0.68401  -0.65014  -0.60915  -0.58476  -0.54087
  Beta  occ. eigenvalues --   -0.50146  -0.48133  -0.46944  -0.43986  -0.41917
  Beta  occ. eigenvalues --   -0.41005  -0.39499  -0.39092  -0.38324  -0.36974
  Beta  occ. eigenvalues --   -0.36601  -0.34892  -0.34509  -0.33390  -0.32142
  Beta  occ. eigenvalues --   -0.31688  -0.30891  -0.29217  -0.29043  -0.28448
  Beta  occ. eigenvalues --   -0.27392  -0.26488  -0.25981  -0.24967  -0.24598
  Beta  occ. eigenvalues --   -0.22069  -0.19170  -0.18216  -0.16320  -0.14021
  Beta virt. eigenvalues --    0.06221   0.06870   0.07082   0.08119   0.08514
  Beta virt. eigenvalues --    0.08999   0.09300   0.09927   0.10175   0.10684
  Beta virt. eigenvalues --    0.10864   0.11069   0.11977   0.12549   0.12781

 Mulliken charges and spin densities:
               1          2
     1  C    0.920436  -1.294008
     2  N   -0.206918   0.194500
     3  C   -0.073130  -0.113035
     4  C    0.229234  -0.880109
     5  C    0.040234  -0.005414
     6  C   -0.488794   0.051122
     7  O   -0.238324   0.035491
     8  O   -0.068768   0.075849
     9  C    0.977442  -1.197454
    10  C   -0.137405  -0.103884
    11  C    0.107353  -0.441213
    12  C    0.046070  -0.028328
    13  O   -0.361799   0.007333
    14  N   -0.381864   0.005333
    15  H   -0.507014   0.654897
    16  H   -0.100633   0.249515
    17  H   -0.260345   0.403625
    18  H    0.220449  -0.048732
    19  H   -0.236120   0.398658
    20  H    0.024666   0.183619
    21  H   -0.042848   0.206476
    22  H   -0.307995   0.513969
    23  H    0.093431   0.103940
    24  H   -0.315463   0.496276
    25  H   -0.229297   0.395637
    26  H   -0.409458   0.562015
    27  H    0.127439   0.043824
    28  H    0.078569   0.112413
    29  H    0.147171   0.049646
    30  H    0.077907   0.049371
    31  H    0.219528   0.091634
    32  H    0.056244   0.227034
 Sum of Mulliken charges =  -1.00000   1.00000

 Dipole moment (field-independent basis, Debye):
    X=              0.7433    Y=             -1.1476    Z=             -1.6981  Tot=              2.1801
 Quadrupole moment (field-independent basis, Debye-Ang):
   XX=           -171.8288   YY=           -137.8116   ZZ=           -124.0707
   XY=              1.7810   XZ=              3.2217   YZ=              1.1050

 Summary of Natural Population Analysis:

                                       Natural Population
                Natural  -----------------------------------------------
    Atom  No    Charge         Core      Valence    Rydberg      Total
 -----------------------------------------------------------------------
      C    1   -0.17550      0.99964     2.16713    0.00873     3.17550
      N    2   -0.30041      0.99973     2.78517    0.01551     3.80041
      C    3   -0.08093      0.99959     2.06972    0.01161     3.08093
      C    4   -0.19583      0.99962     2.18707    0.00914     3.19583
      C    5   -0.23806      0.99957     2.23014    0.00835     3.23806
      C    6    0.41257      0.99968     1.56317    0.02458     2.58743
      O    7   -0.30699      0.99987     3.30126    0.00586     4.30699
      O    8   -0.27799      0.99986     3.26939    0.00874     4.27799
      C    9   -0.10603      0.99959     2.09706    0.00938     3.10603
      C   10   -0.08721      0.99960     2.07660    0.01102     3.08721
      C   11   -0.23705      0.99957     2.23005    0.00743     3.23705
      C   12    0.34050      0.99971     1.63726    0.02253     2.65950
      O   13   -0.32485      0.99987     3.31912    0.00585     4.32485
      N   14   -0.41222      0.99970     2.90438    0.00815     3.91222
      H   15    0.09949      0.00000     0.39843    0.00207     0.40051
      H   16    0.09620      0.00000     0.40246    0.00133     0.40380
      H   17    0.08576      0.00000     0.41289    0.00135     0.41424
      H   18    0.08560      0.00000     0.41286    0.00155     0.41440
      H   19    0.10117      0.00000     0.39722    0.00161     0.39883
      H   20    0.10810      0.00000     0.39070    0.00120     0.39190
      H   21    0.10242      0.00000     0.39602    0.00156     0.39758
      H   22    0.11583      0.00000     0.38284    0.00134     0.38417
      H   23    0.10679      0.00000     0.39121    0.00200     0.39321
      H   24    0.09448      0.00000     0.40392    0.00159     0.40552
      H   25    0.09134      0.00000     0.40739    0.00127     0.40866
      H   26    0.09391      0.00000     0.40450    0.00159     0.40609
      H   27    0.09726      0.00000     0.40118    0.00156     0.40274
      H   28    0.09795      0.00000     0.40018    0.00187     0.40205
      H   29    0.11060      0.00000     0.38844    0.00095     0.38940
      H   30    0.10593      0.00000     0.39232    0.00175     0.39407
      H   31    0.20666      0.00000     0.29008    0.00325     0.29334
      H   32    0.19051      0.00000     0.30758    0.00191     0.30949
 =======================================================================
   * Total *   -0.00000     13.99560    40.81775    0.18665    55.00000

 Normal termination of Gaussian 16 at Thu Dec 10 09:58:41 2020.
