 Gaussian 16, Revision A.03,

 -----------------------------------------------------------
 # opt freq B3LYP/6-31G(d) empiricaldispersion=gd3bj scf=xqc
 -----------------------------------------------------------

 -------------------------------
 CID_146782028_JID_1991_neutraal
 -------------------------------
 Symbolic Z-matrix:
 Charge =  0 Multiplicity = 1

 SCF Done:  E(RB3LYP) =  -428.731352934     A.U. after   13 cycles
 SCF Done:  E(RB3LYP) =  -428.747351164     A.U. after   11 cycles
 SCF Done:  E(RB3LYP) =  -428.749914314     A.U. after   11 cycles
 SCF Done:  E(RB3LYP) =  -428.750467655     A.U. after   10 cycles
 SCF Done:  E(RB3LYP) =  -428.750561897     A.U. after    9 cycles
 SCF Done:  E(RB3LYP) =  -428.750577422     A.U. after    8 cycles
 SCF Done:  E(RB3LYP) =  -428.750579490     A.U. after    7 cycles
 SCF Done:  E(RB3LYP) =  -428.750579919     A.U. after    6 cycles
 Optimization completed.
    -- Stationary point found.
 Normal termination of Gaussian 16 at Tue Dec  8 21:46:45 2020.

 --------------------------------------------------------------------
 #N Geom=AllCheck Guess=TCheck SCRF=Check GenChk RB3LYP/6-31G(d) Freq
 --------------------------------------------------------------------

 Structure from the checkpoint file:  "JID_1991.chk"
 -------------------------------
 CID_146782028_JID_1991_neutraal
 -------------------------------
 Charge =  0 Multiplicity = 1

 SCF Done:  E(RB3LYP) =  -428.750579919     A.U. after    1 cycles

  Exact polarizability: 115.020   0.253 101.434   0.846   0.636  92.405
 Approx polarizability: 153.621  -0.150 150.712   2.611   0.293 145.443

                      1                      2                      3
                      A                      A                      A
 Frequencies --    206.3070               224.9390               301.5319
 Red. masses --      2.7725                 2.7475                 1.8438
 Frc consts  --      0.0695                 0.0819                 0.0988
 IR Inten    --      0.1720                 0.1324                 0.3290

                      4                      5                      6
                      A                      A                      A
 Frequencies --    333.1071               402.2226               419.1512
 Red. masses --      2.1163                 2.3997                 2.2078
 Frc consts  --      0.1384                 0.2287                 0.2285
 IR Inten    --      0.5494                 0.0145                 0.1991

                      7                      8                      9
                      A                      A                      A
 Frequencies --    496.5821               504.5814               513.6210
 Red. masses --      2.7135                 3.8296                 3.5114
 Frc consts  --      0.3942                 0.5745                 0.5458
 IR Inten    --      1.1273                 0.6224                 0.7741

                     10                     11                     12
                      A                      A                      A
 Frequencies --    549.7357               628.3106               697.0673
 Red. masses --      2.8883                 3.3347                 2.6002
 Frc consts  --      0.5143                 0.7756                 0.7444
 IR Inten    --      0.5128                 1.9021                 0.2342

                     13                     14                     15
                      A                      A                      A
 Frequencies --    705.5281               757.1029               775.8564
 Red. masses --      3.0440                 2.8891                 2.3900
 Frc consts  --      0.8927                 0.9757                 0.8476
 IR Inten    --      1.5280                 1.9628                 1.3750

                     16                     17                     18
                      A                      A                      A
 Frequencies --    788.6740               845.9473               854.3389
 Red. masses --      1.9931                 2.0536                 2.7812
 Frc consts  --      0.7304                 0.8659                 1.1960
 IR Inten    --      5.1019                 0.1366                 0.0518

                     19                     20                     21
                      A                      A                      A
 Frequencies --    869.7132               892.9123               910.0137
 Red. masses --      2.2209                 1.9829                 2.2322
 Frc consts  --      0.9898                 0.9315                 1.0891
 IR Inten    --      2.3839                 0.8696                 2.1326

                     22                     23                     24
                      A                      A                      A
 Frequencies --    922.8820               948.7300               968.8538
 Red. masses --      2.1809                 2.0238                 2.2212
 Frc consts  --      1.0944                 1.0733                 1.2284
 IR Inten    --      0.6406                 0.0553                 1.2742

                     25                     26                     27
                      A                      A                      A
 Frequencies --    984.1442               998.1594              1012.6349
 Red. masses --      2.3313                 1.8543                 2.0170
 Frc consts  --      1.3304                 1.0885                 1.2186
 IR Inten    --      0.2435                 3.1710                 2.5052

                     28                     29                     30
                      A                      A                      A
 Frequencies --   1033.6218              1059.5800              1072.2607
 Red. masses --      1.4181                 1.4367                 1.5764
 Frc consts  --      0.8927                 0.9504                 1.0678
 IR Inten    --      0.6143                 1.1166                 0.7109

                     31                     32                     33
                      A                      A                      A
 Frequencies --   1087.1887              1096.1725              1112.2671
 Red. masses --      1.3902                 1.4929                 1.7085
 Frc consts  --      0.9681                 1.0569                 1.2453
 IR Inten    --      4.8744                 0.2180                 1.8991

                     34                     35                     36
                      A                      A                      A
 Frequencies --   1122.1195              1150.1247              1171.0866
 Red. masses --      1.6293                 1.1745                 1.6583
 Frc consts  --      1.2088                 0.9154                 1.3400
 IR Inten    --      0.1013                 0.1007                 3.3940

                     37                     38                     39
                      A                      A                      A
 Frequencies --   1180.4349              1196.6438              1206.1234
 Red. masses --      1.5526                 1.5978                 1.5917
 Frc consts  --      1.2747                 1.3480                 1.3643
 IR Inten    --      1.1438                 1.0148                 0.4595

                     40                     41                     42
                      A                      A                      A
 Frequencies --   1220.4838              1245.3865              1262.9900
 Red. masses --      1.5126                 1.3228                 1.8112
 Frc consts  --      1.3275                 1.2088                 1.7022
 IR Inten    --      1.8102                 1.8249                 0.3124

                     43                     44                     45
                      A                      A                      A
 Frequencies --   1284.8332              1303.2828              1325.6363
 Red. masses --      1.3868                 1.3882                 1.4953
 Frc consts  --      1.3488                 1.3893                 1.5482
 IR Inten    --      0.2398                 0.0587                 1.0602

                     46                     47                     48
                      A                      A                      A
 Frequencies --   1330.8529              1337.0256              1344.8577
 Red. masses --      1.5057                 1.3986                 1.9009
 Frc consts  --      1.5713                 1.4731                 2.0256
 IR Inten    --      0.0696                 1.6548                 0.1476

                     49                     50                     51
                      A                      A                      A
 Frequencies --   1348.1432              1358.2087              1377.4806
 Red. masses --      1.5454                 1.3625                 1.4068
 Frc consts  --      1.6549                 1.4809                 1.5727
 IR Inten    --      0.9625                 3.2053                 1.8785

                     52                     53                     54
                      A                      A                      A
 Frequencies --   1396.1523              1446.2559              1509.5786
 Red. masses --      1.5715                 1.1868                 1.0858
 Frc consts  --      1.8048                 1.4625                 1.4579
 IR Inten    --      1.4071                 1.9797                 1.2186

                     55                     56                     57
                      A                      A                      A
 Frequencies --   1515.2644              1521.8804              1528.5742
 Red. masses --      1.1742                 1.1014                 1.0951
 Frc consts  --      1.5885                 1.5030                 1.5075
 IR Inten    --      1.3357                 4.4962                 3.8337

                     58                     59                     60
                      A                      A                      A
 Frequencies --   1545.7085              1679.5957              3033.7604
 Red. masses --      1.0956                 1.0558                 1.0617
 Frc consts  --      1.5422                 1.7549                 5.7573
 IR Inten    --      1.2255                 1.1772                32.8522

                     61                     62                     63
                      A                      A                      A
 Frequencies --   3047.9512              3051.0890              3058.3248
 Red. masses --      1.0619                 1.0668                 1.0643
 Frc consts  --      5.8121                 5.8513                 5.8649
 IR Inten    --     33.6022                12.6879                32.5038

                     64                     65                     66
                      A                      A                      A
 Frequencies --   3066.4406              3074.7051              3080.7187
 Red. masses --      1.0826                 1.0945                 1.0896
 Frc consts  --      5.9980                 6.0963                 6.0926
 IR Inten    --     36.1987                42.3272                72.1781

                     67                     68                     69
                      A                      A                      A
 Frequencies --   3085.2776              3093.4579              3095.4359
 Red. masses --      1.0922                 1.1003                 1.1012
 Frc consts  --      6.1252                 6.2038                 6.2167
 IR Inten    --     33.0824                38.7002                79.2743

                     70                     71                     72
                      A                      A                      A
 Frequencies --   3104.6231              3124.3696              3136.4654
 Red. masses --      1.1036                 1.0553                 1.0811
 Frc consts  --      6.2673                 6.0694                 6.2660
 IR Inten    --     28.4087                18.3881                29.0728

                     73                     74                     75
                      A                      A                      A
 Frequencies --   3169.4958              3179.8756              3202.8285
 Red. masses --      1.0898                 1.0955                 1.1120
 Frc consts  --      6.4504                 6.5264                 6.7207
 IR Inten    --     19.8565                19.8803                38.6694

 - Thermochemistry -
 -------------------
 Temperature   298.150 Kelvin.  Pressure   1.00000 Atm.
 Atom     1 has atomic number  6 and mass  12.00000

 Molecular mass:   148.12520 amu.
 Principal axes and moments of inertia in atomic units:
                           1         2         3
     Eigenvalues --   930.585331551.863261840.88261
           X            0.99998  -0.00539   0.00128
           Y            0.00538   0.99990   0.01327
           Z           -0.00135  -0.01327   0.99991
 This molecule is an asymmetric top.
 Rotational symmetry number  1.
 Warning -- assumption of classical behavior for rotation
           may cause significant error
 Rotational temperatures (Kelvin)      0.09307     0.05581     0.04705
 Rotational constants (GHZ):           1.93936     1.16295     0.98037
 Zero-point vibrational energy     654879.4 (Joules/Mol)
                                  156.51993 (Kcal/Mol)
 Warning -- explicit consideration of  10 degrees of freedom as
           vibrations may cause significant error
 Vibrational temperatures:    296.83   323.64   433.84   479.27   578.71
          (Kelvin)            603.07   714.47   725.98   738.99   790.95
                              904.00  1002.92  1015.10  1089.30  1116.28
                             1134.73  1217.13  1229.20  1251.32  1284.70
                             1309.31  1327.82  1365.01  1393.96  1415.96
                             1436.13  1456.96  1487.15  1524.50  1542.74
                             1564.22  1577.15  1600.30  1614.48  1654.77
                             1684.93  1698.38  1721.70  1735.34  1756.00
                             1791.83  1817.16  1848.59  1875.13  1907.29
                             1914.80  1923.68  1934.95  1939.68  1954.16
                             1981.89  2008.75  2080.84  2171.95  2180.13
                             2189.65  2199.28  2223.93  2416.56  4364.90
                             4385.32  4389.84  4400.25  4411.92  4423.81
                             4432.47  4439.03  4450.80  4453.64  4466.86
                             4495.27  4512.67  4560.20  4575.13  4608.16

 Zero-point correction=                           0.249430 (Hartree/Particle)
 Thermal correction to Energy=                    0.257206
 Thermal correction to Enthalpy=                  0.258150
 Thermal correction to Gibbs Free Energy=         0.217550
 Sum of electronic and zero-point Energies=           -428.501150
 Sum of electronic and thermal Energies=              -428.493374
 Sum of electronic and thermal Enthalpies=            -428.492430
 Sum of electronic and thermal Free Energies=         -428.533030

                     E (Thermal)             CV                S
                      KCal/Mol        Cal/Mol-Kelvin    Cal/Mol-Kelvin
 Total                  161.399             35.948             85.449
 Electronic               0.000              0.000              0.000
 Translational            0.889              2.981             40.889
 Rotational               0.889              2.981             29.365
 Vibrational            159.622             29.986             15.195
 Vibration     1          0.641              1.831              2.076
 Vibration     2          0.650              1.803              1.919
 Vibration     3          0.694              1.671              1.408
 Vibration     4          0.715              1.609              1.245
 Vibration     5          0.768              1.465              0.955
 Vibration     6          0.782              1.429              0.895
 Vibration     7          0.852              1.258              0.667
 Vibration     8          0.860              1.240              0.647
 Vibration     9          0.869              1.220              0.625
 Vibration    10          0.905              1.140              0.545

 Optimization completed.
    -- Stationary point found.
 Normal termination of Gaussian 16 at Tue Dec  8 21:53:34 2020.

 ----------------------------------------------------------------------
 # B3LYP/6-311++G(d,p) empiricaldispersion=gd3bj scf=xqc pop=npa geom=c
 heck
 ----------------------------------------------------------------------

 ---------------------------------------
 CID_146782028_JID_1991_Energie_neutraal
 ---------------------------------------
 Structure from the checkpoint file:  "JID_1991.chk"
 Charge =  0 Multiplicity = 1

 SCF Done:  E(RB3LYP) =  -428.859182111     A.U. after   13 cycles
 Normal termination of Gaussian 16 at Tue Dec  8 21:55:52 2020.

 ----------------------------------------------------------------------
 # B3LYP/6-311++G(d,p) empiricaldispersion=gd3bj scf=xqc pop=npa geom=c
 heck
 ----------------------------------------------------------------------

 -------------------------------------
 CID_146782028_JID_1991_Energie_kation
 -------------------------------------
 Structure from the checkpoint file:  "JID_1991.chk"
 Charge =  1 Multiplicity = 2

 SCF Done:  E(UB3LYP) =  -428.530842769     A.U. after   26 cycles
 Normal termination of Gaussian 16 at Tue Dec  8 22:01:18 2020.
 Gaussian 16:  ES64L-G16RevA.03 25-Dec-2016

 ----------------------------------------------------------------------
 # B3LYP/6-311++G(d,p) empiricaldispersion=gd3bj scf=xqc pop=npa geom=c
 heck
 ----------------------------------------------------------------------

 ------------------------------------
 CID_146782028_JID_1991_Energie_anion
 ------------------------------------
 Structure from the checkpoint file:  "JID_1991.chk"
 Charge = -1 Multiplicity = 2

                         Standard orientation:
 ---------------------------------------------------------------------
 Center     Atomic      Atomic             Coordinates (Angstroms)
 Number     Number       Type             X           Y           Z
 ---------------------------------------------------------------------
      1          6           0       -1.848399    0.993774    0.746747
      2          6           0       -0.931043    1.834100   -0.223721
      3          6           0        0.249689    0.871855   -0.341907
      4          6           0       -0.150355   -0.423680   -1.118646
      5          6           0       -1.625058   -0.769733   -0.975899
      6          6           0       -1.730447   -0.567402    0.538211
      7          6           0       -0.431975   -1.348442    1.040746
      8          6           0        0.611778   -1.349022   -0.161233
      9          6           0        2.001125   -0.622713   -0.126333
     10          6           0        1.774982    0.864018   -0.472458
     11          6           0        2.453426    0.465411    0.820575
     12          1           0       -2.903356    1.268529    0.623977
     13          1           0       -1.571049    1.244078    1.779779
     14          1           0       -1.423558    2.050853   -1.178702
     15          1           0       -0.673311    2.791704    0.240506
     16          1           0        0.243156    0.578562    0.701007
     17          1           0        0.230971   -0.405409   -2.145744
     18          1           0       -1.817972   -1.804661   -1.285590
     19          1           0       -2.297407   -0.117620   -1.544268
     20          1           0       -2.614715   -1.028842    0.989268
     21          1           0       -0.728644   -2.381636    1.256147
     22          1           0       -0.025435   -0.944001    1.974529
     23          1           0        0.756739   -2.372593   -0.523706
     24          1           0        2.799489   -1.163532   -0.627506
     25          1           0        2.324337    1.353415   -1.272166
     26          1           0        1.928207    0.640359    1.757746
     27          1           0        3.530203    0.601801    0.898222
 ---------------------------------------------------------------------

 SCF Done:  E(UB3LYP) =  -428.839739737     A.U. after   32 cycles

 The electronic state is 2-A.
 Alpha  occ. eigenvalues --  -10.07041 -10.07011 -10.06837 -10.06805 -10.06804
 Alpha  occ. eigenvalues --  -10.06517 -10.06370 -10.06161 -10.05848 -10.05641
 Alpha  occ. eigenvalues --  -10.05034  -0.79275  -0.73169  -0.66368  -0.62916
 Alpha  occ. eigenvalues --   -0.59551  -0.55068  -0.52160  -0.48200  -0.45707
 Alpha  occ. eigenvalues --   -0.43446  -0.42101  -0.39162  -0.38516  -0.36753
 Alpha  occ. eigenvalues --   -0.33297  -0.32305  -0.29974  -0.27942  -0.27868
 Alpha  occ. eigenvalues --   -0.27060  -0.25639  -0.24271  -0.23123  -0.21818
 Alpha  occ. eigenvalues --   -0.21116  -0.20535  -0.19651  -0.17797  -0.17601
 Alpha  occ. eigenvalues --   -0.15280   0.04828
 Alpha virt. eigenvalues --    0.06783   0.07395   0.07835   0.09035   0.09471
 Alpha virt. eigenvalues --    0.09583   0.10271   0.10398   0.11874   0.12190
 Alpha virt. eigenvalues --    0.12594   0.13249   0.13524   0.14122   0.15352

  Beta  occ. eigenvalues --  -10.07030 -10.07002 -10.06828 -10.06794 -10.06787
  Beta  occ. eigenvalues --  -10.06505 -10.06353 -10.06146 -10.05842 -10.05635
  Beta  occ. eigenvalues --  -10.05012  -0.79249  -0.73140  -0.66343  -0.62886
  Beta  occ. eigenvalues --   -0.59515  -0.55035  -0.52117  -0.48154  -0.45666
  Beta  occ. eigenvalues --   -0.43406  -0.42061  -0.39113  -0.38462  -0.36730
  Beta  occ. eigenvalues --   -0.33263  -0.32273  -0.29942  -0.27917  -0.27836
  Beta  occ. eigenvalues --   -0.27034  -0.25605  -0.24236  -0.23096  -0.21793
  Beta  occ. eigenvalues --   -0.21088  -0.20504  -0.19625  -0.17756  -0.17576
  Beta  occ. eigenvalues --   -0.15262
  Beta virt. eigenvalues --    0.07103   0.07883   0.08157   0.08449   0.09869
  Beta virt. eigenvalues --    0.10165   0.10195   0.10739   0.10823   0.12532
  Beta virt. eigenvalues --    0.12767   0.13204   0.13674   0.13905   0.14504

 Mulliken charges and spin densities:
               1          2
     1  C    0.327886  -0.803213
     2  C    0.539496  -1.096948
     3  C    1.027337  -0.711386
     4  C   -0.481346   0.694108
     5  C    0.824240  -1.690065
     6  C   -0.437286   0.887588
     7  C    0.203641  -1.059747
     8  C    0.354034  -0.183587
     9  C    0.238066  -0.405152
    10  C   -1.129077   0.972913
    11  C    0.363014  -0.960250
    12  H   -0.516557   0.662993
    13  H   -0.023308   0.175209
    14  H   -0.018588   0.156245
    15  H   -0.002987   0.163232
    16  H    0.967475  -1.028957
    17  H   -0.032943   0.265421
    18  H   -0.178192   0.336688
    19  H   -0.173416   0.306441
    20  H   -0.692715   0.930669
    21  H   -0.157800   0.298303
    22  H   -0.041025   0.190305
    23  H   -0.240006   0.463962
    24  H   -0.360336   0.564227
    25  H   -0.524765   0.729126
    26  H   -0.330871   0.499613
    27  H   -0.503973   0.642261
 Sum of Mulliken charges =  -1.00000   1.00000

 Dipole moment (field-independent basis, Debye):
    X=              0.2335    Y=              1.6260    Z=             -0.1832  Tot=              1.6529
 Quadrupole moment (field-independent basis, Debye-Ang):
   XX=           -135.7079   YY=           -110.1592   ZZ=           -104.5204
   XY=             -3.5014   XZ=              2.3470   YZ=             -0.2844

 Summary of Natural Population Analysis:

                                       Natural Population
                Natural  -----------------------------------------------
    Atom  No    Charge         Core      Valence    Rydberg      Total
 -----------------------------------------------------------------------
      C    1   -0.18489      0.99962     2.17671    0.00856     3.18489
      C    2   -0.18471      0.99960     2.17701    0.00810     3.18471
      C    3   -0.13311      0.99951     2.11975    0.01385     3.13311
      C    4   -0.09713      0.99956     2.08559    0.01197     3.09713
      C    5   -0.19702      0.99959     2.18717    0.01025     3.19702
      C    6   -0.11388      0.99961     2.10183    0.01244     3.11388
      C    7   -0.19506      0.99962     2.18636    0.00908     3.19506
      C    8   -0.11104      0.99957     2.09918    0.01230     3.11104
      C    9   -0.10740      0.99959     2.09655    0.01127     3.10740
      C   10   -0.10500      0.99954     2.09445    0.01100     3.10500
      C   11   -0.19419      0.99959     2.18477    0.00983     3.19419
      H   12    0.09979      0.00000     0.39892    0.00128     0.40021
      H   13    0.09526      0.00000     0.40344    0.00129     0.40474
      H   14    0.09499      0.00000     0.40375    0.00127     0.40501
      H   15    0.10113      0.00000     0.39793    0.00094     0.39887
      H   16    0.10615      0.00000     0.38789    0.00595     0.39385
      H   17    0.10153      0.00000     0.39719    0.00127     0.39847
      H   18    0.10199      0.00000     0.39655    0.00146     0.39801
      H   19    0.10057      0.00000     0.39812    0.00131     0.39943
      H   20    0.10353      0.00000     0.39442    0.00206     0.39647
      H   21    0.10369      0.00000     0.39500    0.00131     0.39631
      H   22    0.09997      0.00000     0.39877    0.00126     0.40003
      H   23    0.10038      0.00000     0.39828    0.00135     0.39962
      H   24    0.10567      0.00000     0.39289    0.00144     0.39433
      H   25    0.10390      0.00000     0.39492    0.00118     0.39610
      H   26    0.09995      0.00000     0.39886    0.00119     0.40005
      H   27    0.10493      0.00000     0.39378    0.00129     0.39507
 =======================================================================
   * Total *    0.00000     10.99541    29.86009    0.14451    41.00000

 Normal termination of Gaussian 16 at Tue Dec  8 22:08:06 2020.
