 Gaussian 16, Revision A.03,

 -----------------------------------------------------------
 # opt freq B3LYP/6-31G(d) empiricaldispersion=gd3bj scf=xqc
 -----------------------------------------------------------

 -----------------------------
 CID_91803523_JID_505_neutraal
 -----------------------------
 Symbolic Z-matrix:
 Charge =  0 Multiplicity = 1

 SCF Done:  E(RB3LYP) =  -750.737694445     A.U. after   14 cycles
 SCF Done:  E(RB3LYP) =  -750.757190648     A.U. after   12 cycles
 SCF Done:  E(RB3LYP) =  -750.760225912     A.U. after   12 cycles
 SCF Done:  E(RB3LYP) =  -750.758858233     A.U. after   12 cycles
 SCF Done:  E(RB3LYP) =  -750.761784801     A.U. after   12 cycles
 SCF Done:  E(RB3LYP) =  -750.761664128     A.U. after   13 cycles
 SCF Done:  E(RB3LYP) =  -750.762204032     A.U. after   12 cycles
 SCF Done:  E(RB3LYP) =  -750.762950178     A.U. after   12 cycles
 SCF Done:  E(RB3LYP) =  -750.762383671     A.U. after   12 cycles
 SCF Done:  E(RB3LYP) =  -750.762908281     A.U. after   11 cycles
 SCF Done:  E(RB3LYP) =  -750.763063981     A.U. after    7 cycles
 SCF Done:  E(RB3LYP) =  -750.763113579     A.U. after    9 cycles
 SCF Done:  E(RB3LYP) =  -750.763115765     A.U. after    9 cycles
 SCF Done:  E(RB3LYP) =  -750.763116495     A.U. after    8 cycles
 SCF Done:  E(RB3LYP) =  -750.763116479     A.U. after    7 cycles
 SCF Done:  E(RB3LYP) =  -750.763116530     A.U. after    7 cycles
 Optimization completed.
    -- Stationary point found.

 1\1\GINC-NODE377\FOpt\RB3LYP\6-31G(d)\C9H16S1\VSC10255\08-Dec-2020\0\\
 # opt freq B3LYP/6-31G(d) empiricaldispersion=gd3bj scf=xqc\\CID_91803
 523_JID_505_neutraal\\0,1\C,0.4428526936,0.1876895907,-0.2023138299\C,
 0.4179777453,0.5554184972,-1.6850987409\S,0.8070193226,-0.8272564717,-
 2.8367442162\C,2.6310292501,-0.6634534747,-3.1165056617\C,2.9932965421
 ,0.6336452468,-3.8420804196\C,3.4892734049,-0.8635990976,-1.8601865281
 \C,3.2591575009,-2.1678771719,-1.0909896191\C,3.3667916802,-3.43999383
 98,-1.9594409588\C,4.6045853585,-3.5098963625,-2.7356753418\C,5.628210

 Normal termination of Gaussian 16 at Tue Dec  8 12:14:00 2020.

 --------------------------------------------------------------------
 #N Geom=AllCheck Guess=TCheck SCRF=Check GenChk RB3LYP/6-31G(d) Freq
 --------------------------------------------------------------------

 Structure from the checkpoint file:  "JID_505.chk"
 -----------------------------
 CID_91803523_JID_505_neutraal
 -----------------------------
 Charge =  0 Multiplicity = 1

 SCF Done:  E(RB3LYP) =  -750.763116530     A.U. after    1 cycles

  Exact polarizability: 131.225 -15.827 101.676   3.405  -2.879  88.357
 Approx polarizability: 177.013 -31.704 146.563   8.864  -8.766 138.160

                      1                      2                      3
                      A                      A                      A
 Frequencies --     35.2321                51.0013                62.8103
 Red. masses --      4.0146                 2.5053                 3.3581
 Frc consts  --      0.0029                 0.0038                 0.0078
 IR Inten    --      0.3241                 0.7437                 0.1104

                      4                      5                      6
                      A                      A                      A
 Frequencies --     89.8567               145.7030               181.5243
 Red. masses --      3.5087                 4.1047                 2.3654
 Frc consts  --      0.0167                 0.0513                 0.0459
 IR Inten    --      0.8008                 0.6798                 0.4692

                      7                      8                      9
                      A                      A                      A
 Frequencies --    195.2495               230.9341               239.0792
 Red. masses --      2.0594                 1.9133                 1.2192
 Frc consts  --      0.0463                 0.0601                 0.0411
 IR Inten    --      0.0869                 0.6561                 0.2212

                     10                     11                     12
                      A                      A                      A
 Frequencies --    268.8256               313.8076               326.0684
 Red. masses --      1.4731                 2.4869                 2.5591
 Frc consts  --      0.0627                 0.1443                 0.1603
 IR Inten    --      0.1014                 0.3427                 1.4605

                     13                     14                     15
                      A                      A                      A
 Frequencies --    359.0675               363.8681               446.9525
 Red. masses --      3.2775                 2.6262                 2.7601
 Frc consts  --      0.2490                 0.2049                 0.3249
 IR Inten    --      2.2474                 1.6549                 0.2910

                     16                     17                     18
                      A                      A                      A
 Frequencies --    477.2214               581.6479               588.2326
 Red. masses --      2.9829                 3.2635                 3.3548
 Frc consts  --      0.4003                 0.6505                 0.6839
 IR Inten    --      2.2960                 2.1920                 3.3068

                     19                     20                     21
                      A                      A                      A
 Frequencies --    601.3166               611.6550               665.9868
 Red. masses --      1.2138                 1.2046                 4.2561
 Frc consts  --      0.2586                 0.2655                 1.1122
 IR Inten    --     46.1868                48.4601                 1.0789

                     22                     23                     24
                      A                      A                      A
 Frequencies --    762.3736               769.3448               843.9964
 Red. masses --      1.2135                 1.5084                 2.9692
 Frc consts  --      0.4156                 0.5260                 1.2461
 IR Inten    --      5.7722                11.0178                 1.3838

                     25                     26                     27
                      A                      A                      A
 Frequencies --    904.5659               927.8650               990.3812
 Red. masses --      1.9679                 1.8974                 1.7745
 Frc consts  --      0.9487                 0.9624                 1.0255
 IR Inten    --      1.6620                 2.6893                 6.6846

                     28                     29                     30
                      A                      A                      A
 Frequencies --    991.8307              1019.3385              1049.9768
 Red. masses --      1.8732                 1.6922                 1.3315
 Frc consts  --      1.0857                 1.0359                 0.8649
 IR Inten    --      2.7609                 3.8906                 1.4205

                     31                     32                     33
                      A                      A                      A
 Frequencies --   1064.9523              1082.2211              1101.7599
 Red. masses --      1.9982                 1.9454                 1.9089
 Frc consts  --      1.3352                 1.3425                 1.3652
 IR Inten    --      1.1220                 1.9447                 6.0831

                     34                     35                     36
                      A                      A                      A
 Frequencies --   1119.2660              1151.9965              1208.2625
 Red. masses --      2.2118                 1.9951                 1.1477
 Frc consts  --      1.6325                 1.5600                 0.9872
 IR Inten    --      0.3439                 4.2196                 1.7273

                     37                     38                     39
                      A                      A                      A
 Frequencies --   1232.6648              1295.2860              1301.5601
 Red. masses --      1.2959                 1.2330                 1.2427
 Frc consts  --      1.1601                 1.2188                 1.2403
 IR Inten    --      4.1323                 4.4239                14.7573

                     40                     41                     42
                      A                      A                      A
 Frequencies --   1320.9624              1336.6630              1353.5153
 Red. masses --      1.2490                 1.2475                 1.1952
 Frc consts  --      1.2841                 1.3132                 1.2901
 IR Inten    --     14.2951                 3.0220                 7.4201

                     43                     44                     45
                      A                      A                      A
 Frequencies --   1370.8181              1406.6437              1416.7237
 Red. masses --      1.3651                 1.3534                 1.4740
 Frc consts  --      1.5113                 1.5778                 1.7431
 IR Inten    --      5.5618                 7.7785                 0.6151

                     46                     47                     48
                      A                      A                      A
 Frequencies --   1436.9660              1439.9186              1496.4504
 Red. masses --      1.2245                 1.2280                 1.0814
 Frc consts  --      1.4898                 1.5002                 1.4268
 IR Inten    --      0.6431                 6.7915                 2.1530

                     49                     50                     51
                      A                      A                      A
 Frequencies --   1506.3672              1513.5612              1515.7780
 Red. masses --      1.0743                 1.0774                 1.0936
 Frc consts  --      1.4363                 1.4542                 1.4804
 IR Inten    --      3.3170                 7.3119                 3.4831

                     52                     53                     54
                      A                      A                      A
 Frequencies --   1523.1434              1523.9562              1530.9413
 Red. masses --      1.0466                 1.0474                 1.0496
 Frc consts  --      1.4306                 1.4332                 1.4495
 IR Inten    --      2.8409                 9.0054                 4.0037

                     55                     56                     57
                      A                      A                      A
 Frequencies --   1531.6949              2238.1813              3039.3818
 Red. masses --      1.0488                 5.9848                 1.0580
 Frc consts  --      1.4497                17.6640                 5.7583
 IR Inten    --      8.7717                 2.2665                10.2569

                     58                     59                     60
                      A                      A                      A
 Frequencies --   3043.8388              3048.7382              3049.2682
 Red. masses --      1.0595                 1.0402                 1.0415
 Frc consts  --      5.7833                 5.6962                 5.7058
 IR Inten    --     11.1014                34.0532                27.4785

                     61                     62                     63
                      A                      A                      A
 Frequencies --   3058.4152              3066.8325              3075.2277
 Red. masses --      1.0716                 1.0869                 1.0607
 Frc consts  --      5.9057                 6.0234                 5.9101
 IR Inten    --     17.4263                 8.4052                22.6163

                     64                     65                     66
                      A                      A                      A
 Frequencies --   3075.9278              3081.8013              3108.4293
 Red. masses --      1.0955                 1.0960                 1.1003
 Frc consts  --      6.1070                 6.1332                 6.2637
 IR Inten    --     17.5590                27.1981                31.9878

                     67                     68                     69
                      A                      A                      A
 Frequencies --   3113.3943              3114.1832              3119.3859
 Red. masses --      1.1004                 1.1020                 1.0973
 Frc consts  --      6.2845                 6.2969                 6.2911
 IR Inten    --     49.9939                 6.6153                23.8256

                     70                     71                     72
                      A                      A                      A
 Frequencies --   3139.7653              3147.6292              3496.3610
 Red. masses --      1.1016                 1.1028                 1.1595
 Frc consts  --      6.3984                 6.4372                 8.3512
 IR Inten    --     17.6435                30.8734                55.9965

 - Thermochemistry -
 -------------------
 Temperature   298.150 Kelvin.  Pressure   1.00000 Atm.
 Atom     1 has atomic number  6 and mass  12.00000

 Molecular mass:   156.09727 amu.
 Principal axes and moments of inertia in atomic units:
                           1         2         3
     Eigenvalues --  1018.829392864.960803254.04358
           X            0.99985  -0.01174  -0.01240
           Y            0.01150   0.99976  -0.01879
           Z            0.01262   0.01864   0.99975
 This molecule is an asymmetric top.
 Rotational symmetry number  1.
 Warning -- assumption of classical behavior for rotation
           may cause significant error
 Rotational temperatures (Kelvin)      0.08501     0.03023     0.02662
 Rotational constants (GHZ):           1.77139     0.62994     0.55461
 Zero-point vibrational energy     603483.4 (Joules/Mol)
                                  144.23600 (Kcal/Mol)
 Warning -- explicit consideration of  20 degrees of freedom as
           vibrations may cause significant error
 Vibrational temperatures:     50.69    73.38    90.37   129.28   209.63
          (Kelvin)            261.17   280.92   332.26   343.98   386.78
                              451.50   469.14   516.62   523.53   643.06
                              686.62   836.86   846.34   865.16   880.04
                              958.21  1096.89  1106.92  1214.32  1301.47
                             1334.99  1424.94  1427.02  1466.60  1510.68
                             1532.23  1557.07  1585.19  1610.37  1657.47
                             1738.42  1773.53  1863.63  1872.65  1900.57
                             1923.16  1947.41  1972.30  2023.85  2038.35
                             2067.47  2071.72  2153.06  2167.33  2177.68
                             2180.87  2191.46  2192.63  2202.68  2203.77
                             3220.24  4372.99  4379.41  4386.45  4387.22
                             4400.38  4412.49  4424.57  4425.57  4434.02
                             4472.34  4479.48  4480.62  4488.10  4517.42
                             4528.74  5030.48

 Zero-point correction=                           0.229855 (Hartree/Particle)
 Thermal correction to Energy=                    0.242773
 Thermal correction to Enthalpy=                  0.243717
 Thermal correction to Gibbs Free Energy=         0.190026
 Sum of electronic and zero-point Energies=           -750.533262
 Sum of electronic and thermal Energies=              -750.520343
 Sum of electronic and thermal Enthalpies=            -750.519399
 Sum of electronic and thermal Free Energies=         -750.573090

                     E (Thermal)             CV                S
                      KCal/Mol        Cal/Mol-Kelvin    Cal/Mol-Kelvin
 Total                  152.343             46.825            113.003
 Electronic               0.000              0.000              0.000
 Translational            0.889              2.981             41.045
 Rotational               0.889              2.981             30.630
 Vibrational            150.565             40.864             41.327
 Vibration     1          0.594              1.982              5.511
 Vibration     2          0.595              1.977              4.778
 Vibration     3          0.597              1.972              4.367
 Vibration     4          0.602              1.956              3.663
 Vibration     5          0.617              1.907              2.728
 Vibration     6          0.630              1.865              2.313
 Vibration     7          0.636              1.846              2.177
 Vibration     8          0.653              1.794              1.872
 Vibration     9          0.657              1.781              1.810
 Vibration    10          0.673              1.730              1.604
 Vibration    11          0.702              1.647              1.342
 Vibration    12          0.710              1.623              1.279
 Vibration    13          0.734              1.557              1.126
 Vibration    14          0.737              1.547              1.106
 Vibration    15          0.806              1.368              0.805
 Vibration    16          0.834              1.301              0.718
 Vibration    17          0.938              1.071              0.482
 Vibration    18          0.945              1.057              0.470
 Vibration    19          0.960              1.029              0.447
 Vibration    20          0.971              1.007              0.430

 Optimization completed.
    -- Stationary point found.

 1\1\GINC-NODE377\Freq\RB3LYP\6-31G(d)\C9H16S1\VSC10255\08-Dec-2020\0\\
 #N Geom=AllCheck Guess=TCheck SCRF=Check GenChk RB3LYP/6-31G(d) Freq\\
 CID_91803523_JID_505_neutraal\\0,1\C,0.4428526936,0.1876895907,-0.2023
 138299\C,0.4179777453,0.5554184972,-1.6850987409\S,0.8070193226,-0.827
 2564717,-2.8367442162\C,2.6310292501,-0.6634534747,-3.1165056617\C,2.9
 932965421,0.6336452468,-3.8420804196\C,3.4892734049,-0.8635990976,-1.8
 601865281\C,3.2591575009,-2.1678771719,-1.0909896191\C,3.3667916802,-3
 .4399938398,-1.9594409588\C,4.6045853585,-3.5098963625,-2.7356753418\C

 Normal termination of Gaussian 16 at Tue Dec  8 12:20:44 2020.

 ----------------------------------------------------------------------
 # B3LYP/6-311++G(d,p) empiricaldispersion=gd3bj scf=xqc pop=npa geom=c
 heck
 ----------------------------------------------------------------------

 -------------------------------------
 CID_91803523_JID_505_Energie_neutraal
 -------------------------------------
 Structure from the checkpoint file:  "JID_505.chk"
 Charge =  0 Multiplicity = 1

 SCF Done:  E(RB3LYP) =  -750.893395480     A.U. after   14 cycles
 Normal termination of Gaussian 16 at Tue Dec  8 12:25:00 2020.

 ----------------------------------------------------------------------
 # B3LYP/6-311++G(d,p) empiricaldispersion=gd3bj scf=xqc pop=npa geom=c
 heck
 ----------------------------------------------------------------------

 -----------------------------------
 CID_91803523_JID_505_Energie_kation
 -----------------------------------
 Structure from the checkpoint file:  "JID_505.chk"
 Charge =  1 Multiplicity = 2

 SCF Done:  E(UB3LYP) =  -750.593210463     A.U. after   23 cycles
 Normal termination of Gaussian 16 at Tue Dec  8 12:40:02 2020.
 Gaussian 16:  ES64L-G16RevA.03 25-Dec-2016

 ----------------------------------
 CID_91803523_JID_505_Energie_anion
 ----------------------------------
 Structure from the checkpoint file:  "JID_505.chk"
 Charge = -1 Multiplicity = 2

                         Standard orientation:
 ---------------------------------------------------------------------
 Center     Atomic      Atomic             Coordinates (Angstroms)
 Number     Number       Type             X           Y           Z
 ---------------------------------------------------------------------
      1          6           0        2.806813   -1.471601   -0.613858
      2          6           0        2.776749   -0.061429   -0.026486
      3         16           0        1.387183    0.268581    1.135249
      4          6           0        0.073825    0.997077    0.050585
      5          6           0        0.489420    2.346198   -0.538749
      6          6           0       -0.455991    0.049039   -1.033618
      7          6           0       -0.966678   -1.309953   -0.545665
      8          6           0       -2.021522   -1.221092    0.578382
      9          6           0       -3.139625   -0.334676    0.256404
     10          6           0       -4.040122    0.417102   -0.032012
     11          1           0        2.808593   -2.224456    0.180614
     12          1           0        3.711817   -1.610966   -1.219002
     13          1           0        1.940860   -1.661433   -1.253684
     14          1           0        3.682122    0.121047    0.561010
     15          1           0        2.759595    0.696147   -0.815879
     16          1           0       -0.727902    1.179141    0.775418
     17          1           0        1.303096    2.236197   -1.264495
     18          1           0       -0.358638    2.800185   -1.066178
     19          1           0        0.821175    3.033033    0.244481
     20          1           0       -1.277588    0.571352   -1.541150
     21          1           0        0.323042   -0.107630   -1.790866
     22          1           0       -1.397438   -1.847015   -1.399051
     23          1           0       -0.134556   -1.910937   -0.166064
     24          1           0       -2.400972   -2.228128    0.794361
     25          1           0       -1.537615   -0.876886    1.501369
     26          1           0       -4.847734    1.069079   -0.274768
 ---------------------------------------------------------------------

 SCF Done:  E(UB3LYP) =  -750.876738228     A.U. after   31 cycles

 The electronic state is 2-A.
 Alpha  occ. eigenvalues --  -88.73117 -10.10513 -10.09932 -10.09574 -10.07983
 Alpha  occ. eigenvalues --  -10.07566 -10.07042 -10.06610 -10.06496 -10.06199
 Alpha  occ. eigenvalues --   -7.81746  -5.78138  -5.77768  -5.77127  -0.73628
 Alpha  occ. eigenvalues --   -0.70419  -0.67319  -0.64260  -0.59767  -0.58969
 Alpha  occ. eigenvalues --   -0.53002  -0.50561  -0.45148  -0.43180  -0.38992
 Alpha  occ. eigenvalues --   -0.37585  -0.36563  -0.34028  -0.33565  -0.32944
 Alpha  occ. eigenvalues --   -0.30930  -0.30491  -0.28823  -0.28153  -0.26018
 Alpha  occ. eigenvalues --   -0.25670  -0.25200  -0.23879  -0.22307  -0.19536
 Alpha  occ. eigenvalues --   -0.17851  -0.17788  -0.12360   0.04540
 Alpha virt. eigenvalues --    0.06230   0.07076   0.08016   0.08356   0.09342
 Alpha virt. eigenvalues --    0.09724   0.10195   0.10551   0.10878   0.11982
 Alpha virt. eigenvalues --    0.12676   0.13044   0.13337   0.13400   0.13701

  Beta  occ. eigenvalues --  -88.73114 -10.10508 -10.09920 -10.09541 -10.07987
  Beta  occ. eigenvalues --  -10.07552 -10.07023 -10.06581 -10.06467 -10.06157
  Beta  occ. eigenvalues --   -7.81743  -5.78131  -5.77765  -5.77124  -0.73604
  Beta  occ. eigenvalues --   -0.70393  -0.67278  -0.64233  -0.59727  -0.58915
  Beta  occ. eigenvalues --   -0.52938  -0.50484  -0.45097  -0.43119  -0.38965
  Beta  occ. eigenvalues --   -0.37555  -0.36530  -0.33994  -0.33537  -0.32902
  Beta  occ. eigenvalues --   -0.30889  -0.30454  -0.28760  -0.28108  -0.25980
  Beta  occ. eigenvalues --   -0.25634  -0.25168  -0.23849  -0.22271  -0.19508
  Beta  occ. eigenvalues --   -0.17830  -0.17764  -0.12340
  Beta virt. eigenvalues --    0.06755   0.07465   0.07671   0.08675   0.08864
  Beta virt. eigenvalues --    0.09691   0.10260   0.10494   0.10716   0.11376
  Beta virt. eigenvalues --    0.12095   0.12929   0.13246   0.13539   0.13607

 Mulliken charges and spin densities:
               1          2
     1  C    0.981674  -1.509456
     2  C   -0.781793   0.373280
     3  S    0.568121  -0.494617
     4  C   -1.418239   1.429677
     5  C    0.918568  -1.508345
     6  C    0.689884  -0.745569
     7  C   -0.144205  -0.341764
     8  C   -1.684401   1.325386
     9  C    2.947397  -2.843513
    10  C   -0.571521   0.273810
    11  H   -0.150329   0.282550
    12  H   -0.624069   0.763730
    13  H   -0.183579   0.340897
    14  H   -0.250702   0.436348
    15  H    0.113936   0.047105
    16  H    0.318801  -0.106003
    17  H   -0.194382   0.339261
    18  H   -0.234410   0.371331
    19  H   -0.063906   0.197309
    20  H    0.329036  -0.196041
    21  H   -0.089933   0.237228
    22  H   -0.338838   0.517854
    23  H    0.186443  -0.054477
    24  H   -0.185323   0.377794
    25  H    0.099555   0.056540
    26  H   -1.237785   1.429684
 Sum of Mulliken charges =  -1.00000   1.00000

 Dipole moment (field-independent basis, Debye):
    X=              0.7716    Y=             -0.4307    Z=              2.8181  Tot=              2.9534
 Quadrupole moment (field-independent basis, Debye-Ang):
   XX=           -161.8122   YY=           -111.9237   ZZ=           -105.1630
   XY=             10.0188   XZ=              1.9922   YZ=             -0.5452

 Summary of Natural Population Analysis:

                                       Natural Population
                Natural  -----------------------------------------------
    Atom  No    Charge         Core      Valence    Rydberg      Total
 -----------------------------------------------------------------------
      C    1   -0.28886      0.99965     2.28253    0.00668     3.28886
      C    2   -0.25517      0.99960     2.24465    0.01092     3.25517
      S    3    0.07877      4.99961     2.90451    0.01711     7.92123
      C    4   -0.16583      0.99956     2.15373    0.01254     3.16583
      C    5   -0.28783      0.99963     2.28151    0.00669     3.28783
      C    6   -0.19997      0.99959     2.18986    0.01053     3.19997
      C    7   -0.18389      0.99962     2.17485    0.00942     3.18389
      C    8   -0.23445      0.99957     2.22587    0.00901     3.23445
      C    9   -0.00251      0.99938     1.99483    0.00831     3.00251
      C   10   -0.12322      0.99926     2.12020    0.00377     3.12322
      H   11    0.09845      0.00000     0.40026    0.00129     0.40155
      H   12    0.10165      0.00000     0.39615    0.00220     0.39835
      H   13    0.09831      0.00000     0.40013    0.00156     0.40169
      H   14    0.10351      0.00000     0.39523    0.00126     0.39649
      H   15    0.10320      0.00000     0.39501    0.00179     0.39680
      H   16    0.10390      0.00000     0.39410    0.00200     0.39610
      H   17    0.09855      0.00000     0.40017    0.00128     0.40145
      H   18    0.10264      0.00000     0.39605    0.00131     0.39736
      H   19    0.10249      0.00000     0.39637    0.00113     0.39751
      H   20    0.10617      0.00000     0.39232    0.00151     0.39383
      H   21    0.10218      0.00000     0.39638    0.00144     0.39782
      H   22    0.09858      0.00000     0.40016    0.00126     0.40142
      H   23    0.10467      0.00000     0.39377    0.00155     0.39533
      H   24    0.11333      0.00000     0.38538    0.00129     0.38667
      H   25    0.11253      0.00000     0.38595    0.00151     0.38747
      H   26    0.11277      0.00000     0.38460    0.00263     0.38723
 =======================================================================
   * Total *    0.00000     13.99547    28.88456    0.11997    43.00000

 Normal termination of Gaussian 16 at Tue Dec  8 12:50:17 2020.
