 Gaussian 16, Revision A.03,

 -----------------------------------------------------------
 # opt freq B3LYP/6-31G(d) empiricaldispersion=gd3bj scf=xqc
 -----------------------------------------------------------

 --------------------------------
 CID_118368146_JID_10370_neutraal
 --------------------------------
 Symbolic Z-matrix:
 Charge =  0 Multiplicity = 1

 SCF Done:  E(RB3LYP) =  -939.994358281     A.U. after   14 cycles
 SCF Done:  E(RB3LYP) =  -939.998373759     A.U. after   12 cycles
 SCF Done:  E(RB3LYP) =  -939.997011541     A.U. after   14 cycles
 SCF Done:  E(RB3LYP) =  -939.998239367     A.U. after   12 cycles
 SCF Done:  E(RB3LYP) =  -939.999289021     A.U. after    9 cycles
 SCF Done:  E(RB3LYP) =  -939.999763366     A.U. after   12 cycles
 SCF Done:  E(RB3LYP) =  -939.999934633     A.U. after   13 cycles
 SCF Done:  E(RB3LYP) =  -940.000170462     A.U. after   11 cycles
 SCF Done:  E(RB3LYP) =  -940.000271088     A.U. after   11 cycles
 SCF Done:  E(RB3LYP) =  -940.000330904     A.U. after   12 cycles
 SCF Done:  E(RB3LYP) =  -940.000506334     A.U. after    8 cycles
 SCF Done:  E(RB3LYP) =  -940.000508048     A.U. after    9 cycles
 SCF Done:  E(RB3LYP) =  -940.000508620     A.U. after    9 cycles
 SCF Done:  E(RB3LYP) =  -940.000508589     A.U. after    7 cycles
 SCF Done:  E(RB3LYP) =  -940.000508615     A.U. after    6 cycles
 Optimization completed.
    -- Stationary point found.
 Normal termination of Gaussian 16 at Mon Dec 14 13:54:54 2020.

 --------------------------------------------------------------------
 #N Geom=AllCheck Guess=TCheck SCRF=Check GenChk RB3LYP/6-31G(d) Freq
 --------------------------------------------------------------------

 Structure from the checkpoint file:  "JID_10370.chk"
 --------------------------------
 CID_118368146_JID_10370_neutraal
 --------------------------------
 Charge =  0 Multiplicity = 1

 SCF Done:  E(RB3LYP) =  -940.000508615     A.U. after    1 cycles

  Exact polarizability: 177.386   5.472 182.065 -22.808   5.030 139.238
 Approx polarizability: 242.937  10.866 283.509 -49.462  10.278 222.852

                      1                      2                      3
                      A                      A                      A
 Frequencies --     18.3523                34.2916                42.2948
 Red. masses --      4.9189                 3.4421                 6.6221
 Frc consts  --      0.0010                 0.0024                 0.0070
 IR Inten    --      0.4120                 0.0850                 1.2769

                      4                      5                      6
                      A                      A                      A
 Frequencies --     48.0622                56.1305                76.7650
 Red. masses --      6.8433                 4.3679                 4.3422
 Frc consts  --      0.0093                 0.0081                 0.0151
 IR Inten    --      0.4813                 0.2132                 0.2695

                      7                      8                      9
                      A                      A                      A
 Frequencies --     93.8592               118.6857               135.7929
 Red. masses --      5.9640                 3.8172                 5.1132
 Frc consts  --      0.0310                 0.0317                 0.0556
 IR Inten    --      2.0099                 0.0940                 0.3107

                     10                     11                     12
                      A                      A                      A
 Frequencies --    156.7205               167.5719               196.4304
 Red. masses --      3.5175                 4.8604                 3.1588
 Frc consts  --      0.0509                 0.0804                 0.0718
 IR Inten    --      2.2373                 0.8635                 7.5834

                     13                     14                     15
                      A                      A                      A
 Frequencies --    206.9891               245.9714               256.5943
 Red. masses --      1.0840                 2.2621                 1.0841
 Frc consts  --      0.0274                 0.0806                 0.0421
 IR Inten    --      0.0958                 2.2718                 4.6363

                     16                     17                     18
                      A                      A                      A
 Frequencies --    263.7243               267.5420               270.6460
 Red. masses --      3.7807                 1.2705                 1.2718
 Frc consts  --      0.1549                 0.0536                 0.0549
 IR Inten    --      2.3748                21.6303                28.2354

                     19                     20                     21
                      A                      A                      A
 Frequencies --    307.8153               324.5045               336.5587
 Red. masses --      2.9576                 3.2515                 4.0619
 Frc consts  --      0.1651                 0.2017                 0.2711
 IR Inten    --      2.7867                 4.6813                 1.8690

                     22                     23                     24
                      A                      A                      A
 Frequencies --    360.0312               406.9670               417.4484
 Red. masses --      2.5622                 2.7004                 3.2787
 Frc consts  --      0.1957                 0.2635                 0.3366
 IR Inten    --      5.1931                 0.4495                 0.4943

                     25                     26                     27
                      A                      A                      A
 Frequencies --    421.4942               442.2223               458.1501
 Red. masses --      4.2885                 2.5976                 3.2719
 Frc consts  --      0.4489                 0.2993                 0.4046
 IR Inten    --      2.0460                 5.0728                 2.8251

                     28                     29                     30
                      A                      A                      A
 Frequencies --    482.8473               511.8427               569.8409
 Red. masses --      3.6886                 3.4769                 3.3790
 Frc consts  --      0.5067                 0.5367                 0.6465
 IR Inten    --      2.7927                 1.1122                 9.5831

                     31                     32                     33
                      A                      A                      A
 Frequencies --    576.1709               618.6215               630.0260
 Red. masses --      3.1110                 2.4203                 2.5979
 Frc consts  --      0.6085                 0.5457                 0.6076
 IR Inten    --     30.7016                34.2954                42.4854

                     34                     35                     36
                      A                      A                      A
 Frequencies --    637.4854               655.0757               713.3767
 Red. masses --      5.2319                 2.5649                 1.9384
 Frc consts  --      1.2527                 0.6485                 0.5812
 IR Inten    --      3.0918                51.8997                32.2542

                     37                     38                     39
                      A                      A                      A
 Frequencies --    748.3748               768.4564               771.4878
 Red. masses --      2.7026                 3.9643                 2.6152
 Frc consts  --      0.8918                 1.3793                 0.9171
 IR Inten    --     29.1137                 3.4705                15.9464

                     40                     41                     42
                      A                      A                      A
 Frequencies --    803.6411               808.1470               858.0322
 Red. masses --      4.6117                 3.3335                 1.2748
 Frc consts  --      1.7548                 1.2827                 0.5530
 IR Inten    --     33.0463                 9.1190                 0.2219

                     43                     44                     45
                      A                      A                      A
 Frequencies --    860.3190               882.3162               908.0091
 Red. masses --      4.2453                 2.6718                 2.2345
 Frc consts  --      1.8513                 1.2254                 1.0855
 IR Inten    --     36.1205                53.9571                18.5766

                     46                     47                     48
                      A                      A                      A
 Frequencies --    928.8618               938.3661               938.5687
 Red. masses --      1.7342                 1.6686                 1.6436
 Frc consts  --      0.8816                 0.8657                 0.8531
 IR Inten    --     24.6039                31.9305                 0.9599

                     49                     50                     51
                      A                      A                      A
 Frequencies --    942.4675               955.8756               968.8064
 Red. masses --      1.8360                 3.1402                 1.3529
 Frc consts  --      0.9608                 1.6905                 0.7482
 IR Inten    --     29.9291                37.1891                 0.3709

                     52                     53                     54
                      A                      A                      A
 Frequencies --    982.2378               996.2973              1023.5160
 Red. masses --      1.1985                 1.2539                 6.1511
 Frc consts  --      0.6813                 0.7333                 3.7966
 IR Inten    --      0.2672                 0.1552                 0.3471

                     55                     56                     57
                      A                      A                      A
 Frequencies --   1028.3616              1057.0008              1066.7673
 Red. masses --      2.5508                 2.6832                 1.4121
 Frc consts  --      1.5893                 1.7662                 0.9468
 IR Inten    --     46.0115                 2.8646                 0.3452

                     58                     59                     60
                      A                      A                      A
 Frequencies --   1071.4402              1075.4092              1110.6543
 Red. masses --      1.7949                 1.7481                 1.6613
 Frc consts  --      1.2140                 1.1911                 1.2074
 IR Inten    --      2.4130                 6.1923                 4.0145

                     61                     62                     63
                      A                      A                      A
 Frequencies --   1135.2279              1184.0058              1194.7979
 Red. masses --      1.9453                 2.2122                 1.1018
 Frc consts  --      1.4770                 1.8272                 0.9267
 IR Inten    --     37.0727               238.7385                 1.8849

                     64                     65                     66
                      A                      A                      A
 Frequencies --   1197.1192              1217.5518              1219.2848
 Red. masses --      1.7087                 1.9816                 1.3410
 Frc consts  --      1.4427                 1.7308                 1.1746
 IR Inten    --    176.4259                 2.8812                 8.3233

                     67                     68                     69
                      A                      A                      A
 Frequencies --   1224.1843              1254.2270              1287.1321
 Red. masses --      1.6607                 1.7745                 2.7141
 Frc consts  --      1.4663                 1.6446                 2.6492
 IR Inten    --     72.3545                21.8295                14.6747

                     70                     71                     72
                      A                      A                      A
 Frequencies --   1290.3318              1299.2554              1313.7969
 Red. masses --      1.5296                 2.7033                 2.6542
 Frc consts  --      1.5005                 2.6886                 2.6992
 IR Inten    --     25.6635                29.5625               113.8456

                     73                     74                     75
                      A                      A                      A
 Frequencies --   1339.4061              1353.5715              1366.0320
 Red. masses --      1.5931                 1.5088                 2.2698
 Frc consts  --      1.6839                 1.6287                 2.4955
 IR Inten    --      9.2375                 7.4259                10.2780

                     76                     77                     78
                      A                      A                      A
 Frequencies --   1373.9144              1394.0350              1410.5536
 Red. masses --      2.3085                 1.3960                 1.3472
 Frc consts  --      2.5674                 1.5984                 1.5793
 IR Inten    --     26.3452                 4.7817                 6.8313

                     79                     80                     81
                      A                      A                      A
 Frequencies --   1425.0129              1428.2901              1443.0669
 Red. masses --      1.2799                 1.2834                 1.4971
 Frc consts  --      1.5313                 1.5426                 1.8368
 IR Inten    --     16.3607                17.9315                 8.5166

                     82                     83                     84
                      A                      A                      A
 Frequencies --   1453.5164              1499.6973              1505.3139
 Red. masses --      1.2358                 1.0502                 2.1431
 Frc consts  --      1.5382                 1.3917                 2.8612
 IR Inten    --     22.3961                 0.2735                 6.8277

                     85                     86                     87
                      A                      A                      A
 Frequencies --   1509.2941              1518.0850              1519.6294
 Red. masses --      1.0964                 1.0479                 1.0517
 Frc consts  --      1.4715                 1.4229                 1.4309
 IR Inten    --     10.8465                 0.6710                 0.7639

                     88                     89                     90
                      A                      A                      A
 Frequencies --   1525.7497              1533.9016              1546.7647
 Red. masses --      1.0658                 1.0529                 2.1804
 Frc consts  --      1.4618                 1.4597                 3.0735
 IR Inten    --      9.2555                 0.9839                15.1036

                     91                     92                     93
                      A                      A                      A
 Frequencies --   1555.6553              1646.1195              1664.4013
 Red. masses --      1.0551                 5.4794                 5.5130
 Frc consts  --      1.5044                 8.7480                 8.9981
 IR Inten    --     11.7355                 1.1382                 4.1439

                     94                     95                     96
                      A                      A                      A
 Frequencies --   1689.6824              1809.0172              1850.5482
 Red. masses --      1.0925                11.1691                 9.6573
 Frc consts  --      1.8378                21.5354                19.4853
 IR Inten    --     50.2044               181.3147               282.2677

                     97                     98                     99
                      A                      A                      A
 Frequencies --   3059.1671              3059.6868              3061.7126
 Red. masses --      1.0738                 1.0376                 1.0368
 Frc consts  --      5.9206                 5.7232                 5.7264
 IR Inten    --      6.9955                13.1641                17.1697

                    100                    101                    102
                      A                      A                      A
 Frequencies --   3068.7211              3071.2109              3102.2617
 Red. masses --      1.0380                 1.0713                 1.0927
 Frc consts  --      5.7595                 5.9538                 6.1961
 IR Inten    --     17.0169                32.5704                 1.8182

                    103                    104                    105
                      A                      A                      A
 Frequencies --   3116.9641              3121.3901              3126.5719
 Red. masses --      1.0952                 1.1019                 1.1024
 Frc consts  --      6.2691                 6.3252                 6.3492
 IR Inten    --     25.6612                16.6935                11.9248

                    106                    107                    108
                      A                      A                      A
 Frequencies --   3138.4933              3140.1393              3172.5862
 Red. masses --      1.1024                 1.1030                 1.0996
 Frc consts  --      6.3979                 6.4078                 6.5207
 IR Inten    --     51.0772                30.9229                 2.5015

                    109                    110                    111
                      A                      A                      A
 Frequencies --   3177.9922              3185.3719              3193.5446
 Red. masses --      1.0993                 1.0850                 1.0884
 Frc consts  --      6.5415                 6.4866                 6.5399
 IR Inten    --      7.4563                 1.0673                 7.6565

                    112                    113                    114
                      A                      A                      A
 Frequencies --   3205.7703              3212.3622              3216.8514
 Red. masses --      1.0915                 1.0929                 1.0970
 Frc consts  --      6.6089                 6.6449                 6.6883
 IR Inten    --     26.5541                23.1773                 5.6006

                    115                    116                    117
                      A                      A                      A
 Frequencies --   3492.4062              3586.6932              3683.4857
 Red. masses --      1.0517                 1.0898                 1.0640
 Frc consts  --      7.5578                 8.2599                 8.5058
 IR Inten    --      1.6284                 4.7363                57.5872

 - Thermochemistry -
 -------------------
 Temperature   298.150 Kelvin.  Pressure   1.00000 Atm.
 Atom     1 has atomic number  6 and mass  12.00000

 Molecular mass:   279.14706 amu.
 Principal axes and moments of inertia in atomic units:
                           1         2         3
     Eigenvalues --  3998.382676946.914518269.95306
           X            0.99968  -0.00784  -0.02416
           Y            0.00850   0.99958   0.02754
           Z            0.02394  -0.02774   0.99933
 This molecule is an asymmetric top.
 Rotational symmetry number  1.
 Warning -- assumption of classical behavior for rotation
           may cause significant error
 Rotational temperatures (Kelvin)      0.02166     0.01247     0.01047
 Rotational constants (GHZ):           0.45137     0.25979     0.21823
 Zero-point vibrational energy     911505.8 (Joules/Mol)
                                  217.85512 (Kcal/Mol)
 Warning -- explicit consideration of  32 degrees of freedom as
           vibrations may cause significant error
 Vibrational temperatures:     26.40    49.34    60.85    69.15    80.76
          (Kelvin)            110.45   135.04   170.76   195.38   225.49
                              241.10   282.62   297.81   353.90   369.18
                              379.44   384.93   389.40   442.88   466.89
                              484.23   518.00   585.53   600.62   606.44
                              636.26   659.18   694.71   736.43   819.87
                              828.98   890.06   906.47   917.20   942.51
                             1026.39  1076.74  1105.64  1110.00  1156.26
                             1162.74  1234.52  1237.81  1269.46  1306.42
                             1336.43  1350.10  1350.39  1356.00  1375.29
                             1393.90  1413.22  1433.45  1472.61  1479.58
                             1520.79  1534.84  1541.56  1547.27  1597.98
                             1633.34  1703.52  1719.05  1722.39  1751.79
                             1754.28  1761.33  1804.55  1851.90  1856.50
                             1869.34  1890.26  1927.11  1947.49  1965.42
                             1976.76  2005.71  2029.47  2050.28  2054.99
                             2076.25  2091.29  2157.73  2165.81  2171.54
                             2184.19  2186.41  2195.21  2206.94  2225.45
                             2238.24  2368.40  2394.70  2431.08  2602.77
                             2662.53  4401.46  4402.21  4405.12  4415.21
                             4418.79  4463.46  4484.62  4490.98  4498.44
                             4515.59  4517.96  4564.64  4572.42  4583.04
                             4594.80  4612.39  4621.87  4628.33  5024.79
                             5160.45  5299.71

 Zero-point correction=                           0.347174 (Hartree/Particle)
 Thermal correction to Energy=                    0.367837
 Thermal correction to Enthalpy=                  0.368781
 Thermal correction to Gibbs Free Energy=         0.296518
 Sum of electronic and zero-point Energies=           -939.653334
 Sum of electronic and thermal Energies=              -939.632671
 Sum of electronic and thermal Enthalpies=            -939.631727
 Sum of electronic and thermal Free Energies=         -939.703991

                     E (Thermal)             CV                S
                      KCal/Mol        Cal/Mol-Kelvin    Cal/Mol-Kelvin
 Total                  230.821             77.884            152.091
 Electronic               0.000              0.000              0.000
 Translational            0.889              2.981             42.778
 Rotational               0.889              2.981             33.796
 Vibrational            229.044             71.922             75.518
 Vibration     1          0.593              1.986              6.805
 Vibration     2          0.594              1.983              5.564
 Vibration     3          0.595              1.980              5.149
 Vibration     4          0.595              1.978              4.896
 Vibration     5          0.596              1.975              4.589
 Vibration     6          0.599              1.965              3.972
 Vibration     7          0.603              1.954              3.578
 Vibration     8          0.609              1.934              3.122
 Vibration     9          0.614              1.918              2.862
 Vibration    10          0.620              1.895              2.589
 Vibration    11          0.624              1.882              2.463
 Vibration    12          0.636              1.845              2.166
 Vibration    13          0.641              1.830              2.070
 Vibration    14          0.660              1.769              1.759
 Vibration    15          0.666              1.752              1.685
 Vibration    16          0.670              1.739              1.637
 Vibration    17          0.673              1.733              1.612
 Vibration    18          0.674              1.727              1.592
 Vibration    19          0.698              1.659              1.374
 Vibration    20          0.709              1.626              1.287
 Vibration    21          0.717              1.602              1.228
 Vibration    22          0.735              1.555              1.122
 Vibration    23          0.772              1.455              0.937
 Vibration    24          0.780              1.432              0.901
 Vibration    25          0.784              1.424              0.887
 Vibration    26          0.802              1.378              0.820
 Vibration    27          0.816              1.343              0.772
 Vibration    28          0.839              1.288              0.702
 Vibration    29          0.867              1.224              0.629
 Vibration    30          0.926              1.096              0.505
 Vibration    31          0.933              1.083              0.493
 Vibration    32          0.978              0.993              0.419

 Optimization completed.
    -- Stationary point found.
 Normal termination of Gaussian 16 at Mon Dec 14 14:17:45 2020.

 ----------------------------------------------------------------------
 # B3LYP/6-311++G(d,p) empiricaldispersion=gd3bj scf=xqc pop=npa geom=c
 heck
 ----------------------------------------------------------------------

 ----------------------------------------
 CID_118368146_JID_10370_Energie_neutraal
 ----------------------------------------
 Structure from the checkpoint file:  "JID_10370.chk"
 Charge =  0 Multiplicity = 1

 SCF Done:  E(RB3LYP) =  -940.281664757     A.U. after   15 cycles
 Normal termination of Gaussian 16 at Mon Dec 14 14:26:40 2020.

 ----------------------------------------------------------------------
 # B3LYP/6-311++G(d,p) empiricaldispersion=gd3bj scf=xqc pop=npa geom=c
 heck
 ----------------------------------------------------------------------

 --------------------------------------
 CID_118368146_JID_10370_Energie_kation
 --------------------------------------
 Structure from the checkpoint file:  "JID_10370.chk"
 Charge =  1 Multiplicity = 2

 SCF Done:  E(UB3LYP) =  -939.978135001     A.U. after   24 cycles
 Normal termination of Gaussian 16 at Mon Dec 14 14:46:32 2020.
 Gaussian 16:  ES64L-G16RevA.03 25-Dec-2016

 ----------------------------------------------------------------------
 # B3LYP/6-311++G(d,p) empiricaldispersion=gd3bj scf=xqc pop=npa geom=c
 heck
 ----------------------------------------------------------------------

 -------------------------------------
 CID_118368146_JID_10370_Energie_anion
 -------------------------------------
 Structure from the checkpoint file:  "JID_10370.chk"
 Charge = -1 Multiplicity = 2

                         Standard orientation:
 ---------------------------------------------------------------------
 Center     Atomic      Atomic             Coordinates (Angstroms)
 Number     Number       Type             X           Y           Z
 ---------------------------------------------------------------------
      1          6           0        2.937409   -2.017569   -0.824543
      2          6           0        3.050205   -0.523397   -0.526252
      3          6           0        4.374383   -0.208949    0.171493
      4          6           0        2.846034    0.310197   -1.792187
      5          8           0        1.927573   -0.295091    0.402891
      6          6           0        1.699584    0.908607    0.952637
      7          8           0        2.331619    1.921351    0.731310
      8          6           0        0.461789    0.894634    1.846688
      9          6           0       -0.684163    1.623510    1.091070
     10          6           0       -1.071154    1.006705   -0.270236
     11          6           0       -1.666500   -0.393237   -0.176880
     12          6           0       -2.814796   -0.650547    0.583775
     13          6           0       -3.325497   -1.944048    0.677518
     14          6           0       -2.701495   -2.998519    0.007443
     15          6           0       -1.570018   -2.747082   -0.768220
     16          6           0       -1.061349   -1.451300   -0.862659
     17          6           0       -2.026187    1.907532   -1.039595
     18          8           0       -1.929451    2.184737   -2.212664
     19          8           0       -3.043537    2.368620   -0.265348
     20          7           0        0.182050   -0.437619    2.372739
     21          1           0        3.727260   -2.321265   -1.518919
     22          1           0        1.968836   -2.252034   -1.276594
     23          1           0        3.036906   -2.600563    0.096069
     24          1           0        5.205064   -0.516412   -0.473010
     25          1           0        4.466763    0.856811    0.382187
     26          1           0        4.446297   -0.765477    1.111662
     27          1           0        1.877000    0.083916   -2.250565
     28          1           0        2.892258    1.377061   -1.570151
     29          1           0        3.627840    0.066960   -2.519767
     30          1           0        0.719578    1.542976    2.692347
     31          1           0       -1.561705    1.660155    1.744797
     32          1           0       -0.367000    2.659676    0.926847
     33          1           0       -0.182921    0.954294   -0.904756
     34          1           0       -3.312648    0.165789    1.097363
     35          1           0       -4.214247   -2.129203    1.274398
     36          1           0       -3.098341   -4.006527    0.085447
     37          1           0       -1.081162   -3.558071   -1.300723
     38          1           0       -0.178833   -1.257332   -1.463771
     39          1           0       -3.608665    2.900524   -0.856892
     40          1           0       -0.724058   -0.431554    2.836940
     41          1           0        0.108328   -1.102546    1.608101
 ---------------------------------------------------------------------

 SCF Done:  E(UB3LYP) =  -940.272970777     A.U. after   33 cycles
 SCF Done:  E(UB3LYP) =  -940.272970777     a.u. after    1 cycles

 The electronic state is 2-A.
 Alpha  occ. eigenvalues --  -19.08024 -19.07482 -19.02511 -19.02152 -14.20481
 Alpha  occ. eigenvalues --  -10.21689 -10.21155 -10.16357 -10.12841 -10.10614
 Alpha  occ. eigenvalues --  -10.09247 -10.09247 -10.08451 -10.08327 -10.08252
 Alpha  occ. eigenvalues --  -10.08041 -10.07996 -10.07937 -10.07920 -10.07834
 Alpha  occ. eigenvalues --   -1.02019  -1.01568  -0.93727  -0.92701  -0.80925
 Alpha  occ. eigenvalues --   -0.77130  -0.73342  -0.71920  -0.65902  -0.65624
 Alpha  occ. eigenvalues --   -0.62091  -0.61555  -0.61520  -0.57173  -0.53266
 Alpha  occ. eigenvalues --   -0.52314  -0.51482  -0.48673  -0.44061  -0.43222
 Alpha  occ. eigenvalues --   -0.43069  -0.40441  -0.40063  -0.39272  -0.38900
 Alpha  occ. eigenvalues --   -0.37939  -0.37686  -0.36711  -0.35998  -0.35833
 Alpha  occ. eigenvalues --   -0.35121  -0.33775  -0.33199  -0.32987  -0.32495
 Alpha  occ. eigenvalues --   -0.32154  -0.30745  -0.30429  -0.29918  -0.29044
 Alpha  occ. eigenvalues --   -0.28711  -0.28390  -0.27374  -0.26927  -0.26647
 Alpha  occ. eigenvalues --   -0.25597  -0.25073  -0.24626  -0.23089  -0.22218
 Alpha  occ. eigenvalues --   -0.19443  -0.19133  -0.17055  -0.16641  -0.14534
 Alpha  occ. eigenvalues --    0.03896
 Alpha virt. eigenvalues --    0.05292   0.06231   0.06377   0.07219   0.07425
 Alpha virt. eigenvalues --    0.07644   0.08205   0.08372   0.08567   0.09349
 Alpha virt. eigenvalues --    0.09937   0.09979   0.10280   0.10830   0.11361

  Beta  occ. eigenvalues --  -19.08018 -19.07428 -19.02507 -19.02125 -14.20476
  Beta  occ. eigenvalues --  -10.21685 -10.21118 -10.16355 -10.12837 -10.10614
  Beta  occ. eigenvalues --  -10.09222 -10.09170 -10.08456 -10.08305 -10.08243
  Beta  occ. eigenvalues --  -10.07973 -10.07966 -10.07902 -10.07897 -10.07819
  Beta  occ. eigenvalues --   -1.02009  -1.01479  -0.93719  -0.92626  -0.80908
  Beta  occ. eigenvalues --   -0.77032  -0.73327  -0.71843  -0.65825  -0.65541
  Beta  occ. eigenvalues --   -0.62017  -0.61522  -0.61487  -0.57127  -0.53133
  Beta  occ. eigenvalues --   -0.52262  -0.51415  -0.48578  -0.44032  -0.43202
  Beta  occ. eigenvalues --   -0.43007  -0.40414  -0.40029  -0.39222  -0.38859
  Beta  occ. eigenvalues --   -0.37879  -0.37657  -0.36659  -0.35954  -0.35781
  Beta  occ. eigenvalues --   -0.35072  -0.33740  -0.33172  -0.32944  -0.32466
  Beta  occ. eigenvalues --   -0.32108  -0.30707  -0.30371  -0.29880  -0.29003
  Beta  occ. eigenvalues --   -0.28658  -0.28360  -0.27272  -0.26898  -0.26578
  Beta  occ. eigenvalues --   -0.25563  -0.25016  -0.24594  -0.22990  -0.22201
  Beta  occ. eigenvalues --   -0.19348  -0.19119  -0.16868  -0.16484  -0.14347
  Beta virt. eigenvalues --    0.05866   0.06447   0.06693   0.06916   0.07460
  Beta virt. eigenvalues --    0.07835   0.08015   0.08421   0.08573   0.08743
  Beta virt. eigenvalues --    0.09704   0.10125   0.10200   0.10419   0.10876

 Mulliken charges and spin densities:
               1          2
     1  C    0.249890  -0.675961
     2  C   -0.555063   0.530021
     3  C   -0.058322  -0.388866
     4  C   -0.019964  -0.461989
     5  O    0.220381  -0.013200
     6  C   -0.611968  -0.065160
     7  O   -0.184016   0.009484
     8  C   -0.367144   0.158408
     9  C   -0.222124  -0.310930
    10  C    2.169465  -1.767514
    11  C    0.142264   0.715302
    12  C   -0.919219   0.731856
    13  C   -0.030722  -0.654446
    14  C    0.407014  -0.589996
    15  C   -0.509884  -0.043700
    16  C   -0.319011   0.470406
    17  C   -0.482363   0.010049
    18  O   -0.224852  -0.002863
    19  O   -0.193408   0.072183
    20  N   -0.181297  -0.060593
    21  H   -0.206289   0.360958
    22  H    0.059101   0.067311
    23  H    0.024008   0.137420
    24  H   -0.108342   0.277264
    25  H    0.117325   0.063949
    26  H    0.102280   0.043403
    27  H   -0.079209   0.214037
    28  H    0.234298  -0.023045
    29  H   -0.218748   0.386752
    30  H    0.093164   0.143813
    31  H    0.196052   0.039748
    32  H    0.075305   0.141473
    33  H    0.834800  -0.581970
    34  H   -0.151667   0.361032
    35  H   -0.232061   0.398925
    36  H   -0.077885   0.226863
    37  H   -0.234456   0.410139
    38  H    0.142109  -0.006434
    39  H   -0.392660   0.698163
    40  H    0.195501   0.033292
    41  H    0.317717  -0.055584
 Sum of Mulliken charges =  -1.00000   1.00000

 Dipole moment (field-independent basis, Debye):
    X=              2.6931    Y=             -0.9078    Z=              2.8068  Tot=              3.9944
 Quadrupole moment (field-independent basis, Debye-Ang):
   XX=           -202.6118   YY=           -173.5637   ZZ=           -159.2969
   XY=             11.3470   XZ=             -0.3429   YZ=              2.2721

 Summary of Natural Population Analysis:

                                       Natural Population
                Natural  -----------------------------------------------
    Atom  No    Charge         Core      Valence    Rydberg      Total
 -----------------------------------------------------------------------
      C    1   -0.28917      0.99960     2.28230    0.00727     3.28917
      C    2    0.13409      0.99953     1.85259    0.01379     2.86591
      C    3   -0.30205      0.99960     2.29603    0.00642     3.30205
      C    4   -0.30168      0.99960     2.29558    0.00650     3.30168
      O    5   -0.29530      0.99984     3.28402    0.01144     4.29530
      C    6    0.41685      0.99965     1.55744    0.02605     2.58315
      O    7   -0.31286      0.99987     3.30813    0.00486     4.31286
      C    8   -0.05188      0.99956     2.03971    0.01261     3.05188
      C    9   -0.18548      0.99960     2.17573    0.01015     3.18548
      C   10   -0.16496      0.99950     2.15170    0.01375     3.16496
      C   11   -0.00799      0.99949     1.99571    0.01279     3.00799
      C   12   -0.09811      0.99950     2.08826    0.01035     3.09811
      C   13   -0.10191      0.99956     2.09233    0.01002     3.10191
      C   14   -0.09243      0.99956     2.08367    0.00920     3.09243
      C   15   -0.09778      0.99956     2.08811    0.01010     3.09778
      C   16   -0.10078      0.99950     2.09212    0.00916     3.10078
      C   17    0.42224      0.99968     1.55228    0.02581     2.57776
      O   18   -0.30261      0.99987     3.29678    0.00596     4.30261
      O   19   -0.34895      0.99988     3.34153    0.00755     4.34895
      N   20   -0.41833      0.99977     2.91006    0.00850     3.91833
      H   21    0.10392      0.00000     0.39490    0.00117     0.39608
      H   22    0.10409      0.00000     0.39468    0.00123     0.39591
      H   23    0.10416      0.00000     0.39487    0.00097     0.39584
      H   24    0.10432      0.00000     0.39478    0.00090     0.39568
      H   25    0.11348      0.00000     0.38567    0.00085     0.38652
      H   26    0.10280      0.00000     0.39638    0.00082     0.39720
      H   27    0.10263      0.00000     0.39626    0.00111     0.39737
      H   28    0.11372      0.00000     0.38539    0.00089     0.38628
      H   29    0.10480      0.00000     0.39434    0.00086     0.39520
      H   30    0.10271      0.00000     0.39585    0.00144     0.39729
      H   31    0.10545      0.00000     0.39315    0.00140     0.39455
      H   32    0.10940      0.00000     0.38951    0.00109     0.39060
      H   33    0.11365      0.00000     0.38404    0.00231     0.38635
      H   34    0.10745      0.00000     0.39086    0.00169     0.39255
      H   35    0.10027      0.00000     0.39882    0.00091     0.39973
      H   36    0.09898      0.00000     0.40019    0.00082     0.40102
      H   37    0.10062      0.00000     0.39847    0.00091     0.39938
      H   38    0.10067      0.00000     0.39740    0.00193     0.39933
      H   39    0.24487      0.00000     0.23973    0.01540     0.25513
      H   40    0.17475      0.00000     0.32345    0.00180     0.32525
      H   41    0.18633      0.00000     0.31131    0.00236     0.31367
 =======================================================================
   * Total *    0.00000     19.99270    54.74417    0.26314    75.00000

 Normal termination of Gaussian 16 at Mon Dec 14 15:13:17 2020.
