 Gaussian 16, Revision A.03,

 -----------------------------------------------------------
 # opt freq B3LYP/6-31G(d) empiricaldispersion=gd3bj scf=xqc
 -----------------------------------------------------------

 ------------------------------
 CID_21147586_JID_2841_neutraal
 ------------------------------
 Symbolic Z-matrix:
 Charge =  0 Multiplicity = 1

 SCF Done:  E(RB3LYP) =  -968.051573084     A.U. after   15 cycles
 SCF Done:  E(RB3LYP) =  -968.059461309     A.U. after   13 cycles
 SCF Done:  E(RB3LYP) =  -968.060210581     A.U. after   12 cycles
 SCF Done:  E(RB3LYP) =  -968.060439522     A.U. after   12 cycles
 SCF Done:  E(RB3LYP) =  -968.060613491     A.U. after   12 cycles
 SCF Done:  E(RB3LYP) =  -968.060633470     A.U. after   11 cycles
 SCF Done:  E(RB3LYP) =  -968.060656697     A.U. after   11 cycles
 SCF Done:  E(RB3LYP) =  -968.060695645     A.U. after   12 cycles
 SCF Done:  E(RB3LYP) =  -968.060724850     A.U. after   12 cycles
 SCF Done:  E(RB3LYP) =  -968.060760950     A.U. after   12 cycles
 SCF Done:  E(RB3LYP) =  -968.060909506     A.U. after   11 cycles
 SCF Done:  E(RB3LYP) =  -968.060909682     A.U. after    7 cycles
 SCF Done:  E(RB3LYP) =  -968.060909735     A.U. after    8 cycles
 SCF Done:  E(RB3LYP) =  -968.060909814     A.U. after    7 cycles
 SCF Done:  E(RB3LYP) =  -968.060909851     A.U. after    7 cycles
 Optimization completed.
    -- Stationary point found.
 Normal termination of Gaussian 16 at Wed Dec  9 18:11:44 2020.

 --------------------------------------------------------------------
 #N Geom=AllCheck Guess=TCheck SCRF=Check GenChk RB3LYP/6-31G(d) Freq
 --------------------------------------------------------------------

 Structure from the checkpoint file:  "JID_2841.chk"
 ------------------------------
 CID_21147586_JID_2841_neutraal
 ------------------------------
 Charge =  0 Multiplicity = 1

 SCF Done:  E(RB3LYP) =  -968.060909851     A.U. after    1 cycles

  Exact polarizability: 120.684   8.619 104.454   5.641  -1.902  68.739
 Approx polarizability: 159.972  19.719 181.338   8.168  -7.121 107.441

                      1                      2                      3
                      A                      A                      A
 Frequencies --     28.7038                53.7995                78.2127
 Red. masses --      5.6522                 3.6515                 5.4521
 Frc consts  --      0.0027                 0.0062                 0.0197
 IR Inten    --      0.6994                 1.1100                 0.9574

                      4                      5                      6
                      A                      A                      A
 Frequencies --    139.9812               155.0435               158.6912
 Red. masses --      5.0081                 3.9657                 3.0981
 Frc consts  --      0.0578                 0.0562                 0.0460
 IR Inten    --      3.3169                 0.1612                 8.9952

                      7                      8                      9
                      A                      A                      A
 Frequencies --    195.8559               209.5515               261.2201
 Red. masses --      2.4694                 7.5447                 1.6400
 Frc consts  --      0.0558                 0.1952                 0.0659
 IR Inten    --      2.7028                 3.2414                 4.9948

                     10                     11                     12
                      A                      A                      A
 Frequencies --    302.2258               361.8958               380.3723
 Red. masses --      4.2288                 3.8049                 6.0252
 Frc consts  --      0.2276                 0.2936                 0.5136
 IR Inten    --      9.3033                 3.1855                18.9961

                     13                     14                     15
                      A                      A                      A
 Frequencies --    414.9083               478.2182               562.8230
 Red. masses --      5.6347                 3.3916                 1.2553
 Frc consts  --      0.5715                 0.4570                 0.2343
 IR Inten    --     11.2770                 2.9123                39.6287

                     16                     17                     18
                      A                      A                      A
 Frequencies --    585.2887               613.8314               630.6119
 Red. masses --      3.6517                 3.2460                 7.3739
 Frc consts  --      0.7370                 0.7206                 1.7277
 IR Inten    --     12.6838                25.9576                22.5834

                     19                     20                     21
                      A                      A                      A
 Frequencies --    646.6625               671.6006               721.6205
 Red. masses --      1.8145                 3.6337                 2.1840
 Frc consts  --      0.4471                 0.9657                 0.6701
 IR Inten    --    114.4528                 8.8019                88.2100

                     22                     23                     24
                      A                      A                      A
 Frequencies --    744.8526               755.5617               792.6475
 Red. masses --      5.3428                 5.9585                 1.2120
 Frc consts  --      1.7465                 2.0041                 0.4487
 IR Inten    --      3.7402                 8.7716                12.7134

                     25                     26                     27
                      A                      A                      A
 Frequencies --    871.7158               947.3053               978.4538
 Red. masses --      2.5811                 2.6411                 2.7052
 Frc consts  --      1.1556                 1.3964                 1.5259
 IR Inten    --     20.8378                 4.4576                15.6936

                     28                     29                     30
                      A                      A                      A
 Frequencies --    993.9205              1019.7936              1043.9228
 Red. masses --      1.8469                 2.6042                 6.6200
 Frc consts  --      1.0750                 1.5957                 4.2505
 IR Inten    --      4.6210                28.1995                70.4403

                     31                     32                     33
                      A                      A                      A
 Frequencies --   1070.8930              1082.3359              1137.7473
 Red. masses --      1.4482                 1.9315                 2.3375
 Frc consts  --      0.9785                 1.3331                 1.7827
 IR Inten    --      3.7366                12.1067                31.5187

                     34                     35                     36
                      A                      A                      A
 Frequencies --   1210.8697              1212.9483              1256.6989
 Red. masses --      1.9698                 1.4726                 1.3242
 Frc consts  --      1.7016                 1.2765                 1.2321
 IR Inten    --     30.9072                22.9474                10.4534

                     37                     38                     39
                      A                      A                      A
 Frequencies --   1266.2652              1309.9676              1320.2930
 Red. masses --      1.2553                 1.6658                 1.5352
 Frc consts  --      1.1859                 1.6842                 1.5767
 IR Inten    --      1.5883                99.0253                44.4102

                     40                     41                     42
                      A                      A                      A
 Frequencies --   1356.3139              1378.8141              1407.7123
 Red. masses --      1.9217                 1.5940                 2.3683
 Frc consts  --      2.0828                 1.7855                 2.7651
 IR Inten    --     49.8232                42.9436                93.5749

                     43                     44                     45
                      A                      A                      A
 Frequencies --   1438.1157              1444.3950              1477.8448
 Red. masses --      1.9726                 1.2284                 1.0970
 Frc consts  --      2.4036                 1.5100                 1.4116
 IR Inten    --     83.5410                 5.6529                12.6265

                     46                     47                     48
                      A                      A                      A
 Frequencies --   1506.1107              1528.2799              1534.1872
 Red. masses --      1.0868                 1.0435                 1.0434
 Frc consts  --      1.4525                 1.4360                 1.4470
 IR Inten    --      6.9109                 7.3171                 6.1595

                     49                     50                     51
                      A                      A                      A
 Frequencies --   1851.2346              1894.0698              3059.0805
 Red. masses --     10.2012                11.4662                 1.0827
 Frc consts  --     20.5980                24.2360                 5.9695
 IR Inten    --    688.2821               375.5780                18.8316

                     52                     53                     54
                      A                      A                      A
 Frequencies --   3060.7542              3082.5679              3089.8299
 Red. masses --      1.0362                 1.0595                 1.0597
 Frc consts  --      5.7192                 5.9317                 5.9608
 IR Inten    --     14.4416                 5.1436                 4.1682

                     55                     56                     57
                      A                      A                      A
 Frequencies --   3122.2536              3130.6939              3142.1444
 Red. masses --      1.1040                 1.1026                 1.1051
 Frc consts  --      6.3411                 6.3674                 6.4285
 IR Inten    --      1.9994                13.7559                22.5638

                     58                     59                     60
                      A                      A                      A
 Frequencies --   3151.8824              3534.5199              3649.4033
 Red. masses --      1.1053                 1.0804                 1.0799
 Frc consts  --      6.4694                 7.9523                 8.4740
 IR Inten    --      2.0496               197.5610                77.0532

 - Thermochemistry -
 -------------------
 Temperature   298.150 Kelvin.  Pressure   1.00000 Atm.
 Atom     1 has atomic number  6 and mass  12.00000

 Molecular mass:   190.04121 amu.
 Principal axes and moments of inertia in atomic units:
                           1         2         3
     Eigenvalues --  1375.230933294.374194267.76672
           X            0.99955   0.02629   0.01448
           Y           -0.02634   0.99965   0.00298
           Z           -0.01439  -0.00336   0.99989
 This molecule is an asymmetric top.
 Rotational symmetry number  1.
 Warning -- assumption of classical behavior for rotation
           may cause significant error
 Rotational temperatures (Kelvin)      0.06298     0.02629     0.02029
 Rotational constants (GHZ):           1.31232     0.54783     0.42288
 Zero-point vibrational energy     451635.3 (Joules/Mol)
                                  107.94342 (Kcal/Mol)
 Warning -- explicit consideration of  17 degrees of freedom as
           vibrations may cause significant error
 Vibrational temperatures:     41.30    77.41   112.53   201.40   223.07
          (Kelvin)            228.32   281.79   301.50   375.84   434.84
                              520.69   547.27   596.96   688.05   809.78
                              842.10   883.17   907.31   930.40   966.28
                             1038.25  1071.68  1087.08  1140.44  1254.20
                             1362.96  1407.78  1430.03  1467.26  1501.97
                             1540.78  1557.24  1636.96  1742.17  1745.16
                             1808.11  1821.87  1884.75  1899.61  1951.43
                             1983.81  2025.38  2069.13  2078.16  2126.29
                             2166.96  2198.85  2207.35  2663.51  2725.14
                             4401.33  4403.74  4435.13  4445.58  4492.23
                             4504.37  4520.85  4534.86  5085.39  5250.68

 Zero-point correction=                           0.172019 (Hartree/Particle)
 Thermal correction to Energy=                    0.184215
 Thermal correction to Enthalpy=                  0.185159
 Thermal correction to Gibbs Free Energy=         0.132315
 Sum of electronic and zero-point Energies=           -967.888891
 Sum of electronic and thermal Energies=              -967.876695
 Sum of electronic and thermal Enthalpies=            -967.875751
 Sum of electronic and thermal Free Energies=         -967.928595

                     E (Thermal)             CV                S
                      KCal/Mol        Cal/Mol-Kelvin    Cal/Mol-Kelvin
 Total                  115.597             44.527            111.220
 Electronic               0.000              0.000              0.000
 Translational            0.889              2.981             41.632
 Rotational               0.889              2.981             31.337
 Vibrational            113.819             38.565             38.251
 Vibration     1          0.593              1.984              5.917
 Vibration     2          0.596              1.976              4.673
 Vibration     3          0.600              1.964              3.935
 Vibration     4          0.615              1.913              2.804
 Vibration     5          0.620              1.897              2.609
 Vibration     6          0.621              1.893              2.565
 Vibration     7          0.636              1.846              2.172
 Vibration     8          0.642              1.826              2.048
 Vibration     9          0.669              1.744              1.654
 Vibration    10          0.694              1.669              1.405
 Vibration    11          0.736              1.551              1.114
 Vibration    12          0.750              1.512              1.038
 Vibration    13          0.778              1.438              0.909
 Vibration    14          0.835              1.298              0.715
 Vibration    15          0.919              1.112              0.518
 Vibration    16          0.942              1.063              0.476
 Vibration    17          0.973              1.003              0.426

 Optimization completed.
    -- Stationary point found.
 Normal termination of Gaussian 16 at Wed Dec  9 18:16:53 2020.

 ----------------------------------------------------------------------
 # B3LYP/6-311++G(d,p) empiricaldispersion=gd3bj scf=xqc pop=npa geom=c
 heck
 ----------------------------------------------------------------------

 --------------------------------------
 CID_21147586_JID_2841_Energie_neutraal
 --------------------------------------
 Structure from the checkpoint file:  "JID_2841.chk"
 Charge =  0 Multiplicity = 1

 SCF Done:  E(RB3LYP) =  -968.267102140     A.U. after   15 cycles
 Normal termination of Gaussian 16 at Wed Dec  9 18:19:03 2020.

 ----------------------------------------------------------------------
 # B3LYP/6-311++G(d,p) empiricaldispersion=gd3bj scf=xqc pop=npa geom=c
 heck
 ----------------------------------------------------------------------

 ------------------------------------
 CID_21147586_JID_2841_Energie_kation
 ------------------------------------
 Structure from the checkpoint file:  "JID_2841.chk"
 Charge =  1 Multiplicity = 2

 SCF Done:  E(UB3LYP) =  -967.936003185     A.U. after   27 cycles
 Normal termination of Gaussian 16 at Wed Dec  9 18:25:08 2020.
 Gaussian 16:  ES64L-G16RevA.03 25-Dec-2016

 ----------------------------------------------------------------------
 # B3LYP/6-311++G(d,p) empiricaldispersion=gd3bj scf=xqc pop=npa geom=c
 heck
 ----------------------------------------------------------------------

 -----------------------------------
 CID_21147586_JID_2841_Energie_anion
 -----------------------------------
 Structure from the checkpoint file:  "JID_2841.chk"
 Charge = -1 Multiplicity = 2

                         Standard orientation:
 ---------------------------------------------------------------------
 Center     Atomic      Atomic             Coordinates (Angstroms)
 Number     Number       Type             X           Y           Z
 ---------------------------------------------------------------------
      1          6           0        3.211402    1.424913    0.562663
      2          6           0        2.710372    0.007429    0.821878
      3         16           0        1.933011   -0.782886   -0.651357
      4          8           0        1.316983   -2.086416   -0.159892
      5          6           0        0.531156    0.393402   -0.907802
      6          6           0       -0.446733    0.443764    0.266437
      7          6           0       -1.617046    1.390401   -0.057514
      8          8           0       -1.536591    2.575234   -0.306948
      9          7           0       -2.734857    0.596544   -0.020974
     10          6           0       -2.455581   -0.768742    0.265765
     11          8           0       -3.273415   -1.661089    0.270978
     12          7           0       -1.110862   -0.819119    0.530294
     13          1           0        3.813653    1.476508   -0.351272
     14          1           0        3.843939    1.751312    1.394137
     15          1           0        2.389204    2.141156    0.472707
     16          1           0        3.533304   -0.674419    1.058681
     17          1           0        1.991508   -0.052887    1.644790
     18          1           0        0.935321    1.386206   -1.123685
     19          1           0        0.023506    0.021183   -1.803068
     20          1           0        0.056954    0.829483    1.161244
     21          1           0       -3.673260    0.921399   -0.208900
     22          1           0       -0.579523   -1.684583    0.470166
 ---------------------------------------------------------------------

 SCF Done:  E(UB3LYP) =  -968.261881104     A.U. after   33 cycles
 SCF Done:  E(UB3LYP) =  -968.261881104     a.u. after    1 cycles

 The electronic state is 2-A.
 Alpha  occ. eigenvalues --  -88.85170 -19.00928 -19.00636 -18.99012 -14.26755
 Alpha  occ. eigenvalues --  -14.24232 -10.21510 -10.18543 -10.13938 -10.11780
 Alpha  occ. eigenvalues --  -10.10252 -10.06828  -7.92905  -5.89181  -5.89040
 Alpha  occ. eigenvalues --   -5.88488  -0.98060  -0.95307  -0.91988  -0.88279
 Alpha  occ. eigenvalues --   -0.81002  -0.71890  -0.67914  -0.61422  -0.56615
 Alpha  occ. eigenvalues --   -0.55226  -0.52572  -0.49142  -0.43476  -0.40761
 Alpha  occ. eigenvalues --   -0.40398  -0.38234  -0.37339  -0.35821  -0.34511
 Alpha  occ. eigenvalues --   -0.33589  -0.33394  -0.32995  -0.30833  -0.30175
 Alpha  occ. eigenvalues --   -0.29678  -0.28098  -0.26907  -0.25616  -0.20354
 Alpha  occ. eigenvalues --   -0.20000  -0.18678  -0.17341  -0.16937  -0.14270
 Alpha  occ. eigenvalues --    0.04432
 Alpha virt. eigenvalues --    0.07003   0.07356   0.08059   0.09264   0.09640
 Alpha virt. eigenvalues --    0.10405   0.10748   0.11821   0.12276   0.12816
 Alpha virt. eigenvalues --    0.13120   0.14015   0.14388   0.14741   0.15534

  Beta  occ. eigenvalues --  -88.85156 -19.00816 -19.00596 -18.98974 -14.26759
  Beta  occ. eigenvalues --  -14.24234 -10.21472 -10.18363 -10.13939 -10.11739
  Beta  occ. eigenvalues --  -10.10219 -10.06731  -7.92891  -5.89148  -5.89031
  Beta  occ. eigenvalues --   -5.88467  -0.97944  -0.95115  -0.91896  -0.88202
  Beta  occ. eigenvalues --   -0.80974  -0.71801  -0.67815  -0.61263  -0.56455
  Beta  occ. eigenvalues --   -0.55169  -0.52419  -0.49012  -0.43393  -0.40663
  Beta  occ. eigenvalues --   -0.40258  -0.38099  -0.37214  -0.35729  -0.34395
  Beta  occ. eigenvalues --   -0.33496  -0.33258  -0.32859  -0.30531  -0.30055
  Beta  occ. eigenvalues --   -0.29311  -0.28013  -0.26822  -0.25530  -0.20267
  Beta  occ. eigenvalues --   -0.19739  -0.18623  -0.17273  -0.16840  -0.14155
  Beta virt. eigenvalues --    0.07169   0.07861   0.08433   0.08575   0.09654
  Beta virt. eigenvalues --    0.10204   0.11113   0.11446   0.12004   0.12410
  Beta virt. eigenvalues --    0.12870   0.13471   0.14357   0.14710   0.15182

 Mulliken charges and spin densities:
               1          2
     1  C    2.499606  -3.129505
     2  C   -1.499257   1.193241
     3  S    0.963094  -0.329800
     4  O   -0.486338   0.003772
     5  C   -0.301141  -0.502606
     6  C   -0.058955   0.150226
     7  C    0.462914  -0.418999
     8  O   -0.371496   0.053752
     9  N   -0.295216  -0.012384
    10  C    0.293667  -0.040347
    11  O   -0.407205   0.013661
    12  N   -0.298691   0.010533
    13  H   -0.495420   0.652776
    14  H   -0.995634   1.173161
    15  H   -0.304604   0.487002
    16  H   -0.428070   0.665735
    17  H    0.055395   0.155413
    18  H    0.214775   0.011078
    19  H    0.149102   0.116964
    20  H   -0.395489   0.706960
    21  H    0.290613   0.046174
    22  H    0.408349  -0.006808
 Sum of Mulliken charges =  -1.00000   1.00000

 Dipole moment (field-independent basis, Debye):
    X=             -6.5388    Y=             -2.0967    Z=             -4.1091  Tot=              8.0023
 Quadrupole moment (field-independent basis, Debye-Ang):
   XX=           -150.8785   YY=           -128.4092   ZZ=           -103.2932
   XY=            -17.6059   XZ=            -10.6084   YZ=             -4.8873

 Summary of Natural Population Analysis:

                                       Natural Population
                Natural  -----------------------------------------------
    Atom  No    Charge         Core      Valence    Rydberg      Total
 -----------------------------------------------------------------------
      C    1   -0.29904      0.99965     2.29203    0.00736     3.29904
      C    2   -0.27692      0.99961     2.26299    0.01431     3.27692
      S    3    0.59213      4.99943     2.35625    0.05218     7.40787
      O    4   -0.49596      0.99993     3.48993    0.00610     4.49596
      C    5   -0.27872      0.99956     2.26721    0.01196     3.27872
      C    6   -0.05813      0.99956     2.04499    0.01358     3.05813
      C    7    0.36811      0.99968     1.60921    0.02300     2.63189
      O    8   -0.29586      0.99987     3.29010    0.00590     4.29586
      N    9   -0.33420      0.99964     2.82703    0.00753     3.83420
      C   10    0.41099      0.99972     1.56512    0.02417     2.58901
      O   11   -0.31617      0.99987     3.31088    0.00542     4.31617
      N   12   -0.33662      0.99966     2.82750    0.00945     3.83662
      H   13    0.10253      0.00000     0.39456    0.00291     0.39747
      H   14    0.11785      0.00000     0.37304    0.00911     0.38215
      H   15    0.10228      0.00000     0.39557    0.00215     0.39772
      H   16    0.11272      0.00000     0.38522    0.00206     0.38728
      H   17    0.10962      0.00000     0.38878    0.00161     0.39038
      H   18    0.12299      0.00000     0.37539    0.00162     0.37701
      H   19    0.10982      0.00000     0.38900    0.00118     0.39018
      H   20    0.11619      0.00000     0.38141    0.00240     0.38381
      H   21    0.20364      0.00000     0.29416    0.00220     0.29636
      H   22    0.22275      0.00000     0.27560    0.00165     0.27725
 =======================================================================
   * Total *    0.00000     15.99620    33.79598    0.20783    50.00000

 Normal termination of Gaussian 16 at Wed Dec  9 18:31:38 2020.
