 Gaussian 16, Revision A.03,

 -----------------------------------------------------------
 # opt freq B3LYP/6-31G(d) empiricaldispersion=gd3bj scf=xqc
 -----------------------------------------------------------

 -------------------------------
 CID_68976029_JID_10425_neutraal
 -------------------------------
 Symbolic Z-matrix:
 Charge =  0 Multiplicity = 1

 SCF Done:  E(RB3LYP) =  -1224.60278594     A.U. after   15 cycles
 SCF Done:  E(RB3LYP) =  -1224.61183716     A.U. after   13 cycles
 SCF Done:  E(RB3LYP) =  -1224.61261581     A.U. after   12 cycles
 SCF Done:  E(RB3LYP) =  -1224.61243712     A.U. after   12 cycles
 SCF Done:  E(RB3LYP) =  -1224.61316719     A.U. after   12 cycles
 SCF Done:  E(RB3LYP) =  -1224.61326823     A.U. after   12 cycles
 SCF Done:  E(RB3LYP) =  -1224.61329852     A.U. after   11 cycles
 SCF Done:  E(RB3LYP) =  -1224.61333057     A.U. after   11 cycles
 SCF Done:  E(RB3LYP) =  -1224.61334942     A.U. after   11 cycles
 SCF Done:  E(RB3LYP) =  -1224.61335965     A.U. after   10 cycles
 SCF Done:  E(RB3LYP) =  -1224.61415688     A.U. after   11 cycles
 SCF Done:  E(RB3LYP) =  -1224.61416095     A.U. after    9 cycles
 SCF Done:  E(RB3LYP) =  -1224.61416248     A.U. after    9 cycles
 SCF Done:  E(RB3LYP) =  -1224.61416258     A.U. after    7 cycles
 SCF Done:  E(RB3LYP) =  -1224.61416260     A.U. after    7 cycles
 Optimization completed.
    -- Stationary point found.
 Normal termination of Gaussian 16 at Sat Dec 12 15:57:12 2020.

 --------------------------------------------------------------------
 #N Geom=AllCheck Guess=TCheck SCRF=Check GenChk RB3LYP/6-31G(d) Freq
 --------------------------------------------------------------------

 Structure from the checkpoint file:  "JID_10425.chk"
 -------------------------------
 CID_68976029_JID_10425_neutraal
 -------------------------------
 Charge =  0 Multiplicity = 1

 SCF Done:  E(RB3LYP) =  -1224.61416260     A.U. after    1 cycles

  Exact polarizability: 277.750  -7.304 173.580  -0.287  -9.180 140.162
 Approx polarizability: 401.047 -19.219 255.922   6.192 -17.370 226.767

                      1                      2                      3
                      A                      A                      A
 Frequencies --     17.8786                21.3872                32.9969
 Red. masses --      4.2702                 4.0961                 3.5240
 Frc consts  --      0.0008                 0.0011                 0.0023
 IR Inten    --      0.0453                 0.0118                 0.0414

                      4                      5                      6
                      A                      A                      A
 Frequencies --     39.0704                65.8338                75.8138
 Red. masses --      5.7669                 5.5592                 4.6171
 Frc consts  --      0.0052                 0.0142                 0.0156
 IR Inten    --      0.1587                 0.2611                 4.8706

                      7                      8                      9
                      A                      A                      A
 Frequencies --     93.5727               129.4202               154.7159
 Red. masses --      4.0516                 4.8259                 4.4678
 Frc consts  --      0.0209                 0.0476                 0.0630
 IR Inten    --      0.2918                 0.8278                 2.5811

                     10                     11                     12
                      A                      A                      A
 Frequencies --    189.6654               210.5014               214.8116
 Red. masses --      4.4731                 1.1105                 4.2256
 Frc consts  --      0.0948                 0.0290                 0.1149
 IR Inten    --      3.2683                 0.1860                 0.6911

                     13                     14                     15
                      A                      A                      A
 Frequencies --    248.8736               259.9860               274.7772
 Red. masses --      1.8935                 1.6410                 1.0715
 Frc consts  --      0.0691                 0.0654                 0.0477
 IR Inten    --      0.3250                 0.6727                 0.0610

                     16                     17                     18
                      A                      A                      A
 Frequencies --    297.8684               304.1505               338.1403
 Red. masses --      4.5894                 3.8910                 3.5374
 Frc consts  --      0.2399                 0.2121                 0.2383
 IR Inten    --      1.2881                 0.1995                 6.9090

                     19                     20                     21
                      A                      A                      A
 Frequencies --    351.7280               353.4449               400.2557
 Red. masses --      2.5221                 2.6494                 3.3214
 Frc consts  --      0.1838                 0.1950                 0.3135
 IR Inten    --      1.6301                10.2815                 0.6316

                     22                     23                     24
                      A                      A                      A
 Frequencies --    416.6320               440.3183               452.1931
 Red. masses --      2.9837                 3.2609                 3.8804
 Frc consts  --      0.3051                 0.3725                 0.4675
 IR Inten    --      0.1346                 4.5394                 0.8981

                     25                     26                     27
                      A                      A                      A
 Frequencies --    459.8860               469.9535               499.3620
 Red. masses --      2.9947                 3.2945                 3.7044
 Frc consts  --      0.3732                 0.4287                 0.5442
 IR Inten    --      2.9634                 1.5613                12.3102

                     28                     29                     30
                      A                      A                      A
 Frequencies --    515.7623               546.1127               596.8363
 Red. masses --      3.3113                 5.5980                 8.1656
 Frc consts  --      0.5190                 0.9837                 1.7137
 IR Inten    --     10.1728                 7.8952                 0.4127

                     31                     32                     33
                      A                      A                      A
 Frequencies --    634.6474               639.4455               670.7087
 Red. masses --      5.0898                 5.3822                 4.7656
 Frc consts  --      1.2078                 1.2966                 1.2631
 IR Inten    --      8.9355                 6.2849                 7.0131

                     34                     35                     36
                      A                      A                      A
 Frequencies --    712.5321               715.2747               735.6507
 Red. masses --      1.7373                 1.6918                 3.6857
 Frc consts  --      0.5197                 0.5100                 1.1752
 IR Inten    --     22.8829                45.2609                21.1414

                     37                     38                     39
                      A                      A                      A
 Frequencies --    745.8783               765.6010               772.4870
 Red. masses --      8.4475                 2.3418                 3.1799
 Frc consts  --      2.7690                 0.8087                 1.1180
 IR Inten    --     14.2139                 6.4134                10.2869

                     40                     41                     42
                      A                      A                      A
 Frequencies --    811.6043               830.2484               860.5706
 Red. masses --      2.1978                 5.5484                 1.2501
 Frc consts  --      0.8529                 2.2534                 0.5455
 IR Inten    --      9.1372                 2.0904                 0.0414

                     43                     44                     45
                      A                      A                      A
 Frequencies --    866.4052               881.7134               916.6639
 Red. masses --      2.0760                 3.4477                 1.6265
 Frc consts  --      0.9181                 1.5792                 0.8053
 IR Inten    --      9.5872                31.8008                18.5575

                     46                     47                     48
                      A                      A                      A
 Frequencies --    924.1532               936.2988               938.1928
 Red. masses --      1.3261                 2.0572                 1.6318
 Frc consts  --      0.6673                 1.0626                 0.8463
 IR Inten    --     14.6779                44.8761                 0.1017

                     49                     50                     51
                      A                      A                      A
 Frequencies --    940.7923               967.5326               972.5686
 Red. masses --      1.7044                 1.3499                 2.2971
 Frc consts  --      0.8888                 0.7445                 1.2802
 IR Inten    --      9.8820                 0.3096                44.3117

                     52                     53                     54
                      A                      A                      A
 Frequencies --    983.8937               995.5032              1022.8644
 Red. masses --      1.1984                 1.2609                 6.2031
 Frc consts  --      0.6835                 0.7362                 3.8238
 IR Inten    --      0.2332                 0.2695                 1.5926

                     55                     56                     57
                      A                      A                      A
 Frequencies --   1061.0044              1067.5274              1071.4482
 Red. masses --      2.2298                 1.4032                 1.4420
 Frc consts  --      1.4789                 0.9421                 0.9753
 IR Inten    --      5.6328                 0.2315                 0.8169

                     58                     59                     60
                      A                      A                      A
 Frequencies --   1112.2807              1115.0170              1168.7118
 Red. masses --      3.8700                 1.5740                 4.0814
 Frc consts  --      2.8209                 1.1530                 3.2846
 IR Inten    --      1.7305                 6.2843               366.8182

                     61                     62                     63
                      A                      A                      A
 Frequencies --   1190.2596              1193.7834              1214.9401
 Red. masses --      1.4271                 1.1013                 1.1356
 Frc consts  --      1.1912                 0.9247                 0.9876
 IR Inten    --      9.5643                 0.1629                 2.9116

                     64                     65                     66
                      A                      A                      A
 Frequencies --   1217.4242              1228.0714              1228.9272
 Red. masses --      1.5671                 2.6093                 1.5218
 Frc consts  --      1.3684                 2.3185                 1.3542
 IR Inten    --    285.4632                 4.4663                31.4761

                     67                     68                     69
                      A                      A                      A
 Frequencies --   1287.9070              1297.6417              1305.8749
 Red. masses --      2.7017                 2.6678                 1.9719
 Frc consts  --      2.6403                 2.6468                 1.9812
 IR Inten    --     14.9862                48.7522                12.2728

                     70                     71                     72
                      A                      A                      A
 Frequencies --   1338.3717              1358.2341              1368.0345
 Red. masses --      1.9520                 1.5900                 2.7370
 Frc consts  --      2.0600                 1.7282                 3.0180
 IR Inten    --      7.2743                90.7462                13.3580

                     73                     74                     75
                      A                      A                      A
 Frequencies --   1372.7930              1380.3757              1411.1243
 Red. masses --      2.4733                 1.5233                 2.4094
 Frc consts  --      2.7462                 1.7102                 2.8268
 IR Inten    --    511.8831                 2.2974               343.7953

                     76                     77                     78
                      A                      A                      A
 Frequencies --   1425.0441              1427.9454              1453.0894
 Red. masses --      1.2835                 1.2988                 1.2377
 Frc consts  --      1.5357                 1.5603                 1.5398
 IR Inten    --     19.1726                47.2910                24.8879

                     79                     80                     81
                      A                      A                      A
 Frequencies --   1494.6810              1499.9578              1506.9163
 Red. masses --      1.2207                 1.0465                 1.8403
 Frc consts  --      1.6068                 1.3872                 2.4622
 IR Inten    --      1.9401                 0.5336                12.0283

                     82                     83                     84
                      A                      A                      A
 Frequencies --   1519.8679              1520.7077              1524.8716
 Red. masses --      1.0469                 1.0516                 1.0674
 Frc consts  --      1.4249                 1.4328                 1.4623
 IR Inten    --      0.4181                 0.6753                22.3337

                     85                     86                     87
                      A                      A                      A
 Frequencies --   1534.9499              1548.0860              1557.2120
 Red. masses --      1.0524                 2.2152                 1.0559
 Frc consts  --      1.4609                 3.1279                 1.5086
 IR Inten    --      1.2714                 9.6989                17.5547

                     88                     89                     90
                      A                      A                      A
 Frequencies --   1648.7314              1668.1141              1696.7613
 Red. masses --      5.6090                 5.5861                 7.9251
 Frc consts  --      8.9833                 9.1581                13.4429
 IR Inten    --      0.8862                 3.3604                57.6393

                     91                     92                     93
                      A                      A                      A
 Frequencies --   1759.3547              1789.8586              3036.9957
 Red. masses --      7.4368                11.4845                 1.0589
 Frc consts  --     13.5625                21.6770                 5.7544
 IR Inten    --     49.7723               449.4682                22.6529

                     94                     95                     96
                      A                      A                      A
 Frequencies --   3059.1207              3061.1874              3068.0501
 Red. masses --      1.0354                 1.0382                 1.0385
 Frc consts  --      5.7091                 5.7319                 5.7594
 IR Inten    --      9.0076                22.7982                20.1059

                     97                     98                     99
                      A                      A                      A
 Frequencies --   3076.6532              3123.3560              3125.8406
 Red. masses --      1.1037                 1.1027                 1.1024
 Frc consts  --      6.1553                 6.3378                 6.3465
 IR Inten    --     13.9335                 6.7623                18.6693

                    100                    101                    102
                      A                      A                      A
 Frequencies --   3134.8280              3139.5563              3174.8030
 Red. masses --      1.1031                 1.1025                 1.0998
 Frc consts  --      6.3872                 6.4030                 6.5313
 IR Inten    --     31.4447                51.8022                 0.6671

                    103                    104                    105
                      A                      A                      A
 Frequencies --   3177.7466              3178.0593              3182.5185
 Red. masses --      1.0992                 1.0856                 1.0870
 Frc consts  --      6.5400                 6.4601                 6.4865
 IR Inten    --      9.5668                 5.9493                 1.0350

                    106                    107                    108
                      A                      A                      A
 Frequencies --   3191.6379              3199.9602              3210.7862
 Red. masses --      1.0904                 1.0942                 1.0980
 Frc consts  --      6.5440                 6.6013                 6.6694
 IR Inten    --     10.2842                39.2307                25.3111

                    109                    110                    111
                      A                      A                      A
 Frequencies --   3231.9646              3253.8379              3258.5161
 Red. masses --      1.0878                 1.0903                 1.0964
 Frc consts  --      6.6950                 6.8013                 6.8587
 IR Inten    --      6.8353                 5.7913                 5.7789

 - Thermochemistry -
 -------------------
 Temperature   298.150 Kelvin.  Pressure   1.00000 Atm.
 Atom     1 has atomic number  6 and mass  12.00000

 Molecular mass:   289.11365 amu.
 Principal axes and moments of inertia in atomic units:
                           1         2         3
     Eigenvalues --  3298.52711********************
           X            0.99993  -0.01203  -0.00051
           Y            0.01202   0.99990  -0.00789
           Z            0.00060   0.00788   0.99997
 This molecule is an asymmetric top.
 Rotational symmetry number  1.
 Warning -- assumption of classical behavior for rotation
           may cause significant error
 Rotational temperatures (Kelvin)      0.02626     0.00751     0.00638
 Rotational constants (GHZ):           0.54714     0.15641     0.13303
 Zero-point vibrational energy     844351.2 (Joules/Mol)
                                  201.80478 (Kcal/Mol)
 Warning -- explicit consideration of  30 degrees of freedom as
           vibrations may cause significant error
 Vibrational temperatures:     25.72    30.77    47.48    56.21    94.72
          (Kelvin)            109.08   134.63   186.21   222.60   272.89
                              302.86   309.07   358.07   374.06   395.34
                              428.57   437.60   486.51   506.06   508.53
                              575.88   599.44   633.52   650.61   661.67
                              676.16   718.47   742.07   785.73   858.71
                              913.12   920.02   965.00  1025.17  1029.12
                             1058.44  1073.15  1101.53  1111.44  1167.72
                             1194.54  1238.17  1246.56  1268.59  1318.87
                             1329.65  1347.13  1349.85  1353.59  1392.06
                             1399.31  1415.60  1432.31  1471.67  1526.55
                             1535.93  1541.57  1600.32  1604.26  1681.52
                             1712.52  1717.59  1748.03  1751.60  1766.92
                             1768.15  1853.01  1867.02  1878.86  1925.62
                             1954.20  1968.30  1975.14  1986.05  2030.29
                             2050.32  2054.49  2090.67  2150.51  2158.10
                             2168.12  2186.75  2187.96  2193.95  2208.45
                             2227.35  2240.48  2372.16  2400.04  2441.26
                             2531.32  2575.21  4369.56  4401.39  4404.37
                             4414.24  4426.62  4493.81  4497.39  4510.32
                             4517.12  4567.83  4572.07  4572.52  4578.93
                             4592.06  4604.03  4619.61  4650.08  4681.55
                             4688.28

 Zero-point correction=                           0.321596 (Hartree/Particle)
 Thermal correction to Energy=                    0.341190
 Thermal correction to Enthalpy=                  0.342134
 Thermal correction to Gibbs Free Energy=         0.270998
 Sum of electronic and zero-point Energies=          -1224.292566
 Sum of electronic and thermal Energies=             -1224.272973
 Sum of electronic and thermal Enthalpies=           -1224.272028
 Sum of electronic and thermal Free Energies=        -1224.343164

                     E (Thermal)             CV                S
                      KCal/Mol        Cal/Mol-Kelvin    Cal/Mol-Kelvin
 Total                  214.100             74.904            149.718
 Electronic               0.000              0.000              0.000
 Translational            0.889              2.981             42.883
 Rotational               0.889              2.981             34.600
 Vibrational            212.323             68.942             72.235
 Vibration     1          0.593              1.986              6.857
 Vibration     2          0.593              1.985              6.501
 Vibration     3          0.594              1.983              5.641
 Vibration     4          0.594              1.981              5.306
 Vibration     5          0.597              1.971              4.274
 Vibration     6          0.599              1.965              3.996
 Vibration     7          0.603              1.954              3.584
 Vibration     8          0.612              1.924              2.955
 Vibration     9          0.620              1.897              2.613
 Vibration    10          0.633              1.854              2.231
 Vibration    11          0.643              1.825              2.039
 Vibration    12          0.645              1.818              2.002
 Vibration    13          0.662              1.765              1.739
 Vibration    14          0.668              1.746              1.662
 Vibration    15          0.677              1.720              1.566
 Vibration    16          0.691              1.678              1.429
 Vibration    17          0.695              1.666              1.394
 Vibration    18          0.718              1.599              1.221
 Vibration    19          0.728              1.572              1.158
 Vibration    20          0.730              1.568              1.151
 Vibration    21          0.766              1.470              0.962
 Vibration    22          0.780              1.434              0.903
 Vibration    23          0.800              1.382              0.826
 Vibration    24          0.811              1.356              0.789
 Vibration    25          0.818              1.339              0.766
 Vibration    26          0.827              1.317              0.738
 Vibration    27          0.855              1.251              0.660
 Vibration    28          0.871              1.215              0.620
 Vibration    29          0.901              1.148              0.552
 Vibration    30          0.955              1.039              0.455

 Optimization completed.
    -- Stationary point found.
 Normal termination of Gaussian 16 at Sat Dec 12 16:16:14 2020.

 ----------------------------------------------------------------------
 # B3LYP/6-311++G(d,p) empiricaldispersion=gd3bj scf=xqc pop=npa geom=c
 heck
 ----------------------------------------------------------------------

 ---------------------------------------
 CID_68976029_JID_10425_Energie_neutraal
 ---------------------------------------
 Structure from the checkpoint file:  "JID_10425.chk"
 Charge =  0 Multiplicity = 1

 SCF Done:  E(RB3LYP) =  -1224.86457730     A.U. after   15 cycles
 Normal termination of Gaussian 16 at Sat Dec 12 16:25:13 2020.

 ----------------------------------------------------------------------
 # B3LYP/6-311++G(d,p) empiricaldispersion=gd3bj scf=xqc pop=npa geom=c
 heck
 ----------------------------------------------------------------------

 -------------------------------------
 CID_68976029_JID_10425_Energie_kation
 -------------------------------------
 Structure from the checkpoint file:  "JID_10425.chk"
 Charge =  1 Multiplicity = 2

 SCF Done:  E(UB3LYP) =  -1224.60864798     A.U. after   22 cycles
 Normal termination of Gaussian 16 at Sat Dec 12 16:43:50 2020.
 Gaussian 16:  ES64L-G16RevA.03 25-Dec-2016

 ----------------------------------------------------------------------
 # B3LYP/6-311++G(d,p) empiricaldispersion=gd3bj scf=xqc pop=npa geom=c
 heck
 ----------------------------------------------------------------------

 ------------------------------------
 CID_68976029_JID_10425_Energie_anion
 ------------------------------------
 Structure from the checkpoint file:  "JID_10425.chk"
 Charge = -1 Multiplicity = 2

                         Standard orientation:
 ---------------------------------------------------------------------
 Center     Atomic      Atomic             Coordinates (Angstroms)
 Number     Number       Type             X           Y           Z
 ---------------------------------------------------------------------
      1          6           0        3.545060   -2.690486   -0.633086
      2          6           0        3.910253   -1.320342   -0.063899
      3          6           0        4.306525   -1.429362    1.409116
      4          6           0        4.989326   -0.646130   -0.912246
      5          8           0        2.642302   -0.580829   -0.185932
      6          6           0        2.553946    0.699644    0.221340
      7          8           0        3.446713    1.370841    0.710562
      8          7           0        1.272750    1.189815    0.008958
      9          6           0        1.028547    2.544785    0.332669
     10          6           0       -0.195552    3.060885    0.435652
     11         16           0       -1.697842    2.125575    0.257311
     12          6           0       -1.023055    0.755737   -0.679561
     13          6           0        0.278075    0.451067   -0.676850
     14          6           0       -2.035199   -0.021105   -1.479070
     15          6           0       -3.140313   -0.611524   -0.620092
     16          6           0       -2.822660   -1.430918    0.470380
     17          6           0       -3.828925   -1.985017    1.257710
     18          6           0       -5.170379   -1.723175    0.967960
     19          6           0       -5.495710   -0.902793   -0.111256
     20          6           0       -4.484108   -0.349533   -0.898641
     21          1           0        4.414499   -3.354266   -0.595772
     22          1           0        3.220688   -2.601838   -1.674865
     23          1           0        2.735038   -3.144558   -0.053885
     24          1           0        5.181257   -2.081896    1.503012
     25          1           0        4.549791   -0.450298    1.823046
     26          1           0        3.488321   -1.868769    1.989374
     27          1           0        4.645836   -0.539095   -1.946743
     28          1           0        5.239791    0.338821   -0.516927
     29          1           0        5.891396   -1.267436   -0.914963
     30          1           0        1.926135    3.134882    0.462946
     31          1           0       -0.331925    4.118270    0.629178
     32          1           0        0.656471   -0.376961   -1.260309
     33          1           0       -2.481358    0.632741   -2.239216
     34          1           0       -1.509460   -0.822024   -2.014881
     35          1           0       -1.778218   -1.620444    0.704523
     36          1           0       -3.567873   -2.618133    2.101267
     37          1           0       -5.955497   -2.152884    1.583677
     38          1           0       -6.535987   -0.688415   -0.339998
     39          1           0       -4.739783    0.293915   -1.736942
 ---------------------------------------------------------------------

 SCF Done:  E(UB3LYP) =  -1224.85506810     A.U. after   33 cycles
 SCF Done:  E(UB3LYP) =  -1224.85506809     a.u. after    1 cycles

 The electronic state is 2-A.
 Alpha  occ. eigenvalues --  -88.77072 -19.07423 -19.01333 -14.28165 -10.23805
 Alpha  occ. eigenvalues --  -10.15762 -10.12796 -10.11694 -10.11448 -10.11440
 Alpha  occ. eigenvalues --  -10.09401 -10.08913 -10.08578 -10.08442 -10.08191
 Alpha  occ. eigenvalues --  -10.08186 -10.08025 -10.07154 -10.07070 -10.07025
 Alpha  occ. eigenvalues --   -7.85655  -5.82038  -5.81659  -5.81057  -1.02351
 Alpha  occ. eigenvalues --   -0.93547  -0.88109  -0.77246  -0.74716  -0.72598
 Alpha  occ. eigenvalues --   -0.70682  -0.67182  -0.65646  -0.61761  -0.60805
 Alpha  occ. eigenvalues --   -0.60669  -0.60518  -0.55859  -0.52493  -0.51596
 Alpha  occ. eigenvalues --   -0.49555  -0.48018  -0.43336  -0.42520  -0.41807
 Alpha  occ. eigenvalues --   -0.40981  -0.39289  -0.38175  -0.37712  -0.37476
 Alpha  occ. eigenvalues --   -0.36707  -0.36068  -0.35439  -0.34881  -0.33370
 Alpha  occ. eigenvalues --   -0.33000  -0.32658  -0.31265  -0.30422  -0.30166
 Alpha  occ. eigenvalues --   -0.28778  -0.28167  -0.27987  -0.27380  -0.26805
 Alpha  occ. eigenvalues --   -0.26393  -0.25923  -0.25424  -0.25124  -0.24532
 Alpha  occ. eigenvalues --   -0.21731  -0.21210  -0.19730  -0.19032  -0.16629
 Alpha  occ. eigenvalues --   -0.15784  -0.09923   0.03943
 Alpha virt. eigenvalues --    0.05507   0.06080   0.06792   0.06831   0.07237
 Alpha virt. eigenvalues --    0.07490   0.07840   0.08035   0.08479   0.08772
 Alpha virt. eigenvalues --    0.09225   0.09343   0.10023   0.10285   0.10920

  Beta  occ. eigenvalues --  -88.77072 -19.07419 -19.01328 -14.28170 -10.23801
  Beta  occ. eigenvalues --  -10.15761 -10.12770 -10.11630 -10.11434 -10.11393
  Beta  occ. eigenvalues --  -10.09397 -10.08851 -10.08581 -10.08433 -10.08161
  Beta  occ. eigenvalues --  -10.08117 -10.08014 -10.07132 -10.07030 -10.06997
  Beta  occ. eigenvalues --   -7.85653  -5.82039  -5.81660  -5.81058  -1.02341
  Beta  occ. eigenvalues --   -0.93537  -0.88075  -0.77159  -0.74659  -0.72558
  Beta  occ. eigenvalues --   -0.70621  -0.67067  -0.65586  -0.61723  -0.60760
  Beta  occ. eigenvalues --   -0.60611  -0.60429  -0.55810  -0.52419  -0.51534
  Beta  occ. eigenvalues --   -0.49483  -0.47971  -0.43295  -0.42461  -0.41756
  Beta  occ. eigenvalues --   -0.40924  -0.39241  -0.38146  -0.37675  -0.37426
  Beta  occ. eigenvalues --   -0.36637  -0.36028  -0.35409  -0.34807  -0.33341
  Beta  occ. eigenvalues --   -0.32962  -0.32591  -0.31214  -0.30384  -0.30121
  Beta  occ. eigenvalues --   -0.28709  -0.28100  -0.27931  -0.27322  -0.26729
  Beta  occ. eigenvalues --   -0.26339  -0.25877  -0.25385  -0.25088  -0.24475
  Beta  occ. eigenvalues --   -0.21709  -0.21162  -0.19689  -0.18828  -0.16477
  Beta  occ. eigenvalues --   -0.15477  -0.09844
  Beta virt. eigenvalues --    0.05867   0.06282   0.06477   0.06917   0.07122
  Beta virt. eigenvalues --    0.07454   0.07794   0.08088   0.08479   0.08799
  Beta virt. eigenvalues --    0.09108   0.09501   0.09647   0.10089   0.10606

 Mulliken charges and spin densities:
               1          2
     1  C    0.491994  -0.884538
     2  C   -1.530925   1.539560
     3  C    0.513056  -0.951087
     4  C    0.655624  -1.103567
     5  O    0.097487  -0.009091
     6  C    0.069327  -0.018573
     7  O   -0.268099  -0.003576
     8  N    0.078625  -0.002825
     9  C    0.018763  -0.126195
    10  C    0.001266  -0.148977
    11  S   -0.472201   0.049472
    12  C    0.179733   0.261115
    13  C    0.188359  -0.320543
    14  C    0.831156  -2.006053
    15  C   -0.107682   1.157853
    16  C   -0.769089   0.184898
    17  C   -0.321892   0.046755
    18  C    0.172675  -0.505762
    19  C    0.158172  -0.510153
    20  C   -0.404006   0.428110
    21  H   -0.216280   0.366130
    22  H   -0.278422   0.438748
    23  H   -0.167303   0.320051
    24  H   -0.197870   0.368480
    25  H    0.084802   0.098645
    26  H    0.074720   0.066753
    27  H   -0.084567   0.232811
    28  H    0.042669   0.138621
    29  H   -0.192857   0.360680
    30  H    0.156356   0.034962
    31  H    0.208701   0.031361
    32  H    0.432152  -0.113932
    33  H    0.021626   0.154569
    34  H   -0.375877   0.539330
    35  H    0.219993  -0.033406
    36  H   -0.082413   0.252951
    37  H    0.024430   0.101022
    38  H   -0.096120   0.256466
    39  H   -0.156084   0.308934
 Sum of Mulliken charges =  -1.00000   1.00000

 Dipole moment (field-independent basis, Debye):
    X=             -2.7295    Y=              4.7424    Z=              2.1569  Tot=              5.8815
 Quadrupole moment (field-independent basis, Debye-Ang):
   XX=           -234.8772   YY=           -168.5577   ZZ=           -161.7156
   XY=              9.8741   XZ=             -0.1072   YZ=             -4.7534

 Summary of Natural Population Analysis:

                                       Natural Population
                Natural  -----------------------------------------------
    Atom  No    Charge         Core      Valence    Rydberg      Total
 -----------------------------------------------------------------------
      C    1   -0.28976      0.99960     2.28290    0.00726     3.28976
      C    2    0.13653      0.99954     1.84977    0.01417     2.86347
      C    3   -0.30232      0.99960     2.29631    0.00641     3.30232
      C    4   -0.30229      0.99960     2.29612    0.00657     3.30229
      O    5   -0.29622      0.99985     3.28645    0.00992     4.29622
      C    6    0.47318      0.99967     1.50266    0.02450     2.52682
      O    7   -0.33226      0.99987     3.32745    0.00494     4.33226
      N    8   -0.25179      0.99961     2.74252    0.00966     3.75179
      C    9   -0.00111      0.99947     1.98978    0.01185     3.00111
      C   10   -0.19147      0.99946     2.18136    0.01065     3.19147
      S   11    0.13527      4.99949     2.84441    0.02082     7.86473
      C   12   -0.08168      0.99942     2.06984    0.01241     3.08168
      C   13   -0.00233      0.99936     1.98958    0.01339     3.00233
      C   14   -0.20982      0.99955     2.19827    0.01200     3.20982
      C   15   -0.00880      0.99950     1.99831    0.01098     3.00880
      C   16   -0.09626      0.99951     2.08712    0.00963     3.09626
      C   17   -0.09874      0.99957     2.08990    0.00928     3.09874
      C   18   -0.09657      0.99956     2.08725    0.00976     3.09657
      C   19   -0.10312      0.99956     2.09392    0.00964     3.10312
      C   20   -0.09685      0.99950     2.08760    0.00974     3.09685
      H   21    0.10410      0.00000     0.39440    0.00149     0.39590
      H   22    0.10586      0.00000     0.39258    0.00155     0.39414
      H   23    0.10449      0.00000     0.39425    0.00126     0.39551
      H   24    0.10447      0.00000     0.39463    0.00090     0.39553
      H   25    0.11364      0.00000     0.38552    0.00084     0.38636
      H   26    0.10271      0.00000     0.39643    0.00085     0.39729
      H   27    0.10369      0.00000     0.39520    0.00111     0.39631
      H   28    0.11314      0.00000     0.38594    0.00093     0.38686
      H   29    0.10454      0.00000     0.39442    0.00104     0.39546
      H   30    0.11493      0.00000     0.38375    0.00132     0.38507
      H   31    0.10748      0.00000     0.39177    0.00076     0.39252
      H   32    0.11622      0.00000     0.38203    0.00175     0.38378
      H   33    0.10782      0.00000     0.39064    0.00153     0.39218
      H   34    0.11478      0.00000     0.38349    0.00172     0.38522
      H   35    0.10426      0.00000     0.39420    0.00154     0.39574
      H   36    0.09908      0.00000     0.40012    0.00080     0.40092
      H   37    0.09726      0.00000     0.40197    0.00077     0.40274
      H   38    0.09843      0.00000     0.40071    0.00086     0.40157
      H   39    0.09948      0.00000     0.39928    0.00124     0.40052
 =======================================================================
   * Total *   -0.00000     23.99130    52.76283    0.24587    77.00000

 Normal termination of Gaussian 16 at Sat Dec 12 17:13:24 2020.
