 Gaussian 16, Revision A.03,

 -----------------------------------------------------------
 # opt freq B3LYP/6-31G(d) empiricaldispersion=gd3bj scf=xqc
 -----------------------------------------------------------

 ------------------------------
 CID_80341222_JID_6749_neutraal
 ------------------------------
 Symbolic Z-matrix:
 Charge =  0 Multiplicity = 1

 SCF Done:  E(RB3LYP) =  -672.352648245     A.U. after   14 cycles
 SCF Done:  E(RB3LYP) =  -672.357544066     A.U. after   12 cycles
 SCF Done:  E(RB3LYP) =  -672.358841784     A.U. after   12 cycles
 SCF Done:  E(RB3LYP) =  -672.360307209     A.U. after   12 cycles
 SCF Done:  E(RB3LYP) =  -672.360961337     A.U. after   12 cycles
 SCF Done:  E(RB3LYP) =  -672.361327022     A.U. after   12 cycles
 SCF Done:  E(RB3LYP) =  -672.361424313     A.U. after   11 cycles
 SCF Done:  E(RB3LYP) =  -672.361508235     A.U. after   10 cycles
 SCF Done:  E(RB3LYP) =  -672.361554704     A.U. after   11 cycles
 SCF Done:  E(RB3LYP) =  -672.361597588     A.U. after   11 cycles
 SCF Done:  E(RB3LYP) =  -672.361749753     A.U. after   10 cycles
 SCF Done:  E(RB3LYP) =  -672.361748804     A.U. after   10 cycles
 SCF Done:  E(RB3LYP) =  -672.361750480     A.U. after   10 cycles
 SCF Done:  E(RB3LYP) =  -672.361750537     A.U. after    7 cycles
 SCF Done:  E(RB3LYP) =  -672.361750575     A.U. after    7 cycles
 Optimization completed.
    -- Stationary point found.
 Normal termination of Gaussian 16 at Thu Dec 10 23:30:40 2020.

 --------------------------------------------------------------------
 #N Geom=AllCheck Guess=TCheck SCRF=Check GenChk RB3LYP/6-31G(d) Freq
 --------------------------------------------------------------------

 Structure from the checkpoint file:  "JID_6749.chk"
 ------------------------------
 CID_80341222_JID_6749_neutraal
 ------------------------------
 Charge =  0 Multiplicity = 1

 SCF Done:  E(RB3LYP) =  -672.361750575     A.U. after    1 cycles

  Exact polarizability: 220.755  -3.864 155.570  -4.301   5.236 102.537
 Approx polarizability: 279.844  -6.901 239.999  -7.180  12.310 161.756

                      1                      2                      3
                      A                      A                      A
 Frequencies --     23.2734                30.4514                42.5242
 Red. masses --      3.3490                 3.0455                 3.5203
 Frc consts  --      0.0011                 0.0017                 0.0038
 IR Inten    --      0.3263                 0.4575                 0.1215

                      4                      5                      6
                      A                      A                      A
 Frequencies --    100.1329               136.9787               154.4085
 Red. masses --      3.7117                 3.3389                 3.6492
 Frc consts  --      0.0219                 0.0369                 0.0513
 IR Inten    --      0.9762                 1.4591                 0.6840

                      7                      8                      9
                      A                      A                      A
 Frequencies --    197.1564               212.9563               235.0066
 Red. masses --      2.3874                 2.7683                 1.3358
 Frc consts  --      0.0547                 0.0740                 0.0435
 IR Inten    --      0.0933                 1.6470                 0.1531

                     10                     11                     12
                      A                      A                      A
 Frequencies --    253.5490               270.4812               290.3529
 Red. masses --      1.6441                 2.7003                 1.3076
 Frc consts  --      0.0623                 0.1164                 0.0649
 IR Inten    --      0.7054                 6.6094                 6.6097

                     13                     14                     15
                      A                      A                      A
 Frequencies --    291.8759               311.7994               314.5684
 Red. masses --      1.4536                 2.1740                 2.2140
 Frc consts  --      0.0730                 0.1245                 0.1291
 IR Inten    --     40.7853                16.8579                 5.0626

                     16                     17                     18
                      A                      A                      A
 Frequencies --    361.6623               408.3090               433.8307
 Red. masses --      2.7145                 2.9545                 3.0230
 Frc consts  --      0.2092                 0.2902                 0.3352
 IR Inten    --     10.1536                 1.5691                 1.8157

                     19                     20                     21
                      A                      A                      A
 Frequencies --    450.2704               471.9743               484.7864
 Red. masses --      1.8702                 2.7385                 2.7817
 Frc consts  --      0.2234                 0.3594                 0.3852
 IR Inten    --      0.1261                11.5249                 4.1694

                     22                     23                     24
                      A                      A                      A
 Frequencies --    515.1221               524.5733               539.5195
 Red. masses --      3.7093                 3.9090                 3.5958
 Frc consts  --      0.5799                 0.6338                 0.6167
 IR Inten    --      2.3420                 5.2712                 3.6741

                     25                     26                     27
                      A                      A                      A
 Frequencies --    646.3127               687.7825               743.8745
 Red. masses --      2.7440                 4.2698                 4.5521
 Frc consts  --      0.6753                 1.1900                 1.4841
 IR Inten    --      0.5958                10.9006                 5.6862

                     28                     29                     30
                      A                      A                      A
 Frequencies --    756.7679               797.9699               823.0643
 Red. masses --      2.7060                 3.0275                 2.0858
 Frc consts  --      0.9131                 1.1358                 0.8325
 IR Inten    --      3.1011                 0.2815                 1.9875

                     31                     32                     33
                      A                      A                      A
 Frequencies --    832.2101               854.1611               860.0167
 Red. masses --      1.8985                 1.4584                 1.4825
 Frc consts  --      0.7747                 0.6269                 0.6460
 IR Inten    --      4.4721                29.5132                 2.2873

                     34                     35                     36
                      A                      A                      A
 Frequencies --    888.9820               923.9740               933.9949
 Red. masses --      2.1791                 1.9047                 1.3154
 Frc consts  --      1.0146                 0.9581                 0.6761
 IR Inten    --    120.9467                 0.3639                33.8401

                     37                     38                     39
                      A                      A                      A
 Frequencies --    972.8803               980.5266               985.9014
 Red. masses --      1.4969                 1.3446                 2.1455
 Frc consts  --      0.8347                 0.7617                 1.2287
 IR Inten    --     26.2500                 0.1097                19.4351

                     40                     41                     42
                      A                      A                      A
 Frequencies --    993.4137              1001.6150              1014.0051
 Red. masses --      1.3221                 3.7785                 2.6129
 Frc consts  --      0.7687                 2.2335                 1.5829
 IR Inten    --      3.0960                15.9619                 6.3730

                     43                     44                     45
                      A                      A                      A
 Frequencies --   1035.4410              1036.3647              1079.9702
 Red. masses --      1.7509                 1.6658                 1.9600
 Frc consts  --      1.1060                 1.0541                 1.3469
 IR Inten    --      2.5061                 2.8126                30.0528

                     46                     47                     48
                      A                      A                      A
 Frequencies --   1098.8826              1115.7249              1133.7511
 Red. masses --      2.9094                 2.6008                 1.5464
 Frc consts  --      2.0699                 1.9076                 1.1711
 IR Inten    --     11.9166                 4.0443                 2.3913

                     49                     50                     51
                      A                      A                      A
 Frequencies --   1151.6256              1163.4358              1176.3437
 Red. masses --      1.6100                 2.0467                 2.0587
 Frc consts  --      1.2581                 1.6322                 1.6784
 IR Inten    --      3.3239                 4.5845                38.5111

                     52                     53                     54
                      A                      A                      A
 Frequencies --   1192.3082              1220.4752              1233.4761
 Red. masses --      1.3626                 1.4792                 2.1072
 Frc consts  --      1.1413                 1.2982                 1.8889
 IR Inten    --      6.9376                25.6453                13.0146

                     55                     56                     57
                      A                      A                      A
 Frequencies --   1239.8762              1287.0860              1295.6361
 Red. masses --      2.2734                 1.5657                 1.4529
 Frc consts  --      2.0591                 1.5282                 1.4370
 IR Inten    --      6.7496               159.4254                34.0763

                     58                     59                     60
                      A                      A                      A
 Frequencies --   1311.8240              1322.6191              1350.6289
 Red. masses --      1.2876                 3.4175                 1.4451
 Frc consts  --      1.3055                 3.5223                 1.5532
 IR Inten    --      1.7986                 6.0680                17.3747

                     61                     62                     63
                      A                      A                      A
 Frequencies --   1355.0334              1362.8886              1371.5239
 Red. masses --      1.4007                 1.3557                 1.4075
 Frc consts  --      1.5152                 1.4836                 1.5599
 IR Inten    --      2.5905                20.2351                42.9243

                     64                     65                     66
                      A                      A                      A
 Frequencies --   1394.4739              1404.0846              1408.3452
 Red. masses --      1.4499                 1.4824                 1.6101
 Frc consts  --      1.6611                 1.7219                 1.8816
 IR Inten    --     23.3827                 3.7306                 0.6739

                     67                     68                     69
                      A                      A                      A
 Frequencies --   1419.0315              1426.3168              1433.6515
 Red. masses --      1.4553                 1.7103                 1.2695
 Frc consts  --      1.7266                 2.0500                 1.5374
 IR Inten    --     20.4771                13.0488                 6.0133

                     70                     71                     72
                      A                      A                      A
 Frequencies --   1437.6803              1442.2773              1482.3265
 Red. masses --      1.3780                 1.3186                 3.4210
 Frc consts  --      1.6782                 1.6161                 4.4289
 IR Inten    --     18.2541                13.4577               251.3940

                     73                     74                     75
                      A                      A                      A
 Frequencies --   1503.0050              1516.6177              1520.7840
 Red. masses --      1.0945                 1.1069                 1.0770
 Frc consts  --      1.4567                 1.5000                 1.4676
 IR Inten    --      2.3978                14.6864                11.3420

                     76                     77                     78
                      A                      A                      A
 Frequencies --   1523.3204              1528.0409              1530.1397
 Red. masses --      1.0878                 1.0453                 1.1226
 Frc consts  --      1.4872                 1.4380                 1.5486
 IR Inten    --      3.1434                 7.9419                19.8876

                     79                     80                     81
                      A                      A                      A
 Frequencies --   1532.3164              1536.8110              1543.7810
 Red. masses --      1.2813                 1.0728                 1.6387
 Frc consts  --      1.7726                 1.4929                 2.3010
 IR Inten    --     41.9248                 3.4429                40.4704

                     82                     83                     84
                      A                      A                      A
 Frequencies --   1610.2129              1660.3105              1691.8408
 Red. masses --      7.0949                 5.4490                 1.0996
 Frc consts  --     10.8384                 8.8501                 1.8544
 IR Inten    --     72.4802               309.6323                33.1656

                     85                     86                     87
                      A                      A                      A
 Frequencies --   2950.7314              2956.2221              2997.1407
 Red. masses --      1.0740                 1.0747                 1.0821
 Frc consts  --      5.5097                 5.5334                 5.7271
 IR Inten    --     28.8772                99.5637                25.8136

                     88                     89                     90
                      A                      A                      A
 Frequencies --   3015.0200              3033.6966              3035.5104
 Red. masses --      1.0832                 1.0596                 1.0474
 Frc consts  --      5.8017                 5.7454                 5.6862
 IR Inten    --     22.6206                25.7789                 7.9841

                     91                     92                     93
                      A                      A                      A
 Frequencies --   3042.1586              3042.9949              3076.7645
 Red. masses --      1.0485                 1.0353                 1.1036
 Frc consts  --      5.7170                 5.6485                 6.1550
 IR Inten    --     72.2042                19.6858                30.7945

                     94                     95                     96
                      A                      A                      A
 Frequencies --   3080.1622              3104.2326              3109.0360
 Red. masses --      1.1040                 1.1017                 1.1024
 Frc consts  --      6.1709                 6.2549                 6.2784
 IR Inten    --     48.3013                57.0858                35.9867

                     97                     98                     99
                      A                      A                      A
 Frequencies --   3112.0744              3115.0207              3127.1663
 Red. masses --      1.1022                 1.1026                 1.0878
 Frc consts  --      6.2893                 6.3034                 6.2675
 IR Inten    --     42.5483                32.5481                23.8144

                    100                    101                    102
                      A                      A                      A
 Frequencies --   3159.6420              3176.9465              3243.1198
 Red. masses --      1.0898                 1.0879                 1.0924
 Frc consts  --      6.4105                 6.4693                 6.7696
 IR Inten    --     48.5308                 5.7973                 3.3107

                    103                    104                    105
                      A                      A                      A
 Frequencies --   3261.9446              3452.8552              3542.2590
 Red. masses --      1.0877                 1.0493                 1.0925
 Frc consts  --      6.8191                 7.3705                 8.0768
 IR Inten    --      9.5148                 3.4139                 1.8090

 - Thermochemistry -
 -------------------
 Temperature   298.150 Kelvin.  Pressure   1.00000 Atm.
 Atom     1 has atomic number  6 and mass  12.00000

 Molecular mass:   219.17355 amu.
 Principal axes and moments of inertia in atomic units:
                           1         2         3
     Eigenvalues --  1471.927777402.383718616.25960
           X            0.99998   0.00658   0.00110
           Y           -0.00658   0.99998  -0.00053
           Z           -0.00111   0.00052   1.00000
 This molecule is an asymmetric top.
 Rotational symmetry number  1.
 Warning -- assumption of classical behavior for rotation
           may cause significant error
 Rotational temperatures (Kelvin)      0.05884     0.01170     0.01005
 Rotational constants (GHZ):           1.22611     0.24381     0.20946
 Zero-point vibrational energy     870091.8 (Joules/Mol)
                                  207.95694 (Kcal/Mol)
 Warning -- explicit consideration of  24 degrees of freedom as
           vibrations may cause significant error
 Vibrational temperatures:     33.49    43.81    61.18   144.07   197.08
          (Kelvin)            222.16   283.66   306.40   338.12   364.80
                              389.16   417.75   419.94   448.61   452.59
                              520.35   587.47   624.19   647.84   679.07
                              697.50   741.15   754.74   776.25   929.90
                              989.57  1070.27  1088.82  1148.10  1184.21
                             1197.36  1228.95  1237.37  1279.05  1329.39
                             1343.81  1399.76  1410.76  1418.49  1429.30
                             1441.10  1458.93  1489.77  1491.10  1553.84
                             1581.05  1605.28  1631.21  1656.93  1673.92
                             1692.50  1715.47  1755.99  1774.70  1783.91
                             1851.83  1864.13  1887.42  1902.95  1943.25
                             1949.59  1960.89  1973.32  2006.34  2020.16
                             2026.29  2041.67  2052.15  2062.70  2068.50
                             2075.12  2132.74  2162.49  2182.07  2188.07
                             2191.72  2198.51  2201.53  2204.66  2211.13
                             2221.16  2316.74  2388.82  2434.18  4245.44
                             4253.34  4312.22  4337.94  4364.81  4367.42
                             4376.99  4378.19  4426.78  4431.67  4466.30
                             4473.21  4477.58  4481.82  4499.29  4546.02
                             4570.92  4666.13  4693.21  4967.89  5096.52

 Zero-point correction=                           0.331400 (Hartree/Particle)
 Thermal correction to Energy=                    0.347041
 Thermal correction to Enthalpy=                  0.347985
 Thermal correction to Gibbs Free Energy=         0.287530
 Sum of electronic and zero-point Energies=           -672.030350
 Sum of electronic and thermal Energies=              -672.014710
 Sum of electronic and thermal Enthalpies=            -672.013765
 Sum of electronic and thermal Free Energies=         -672.074220

                     E (Thermal)             CV                S
                      KCal/Mol        Cal/Mol-Kelvin    Cal/Mol-Kelvin
 Total                  217.772             61.149            127.238
 Electronic               0.000              0.000              0.000
 Translational            0.889              2.981             42.057
 Rotational               0.889              2.981             32.907
 Vibrational            215.994             55.188             52.275
 Vibration     1          0.593              1.985              6.333
 Vibration     2          0.594              1.984              5.800
 Vibration     3          0.595              1.980              5.138
 Vibration     4          0.604              1.949              3.452
 Vibration     5          0.614              1.916              2.846
 Vibration     6          0.620              1.898              2.617
 Vibration     7          0.637              1.844              2.159
 Vibration     8          0.644              1.821              2.018
 Vibration     9          0.655              1.787              1.840
 Vibration    10          0.665              1.757              1.706
 Vibration    11          0.674              1.728              1.593
 Vibration    12          0.686              1.692              1.472
 Vibration    13          0.687              1.689              1.463
 Vibration    14          0.700              1.651              1.353
 Vibration    15          0.702              1.646              1.338
 Vibration    16          0.736              1.551              1.115
 Vibration    17          0.773              1.452              0.933
 Vibration    18          0.795              1.397              0.846
 Vibration    19          0.809              1.360              0.795
 Vibration    20          0.829              1.312              0.732
 Vibration    21          0.841              1.284              0.697
 Vibration    22          0.870              1.216              0.621
 Vibration    23          0.880              1.196              0.599
 Vibration    24          0.895              1.163              0.566

 Optimization completed.
    -- Stationary point found.
 Normal termination of Gaussian 16 at Thu Dec 10 23:41:45 2020.

 ----------------------------------------------------------------------
 # B3LYP/6-311++G(d,p) empiricaldispersion=gd3bj scf=xqc pop=npa geom=c
 heck
 ----------------------------------------------------------------------

 --------------------------------------
 CID_80341222_JID_6749_Energie_neutraal
 --------------------------------------
 Structure from the checkpoint file:  "JID_6749.chk"
 Charge =  0 Multiplicity = 1

 SCF Done:  E(RB3LYP) =  -672.546383596     A.U. after   14 cycles
 Normal termination of Gaussian 16 at Thu Dec 10 23:46:45 2020.

 ----------------------------------------------------------------------
 # B3LYP/6-311++G(d,p) empiricaldispersion=gd3bj scf=xqc pop=npa geom=c
 heck
 ----------------------------------------------------------------------

 ------------------------------------
 CID_80341222_JID_6749_Energie_kation
 ------------------------------------
 Structure from the checkpoint file:  "JID_6749.chk"
 Charge =  1 Multiplicity = 2

 SCF Done:  E(UB3LYP) =  -672.283425406     A.U. after   22 cycles
 Normal termination of Gaussian 16 at Thu Dec 10 23:57:06 2020.
 Gaussian 16:  ES64L-G16RevA.03 25-Dec-2016

 ----------------------------------------------------------------------
 # B3LYP/6-311++G(d,p) empiricaldispersion=gd3bj scf=xqc pop=npa geom=c
 heck
 ----------------------------------------------------------------------

 -----------------------------------
 CID_80341222_JID_6749_Energie_anion
 -----------------------------------
 Structure from the checkpoint file:  "JID_6749.chk"
 Charge = -1 Multiplicity = 2

                         Standard orientation:
 ---------------------------------------------------------------------
 Center     Atomic      Atomic             Coordinates (Angstroms)
 Number     Number       Type             X           Y           Z
 ---------------------------------------------------------------------
      1          6           0        5.291283   -0.785206    0.497873
      2          6           0        3.950250   -0.464883   -0.163739
      3          6           0        3.469379    0.955356    0.156813
      4          6           0        2.118168    1.248225   -0.490695
      5          7           0        1.113136    0.254576   -0.103518
      6          6           0        1.495461   -1.125360   -0.367052
      7          6           0        2.856784   -1.453636    0.255375
      8          6           0       -0.224322    0.636522   -0.095570
      9          7           0       -0.467293    1.950167    0.059031
     10          6           0       -1.739176    2.351335    0.133624
     11          6           0       -2.838095    1.506037    0.060408
     12          6           0       -2.600345    0.137125   -0.131682
     13          6           0       -1.281223   -0.297074   -0.216261
     14          6           0       -3.781563   -0.816738   -0.277847
     15          6           0       -3.409906   -2.301275   -0.148858
     16          7           0       -4.846013   -0.395763    0.648896
     17          1           0        6.068365   -0.080403    0.179744
     18          1           0        5.210531   -0.721974    1.590397
     19          1           0        5.629398   -1.797365    0.245910
     20          1           0        4.073415   -0.539208   -1.256285
     21          1           0        3.380422    1.071593    1.245695
     22          1           0        4.201107    1.695729   -0.191022
     23          1           0        2.232186    1.248220   -1.590367
     24          1           0        1.741128    2.226453   -0.199916
     25          1           0        1.522342   -1.325197   -1.454420
     26          1           0        0.751291   -1.794288    0.067829
     27          1           0        3.135043   -2.478105   -0.023366
     28          1           0        2.756308   -1.430782    1.349175
     29          1           0       -1.882810    3.423704    0.261932
     30          1           0       -3.850474    1.880940    0.143646
     31          1           0       -1.072310   -1.341458   -0.392815
     32          1           0       -4.190541   -0.664126   -1.287908
     33          1           0       -2.940875   -2.506048    0.821104
     34          1           0       -4.314259   -2.915246   -0.226750
     35          1           0       -2.723537   -2.629641   -0.937354
     36          1           0       -5.647758   -1.015900    0.541621
     37          1           0       -4.517960   -0.512319    1.607954
 ---------------------------------------------------------------------

 SCF Done:  E(UB3LYP) =  -672.536769662     A.U. after   33 cycles
 SCF Done:  E(UB3LYP) =  -672.536769662     a.u. after    1 cycles

 The electronic state is 2-A.
 Alpha  occ. eigenvalues --  -14.22868 -14.19161 -14.18685 -10.13537 -10.10661
 Alpha  occ. eigenvalues --  -10.10401 -10.09769 -10.09495 -10.08537 -10.07993
 Alpha  occ. eigenvalues --  -10.07714 -10.07615 -10.07425 -10.06357 -10.05825
 Alpha  occ. eigenvalues --  -10.05444  -0.86964  -0.81204  -0.79065  -0.72669
 Alpha  occ. eigenvalues --   -0.69739  -0.66766  -0.65315  -0.62765  -0.60859
 Alpha  occ. eigenvalues --   -0.55739  -0.54252  -0.53024  -0.50136  -0.48044
 Alpha  occ. eigenvalues --   -0.46054  -0.42982  -0.39596  -0.39185  -0.37689
 Alpha  occ. eigenvalues --   -0.36361  -0.36074  -0.35705  -0.34462  -0.34134
 Alpha  occ. eigenvalues --   -0.33313  -0.32382  -0.30829  -0.30437  -0.30191
 Alpha  occ. eigenvalues --   -0.29925  -0.28527  -0.27911  -0.26444  -0.26236
 Alpha  occ. eigenvalues --   -0.25844  -0.24482  -0.24283  -0.22957  -0.22528
 Alpha  occ. eigenvalues --   -0.18966  -0.17138  -0.15226  -0.14425  -0.10393
 Alpha  occ. eigenvalues --    0.04035
 Alpha virt. eigenvalues --    0.05479   0.07109   0.07180   0.07824   0.08049
 Alpha virt. eigenvalues --    0.08485   0.08899   0.09454   0.09817   0.10247
 Alpha virt. eigenvalues --    0.10337   0.10790   0.10968   0.11162   0.11988

  Beta  occ. eigenvalues --  -14.22878 -14.19114 -14.18576 -10.13527 -10.10646
  Beta  occ. eigenvalues --  -10.10398 -10.09763 -10.09482 -10.08529 -10.07906
  Beta  occ. eigenvalues --  -10.07701 -10.07607 -10.07404 -10.06343 -10.05782
  Beta  occ. eigenvalues --  -10.05435  -0.86912  -0.81111  -0.78962  -0.72644
  Beta  occ. eigenvalues --   -0.69597  -0.66739  -0.65260  -0.62691  -0.60814
  Beta  occ. eigenvalues --   -0.55667  -0.54178  -0.52961  -0.50096  -0.47985
  Beta  occ. eigenvalues --   -0.46006  -0.42930  -0.39537  -0.39129  -0.37627
  Beta  occ. eigenvalues --   -0.36324  -0.36034  -0.35677  -0.34433  -0.34088
  Beta  occ. eigenvalues --   -0.33250  -0.32354  -0.30787  -0.30392  -0.30149
  Beta  occ. eigenvalues --   -0.29817  -0.28407  -0.27864  -0.26350  -0.26207
  Beta  occ. eigenvalues --   -0.25797  -0.24403  -0.24234  -0.22932  -0.22507
  Beta  occ. eigenvalues --   -0.18834  -0.16739  -0.15111  -0.14343  -0.10264
  Beta virt. eigenvalues --    0.05931   0.06653   0.07495   0.07653   0.08027
  Beta virt. eigenvalues --    0.08568   0.08689   0.09340   0.09640   0.10186
  Beta virt. eigenvalues --    0.10506   0.10572   0.10801   0.11064   0.11381

 Mulliken charges and spin densities:
               1          2
     1  C    0.053602  -0.774514
     2  C   -0.323709   0.894525
     3  C    0.010289  -0.365017
     4  C   -0.272025  -0.249715
     5  N    0.236259   0.069698
     6  C    0.131389  -0.522596
     7  C    0.117649  -0.648020
     8  C   -0.112186  -0.543515
     9  N   -0.145549   0.066322
    10  C   -0.315178   0.257514
    11  C   -0.352026  -0.186424
    12  C    0.612658   0.176487
    13  C    0.238983   0.114924
    14  C   -1.103770   0.488732
    15  C    0.935158  -1.483258
    16  N   -0.282071   0.005876
    17  H   -0.159013   0.291076
    18  H    0.064405   0.063010
    19  H   -0.232361   0.371705
    20  H    0.013249   0.136585
    21  H    0.089122   0.067212
    22  H    0.097045   0.041802
    23  H    0.028486   0.105099
    24  H    0.217183   0.007463
    25  H   -0.162187   0.339982
    26  H   -0.036113   0.176814
    27  H   -0.101542   0.266582
    28  H    0.126388   0.031567
    29  H    0.132265   0.022834
    30  H    0.153572   0.038770
    31  H    0.558774  -0.579614
    32  H   -0.143930   0.341137
    33  H   -0.047163   0.199961
    34  H   -0.758100   0.906079
    35  H   -0.281480   0.445913
    36  H   -0.104789   0.342503
    37  H    0.116716   0.082499
 Sum of Mulliken charges =  -1.00000   1.00000

 Dipole moment (field-independent basis, Debye):
    X=              4.5291    Y=              3.9446    Z=              1.6409  Tot=              6.2262
 Quadrupole moment (field-independent basis, Debye-Ang):
   XX=           -213.1567   YY=           -143.5946   ZZ=           -123.9017
   XY=             -8.3567   XZ=             -0.1740   YZ=             -4.2226

 Summary of Natural Population Analysis:

                                       Natural Population
                Natural  -----------------------------------------------
    Atom  No    Charge         Core      Valence    Rydberg      Total
 -----------------------------------------------------------------------
      C    1   -0.28259      0.99965     2.27666    0.00628     3.28259
      C    2   -0.11555      0.99960     2.10564    0.01031     3.11555
      C    3   -0.19015      0.99961     2.18308    0.00746     3.19015
      C    4   -0.08430      0.99961     2.07538    0.00931     3.08430
      N    5   -0.25725      0.99964     2.74754    0.01007     3.75725
      C    6   -0.07991      0.99961     2.06958    0.01073     3.07991
      C    7   -0.19015      0.99961     2.18079    0.00975     3.19015
      C    8    0.21358      0.99952     1.77203    0.01487     2.78642
      N    9   -0.25450      0.99967     2.74527    0.00956     3.75450
      C   10    0.03592      0.99960     1.95014    0.01435     2.96408
      C   11   -0.14310      0.99950     2.13516    0.00843     3.14310
      C   12    0.02309      0.99951     1.96671    0.01069     2.97691
      C   13   -0.14855      0.99947     2.14202    0.00705     3.14855
      C   14   -0.02418      0.99958     2.01197    0.01262     3.02418
      C   15   -0.29440      0.99966     2.28834    0.00641     3.29440
      N   16   -0.41911      0.99978     2.90878    0.01055     3.91911
      H   17    0.09838      0.00000     0.40076    0.00086     0.40162
      H   18    0.09516      0.00000     0.40388    0.00096     0.40484
      H   19    0.10034      0.00000     0.39873    0.00094     0.39966
      H   20    0.09223      0.00000     0.40544    0.00234     0.40777
      H   21    0.09573      0.00000     0.40290    0.00137     0.40427
      H   22    0.09801      0.00000     0.40103    0.00096     0.40199
      H   23    0.08161      0.00000     0.41694    0.00145     0.41839
      H   24    0.11852      0.00000     0.37987    0.00161     0.38148
      H   25    0.08581      0.00000     0.41256    0.00163     0.41419
      H   26    0.10077      0.00000     0.39767    0.00156     0.39923
      H   27    0.10167      0.00000     0.39731    0.00102     0.39833
      H   28    0.09498      0.00000     0.40372    0.00130     0.40502
      H   29    0.08411      0.00000     0.41485    0.00104     0.41589
      H   30    0.11223      0.00000     0.38667    0.00110     0.38777
      H   31    0.10505      0.00000     0.39316    0.00179     0.39495
      H   32    0.09769      0.00000     0.40021    0.00210     0.40231
      H   33    0.09713      0.00000     0.40155    0.00132     0.40287
      H   34    0.10285      0.00000     0.39483    0.00231     0.39715
      H   35    0.10072      0.00000     0.39791    0.00137     0.39928
      H   36    0.17711      0.00000     0.32021    0.00269     0.32289
      H   37    0.17108      0.00000     0.32726    0.00166     0.32892
 =======================================================================
   * Total *    0.00000     15.99360    43.81656    0.18984    60.00000

 Normal termination of Gaussian 16 at Fri Dec 11 00:12:35 2020.
