 Gaussian 16, Revision A.03,

 -----------------------------------------------------------
 # opt freq B3LYP/6-31G(d) empiricaldispersion=gd3bj scf=xqc
 -----------------------------------------------------------

 -------------------------------
 CID_153879648_JID_4535_neutraal
 -------------------------------
 Symbolic Z-matrix:
 Charge =  0 Multiplicity = 1

 SCF Done:  E(RB3LYP) =  -631.047385207     A.U. after   16 cycles
 SCF Done:  E(RB3LYP) =  -631.052445191     A.U. after   12 cycles
 SCF Done:  E(RB3LYP) =  -631.052923981     A.U. after   11 cycles
 SCF Done:  E(RB3LYP) =  -631.052996391     A.U. after   11 cycles
 SCF Done:  E(RB3LYP) =  -631.053013307     A.U. after   11 cycles
 SCF Done:  E(RB3LYP) =  -631.053083207     A.U. after   10 cycles
 SCF Done:  E(RB3LYP) =  -631.053118914     A.U. after   10 cycles
 SCF Done:  E(RB3LYP) =  -631.053140133     A.U. after   10 cycles
 SCF Done:  E(RB3LYP) =  -631.053148682     A.U. after   10 cycles
 SCF Done:  E(RB3LYP) =  -631.053157213     A.U. after   10 cycles
 SCF Done:  E(RB3LYP) =  -631.053158362     A.U. after    8 cycles
 SCF Done:  E(RB3LYP) =  -631.053158576     A.U. after    8 cycles
 Optimization completed.
    -- Stationary point found.
 Normal termination of Gaussian 16 at Thu Dec 10 09:59:21 2020.

 --------------------------------------------------------------------
 #N Geom=AllCheck Guess=TCheck SCRF=Check GenChk RB3LYP/6-31G(d) Freq
 --------------------------------------------------------------------

 Structure from the checkpoint file:  "JID_4535.chk"
 -------------------------------
 CID_153879648_JID_4535_neutraal
 -------------------------------
 Charge =  0 Multiplicity = 1

 SCF Done:  E(RB3LYP) =  -631.053158576     A.U. after    1 cycles

  Exact polarizability: 185.287  -3.651 137.527   6.547  -1.064  57.809
 Approx polarizability: 253.566 -18.623 264.848  15.542  -5.503  86.982

                      1                      2                      3
                      A                      A                      A
 Frequencies --     30.8687                62.9892               137.5345
 Red. masses --      2.5768                 4.2982                 4.5231
 Frc consts  --      0.0014                 0.0100                 0.0504
 IR Inten    --      0.5269                 3.9233                 2.1601

                      4                      5                      6
                      A                      A                      A
 Frequencies --    152.0881               169.6597               192.1653
 Red. masses --      4.9256                 5.3621                 1.8345
 Frc consts  --      0.0671                 0.0909                 0.0399
 IR Inten    --      0.0642                 0.6906                 2.3084

                      7                      8                      9
                      A                      A                      A
 Frequencies --    253.2091               258.6254               318.4839
 Red. masses --      1.5471                 4.8833                 1.7094
 Frc consts  --      0.0584                 0.1924                 0.1022
 IR Inten    --      2.1351                 2.9561                14.5289

                     10                     11                     12
                      A                      A                      A
 Frequencies --    350.2321               370.5271               397.5953
 Red. masses --      1.6685                 3.3637                 4.2414
 Frc consts  --      0.1206                 0.2721                 0.3950
 IR Inten    --     14.0469                 4.9546                 2.5193

                     13                     14                     15
                      A                      A                      A
 Frequencies --    439.6497               447.5286               502.2927
 Red. masses --      3.6694                 4.2205                 4.4256
 Frc consts  --      0.4179                 0.4980                 0.6579
 IR Inten    --      1.5822                17.6723                47.0958

                     16                     17                     18
                      A                      A                      A
 Frequencies --    521.2369               544.5070               579.1995
 Red. masses --      1.5443                 4.7887                 3.8033
 Frc consts  --      0.2472                 0.8365                 0.7517
 IR Inten    --    312.4044                27.6162                 5.8843

                     19                     20                     21
                      A                      A                      A
 Frequencies --    598.3715               646.8568               679.9942
 Red. masses --      4.4180                 4.2223                 7.2475
 Frc consts  --      0.9320                 1.0409                 1.9745
 IR Inten    --      9.3502                 5.7475                29.3227

                     22                     23                     24
                      A                      A                      A
 Frequencies --    705.7580               728.6278               763.9738
 Red. masses --      3.9829                 4.7480                 2.8289
 Frc consts  --      1.1689                 1.4852                 0.9728
 IR Inten    --      4.3913                 1.5729                 0.1552

                     25                     26                     27
                      A                      A                      A
 Frequencies --    798.2513               824.4456               836.7481
 Red. masses --      1.2445                 1.8348                 3.7241
 Frc consts  --      0.4672                 0.7348                 1.5363
 IR Inten    --      3.8166                51.5123                14.2336

                     28                     29                     30
                      A                      A                      A
 Frequencies --    838.8887               911.2940               945.0653
 Red. masses --      1.4751                 3.6066                 1.3560
 Frc consts  --      0.6116                 1.7647                 0.7136
 IR Inten    --     23.3741                 1.0473                 3.1848

                     31                     32                     33
                      A                      A                      A
 Frequencies --    962.0511               990.9559              1009.1594
 Red. masses --      1.3294                 2.5813                 3.8952
 Frc consts  --      0.7249                 1.4935                 2.3372
 IR Inten    --      1.7748                 2.2980                24.4576

                     34                     35                     36
                      A                      A                      A
 Frequencies --   1087.8631              1095.7681              1098.1169
 Red. masses --      1.7614                 1.7327                 1.8967
 Frc consts  --      1.2281                 1.2257                 1.3476
 IR Inten    --      5.6370                 0.6432                 6.2661

                     37                     38                     39
                      A                      A                      A
 Frequencies --   1129.0818              1166.2183              1219.5141
 Red. masses --      1.4182                 1.3168                 1.9302
 Frc consts  --      1.0652                 1.0552                 1.6913
 IR Inten    --     12.0625                 8.8921                 7.1454

                     40                     41                     42
                      A                      A                      A
 Frequencies --   1266.6581              1282.4478              1289.4033
 Red. masses --      3.0281                 2.6094                 1.5150
 Frc consts  --      2.8625                 2.5285                 1.4840
 IR Inten    --     17.6813                 2.8880                15.0602

                     43                     44                     45
                      A                      A                      A
 Frequencies --   1298.3196              1335.9726              1372.9924
 Red. masses --      2.2943                 1.9895                 1.5881
 Frc consts  --      2.2786                 2.0922                 1.7639
 IR Inten    --    121.2511                37.1618                 6.7418

                     46                     47                     48
                      A                      A                      A
 Frequencies --   1383.8746              1436.3247              1455.4468
 Red. masses --      5.2275                 1.2200                 3.4340
 Frc consts  --      5.8985                 1.4829                 4.2859
 IR Inten    --      3.4008                 1.9438               222.5825

                     49                     50                     51
                      A                      A                      A
 Frequencies --   1487.0376              1517.6718              1526.1831
 Red. masses --      4.6171                 1.0919                 1.0412
 Frc consts  --      6.0154                 1.4818                 1.4289
 IR Inten    --    208.2597                 2.0616                 7.6695

                     52                     53                     54
                      A                      A                      A
 Frequencies --   1532.2464              1539.8045              1631.8247
 Red. masses --      2.1327                 1.2261                 4.5928
 Frc consts  --      2.9501                 1.7128                 7.2057
 IR Inten    --     37.3699                17.2504                46.0254

                     55                     56                     57
                      A                      A                      A
 Frequencies --   1656.3246              1673.6600              1706.1685
 Red. masses --      1.6502                 6.7444                 3.3575
 Frc consts  --      2.6673                11.1309                 5.7585
 IR Inten    --     35.2558                32.8553               444.8670

                     58                     59                     60
                      A                      A                      A
 Frequencies --   1745.9364              3047.2492              3049.2434
 Red. masses --     10.8481                 1.0599                 1.0359
 Frc consts  --     19.4833                 5.7986                 5.6749
 IR Inten    --    310.9351                31.1067                34.6761

                     61                     62                     63
                      A                      A                      A
 Frequencies --   3084.6196              3119.4661              3124.8973
 Red. masses --      1.1025                 1.1028                 1.1035
 Frc consts  --      6.1809                 6.3230                 6.3489
 IR Inten    --      6.9460                47.7009                34.0897

                     64                     65                     66
                      A                      A                      A
 Frequencies --   3185.2502              3207.5914              3218.4299
 Red. masses --      1.0888                 1.0900                 1.0936
 Frc consts  --      6.5088                 6.6076                 6.6743
 IR Inten    --     12.9810                 3.6157                 7.2440

                     67                     68                     69
                      A                      A                      A
 Frequencies --   3227.0808              3578.1063              3689.7145
 Red. masses --      1.0916                 1.0475                 1.1004
 Frc consts  --      6.6976                 7.9012                 8.8268
 IR Inten    --      5.4659                64.2905                31.9490

 - Thermochemistry -
 -------------------
 Temperature   298.150 Kelvin.  Pressure   1.00000 Atm.
 Atom     1 has atomic number  6 and mass  12.00000

 Molecular mass:   189.07898 amu.
 Principal axes and moments of inertia in atomic units:
                           1         2         3
     Eigenvalues --  1229.702334151.320805191.31724
           X            0.99997  -0.00550  -0.00598
           Y            0.00553   0.99998   0.00400
           Z            0.00596  -0.00403   0.99997
 This molecule is an asymmetric top.
 Rotational symmetry number  1.
 Warning -- assumption of classical behavior for rotation
           may cause significant error
 Rotational temperatures (Kelvin)      0.07043     0.02086     0.01668
 Rotational constants (GHZ):           1.46762     0.43474     0.34765
 Zero-point vibrational energy     528960.8 (Joules/Mol)
                                  126.42467 (Kcal/Mol)
 Warning -- explicit consideration of  19 degrees of freedom as
           vibrations may cause significant error
 Vibrational temperatures:     44.41    90.63   197.88   218.82   244.10
          (Kelvin)            276.48   364.31   372.10   458.23   503.91
                              533.11   572.05   632.56   643.89   722.69
                              749.94   783.42   833.34   860.92   930.68
                              978.36  1015.43  1048.33  1099.19  1148.51
                             1186.19  1203.89  1206.97  1311.15  1359.74
                             1384.18  1425.76  1451.96  1565.19  1576.57
                             1579.95  1624.50  1677.93  1754.61  1822.44
                             1845.16  1855.16  1867.99  1922.17  1975.43
                             1991.09  2066.55  2094.06  2139.52  2183.59
                             2195.84  2204.56  2215.44  2347.83  2383.08
                             2408.02  2454.80  2512.01  4384.31  4387.18
                             4438.08  4488.22  4496.03  4582.86  4615.01
                             4630.60  4643.05  5148.10  5308.68

 Zero-point correction=                           0.201471 (Hartree/Particle)
 Thermal correction to Energy=                    0.213649
 Thermal correction to Enthalpy=                  0.214593
 Thermal correction to Gibbs Free Energy=         0.162675
 Sum of electronic and zero-point Energies=           -630.851688
 Sum of electronic and thermal Energies=              -630.839510
 Sum of electronic and thermal Enthalpies=            -630.838566
 Sum of electronic and thermal Free Energies=         -630.890483

                     E (Thermal)             CV                S
                      KCal/Mol        Cal/Mol-Kelvin    Cal/Mol-Kelvin
 Total                  134.067             47.550            109.270
 Electronic               0.000              0.000              0.000
 Translational            0.889              2.981             41.617
 Rotational               0.889              2.981             31.650
 Vibrational            132.289             41.589             36.003
 Vibration     1          0.594              1.984              5.773
 Vibration     2          0.597              1.972              4.361
 Vibration     3          0.614              1.916              2.838
 Vibration     4          0.619              1.900              2.646
 Vibration     5          0.625              1.880              2.439
 Vibration     6          0.634              1.851              2.207
 Vibration     7          0.664              1.757              1.708
 Vibration     8          0.667              1.748              1.671
 Vibration     9          0.705              1.638              1.318
 Vibration    10          0.727              1.575              1.165
 Vibration    11          0.743              1.533              1.078
 Vibration    12          0.764              1.475              0.972
 Vibration    13          0.800              1.384              0.828
 Vibration    14          0.807              1.366              0.803
 Vibration    15          0.858              1.245              0.652
 Vibration    16          0.876              1.203              0.607
 Vibration    17          0.900              1.152              0.556
 Vibration    18          0.936              1.076              0.487
 Vibration    19          0.956              1.035              0.452

 Optimization completed.
    -- Stationary point found.
 Normal termination of Gaussian 16 at Thu Dec 10 10:05:33 2020.

 ----------------------------------------------------------------------
 # B3LYP/6-311++G(d,p) empiricaldispersion=gd3bj scf=xqc pop=npa geom=c
 heck
 ----------------------------------------------------------------------

 ---------------------------------------
 CID_153879648_JID_4535_Energie_neutraal
 ---------------------------------------
 Structure from the checkpoint file:  "JID_4535.chk"
 Charge =  0 Multiplicity = 1

 SCF Done:  E(RB3LYP) =  -631.230336684     A.U. after   17 cycles
 Normal termination of Gaussian 16 at Thu Dec 10 10:08:08 2020.

 ----------------------------------------------------------------------
 # B3LYP/6-311++G(d,p) empiricaldispersion=gd3bj scf=xqc pop=npa geom=c
 heck
 ----------------------------------------------------------------------

 -------------------------------------
 CID_153879648_JID_4535_Energie_kation
 -------------------------------------
 Structure from the checkpoint file:  "JID_4535.chk"
 Charge =  1 Multiplicity = 2

 SCF Done:  E(UB3LYP) =  -630.920393368     A.U. after   33 cycles
 SCF Done:  E(UB3LYP) =  -630.920393372     a.u. after    2 cycles
 Normal termination of Gaussian 16 at Thu Dec 10 10:20:55 2020.
 Gaussian 16:  ES64L-G16RevA.03 25-Dec-2016

 ----------------------------------------------------------------------
 # B3LYP/6-311++G(d,p) empiricaldispersion=gd3bj scf=xqc pop=npa geom=c
 heck
 ----------------------------------------------------------------------

 ------------------------------------
 CID_153879648_JID_4535_Energie_anion
 ------------------------------------
 Structure from the checkpoint file:  "JID_4535.chk"
 Charge = -1 Multiplicity = 2

                         Standard orientation:
 ---------------------------------------------------------------------
 Center     Atomic      Atomic             Coordinates (Angstroms)
 Number     Number       Type             X           Y           Z
 ---------------------------------------------------------------------
      1          6           0       -4.300162    0.234165    0.951838
      2          6           0       -3.634958    0.155942   -0.432064
      3          6           0       -2.168016   -0.196277   -0.340496
      4          6           0       -1.193119    0.794540   -0.265437
      5          6           0        0.163934    0.478403   -0.130168
      6          6           0        0.530160   -0.867587   -0.070921
      7          6           0       -0.418192   -1.886278   -0.144244
      8          6           0       -1.757330   -1.540769   -0.277474
      9          8           0        1.849864   -1.253912    0.058814
     10          6           0        2.807498   -0.298915    0.137039
     11          6           0        2.549177    1.037973    0.078916
     12          6           0        1.200865    1.543139   -0.057765
     13          8           0        0.910514    2.739276   -0.115583
     14          7           0        4.038214   -0.874622    0.329330
     15          1           0       -4.220709   -0.723798    1.478078
     16          1           0       -5.362206    0.489153    0.864376
     17          1           0       -3.814254    0.995048    1.572137
     18          1           0       -4.156455   -0.590335   -1.044582
     19          1           0       -3.748076    1.118327   -0.944639
     20          1           0       -1.452118    1.848362   -0.312096
     21          1           0       -0.096670   -2.921543   -0.098851
     22          1           0       -2.504347   -2.328489   -0.336996
     23          1           0        3.365307    1.748362    0.143046
     24          1           0        4.124532   -1.831653    0.012487
     25          1           0        4.835329   -0.290004    0.120532
 ---------------------------------------------------------------------

 SCF Done:  E(UB3LYP) =  -631.229556900     A.U. after   33 cycles
 SCF Done:  E(UB3LYP) =  -631.229556900     a.u. after    1 cycles

 The electronic state is 2-A.
 Alpha  occ. eigenvalues --  -19.06727 -18.93517 -14.21327 -10.15500 -10.11967
 Alpha  occ. eigenvalues --  -10.09581 -10.07499 -10.07183 -10.06153 -10.05247
 Alpha  occ. eigenvalues --  -10.05174 -10.04724 -10.04190 -10.03180  -0.99558
 Alpha  occ. eigenvalues --   -0.87175  -0.81061  -0.74226  -0.68500  -0.65959
 Alpha  occ. eigenvalues --   -0.62508  -0.62148  -0.55072  -0.51566  -0.50349
 Alpha  occ. eigenvalues --   -0.47219  -0.43955  -0.40824  -0.39396  -0.37560
 Alpha  occ. eigenvalues --   -0.36357  -0.34979  -0.34647  -0.33309  -0.31579
 Alpha  occ. eigenvalues --   -0.31000  -0.29144  -0.28089  -0.27877  -0.27017
 Alpha  occ. eigenvalues --   -0.25629  -0.24730  -0.24243  -0.23284  -0.21920
 Alpha  occ. eigenvalues --   -0.20175  -0.13723  -0.11906  -0.10398  -0.10111
 Alpha  occ. eigenvalues --    0.04508
 Alpha virt. eigenvalues --    0.06570   0.06824   0.08645   0.09238   0.09671
 Alpha virt. eigenvalues --    0.10571   0.10891   0.11574   0.12201   0.12449
 Alpha virt. eigenvalues --    0.13092   0.13662   0.14855   0.15202   0.15416

  Beta  occ. eigenvalues --  -19.06668 -18.93295 -14.21226 -10.15316 -10.11971
  Beta  occ. eigenvalues --  -10.09421 -10.07493 -10.07185 -10.06221 -10.05105
  Beta  occ. eigenvalues --  -10.05036 -10.04683 -10.04005 -10.03246  -0.99432
  Beta  occ. eigenvalues --   -0.86763  -0.80894  -0.74039  -0.68455  -0.65706
  Beta  occ. eigenvalues --   -0.62315  -0.61936  -0.55027  -0.51182  -0.50188
  Beta  occ. eigenvalues --   -0.46981  -0.43810  -0.40618  -0.39326  -0.37377
  Beta  occ. eigenvalues --   -0.36256  -0.34700  -0.34490  -0.33221  -0.31462
  Beta  occ. eigenvalues --   -0.30915  -0.29065  -0.27996  -0.27729  -0.26874
  Beta  occ. eigenvalues --   -0.24868  -0.24652  -0.23579  -0.23219  -0.21807
  Beta  occ. eigenvalues --   -0.19594  -0.12648  -0.11457  -0.10173  -0.09609
  Beta virt. eigenvalues --    0.06791   0.08023   0.08659   0.08839   0.09215
  Beta virt. eigenvalues --    0.10307   0.10688   0.11070   0.11708   0.12652
  Beta virt. eigenvalues --    0.13062   0.13370   0.13927   0.14883   0.15247

 Mulliken charges and spin densities:
               1          2
     1  C   -0.620945  -0.005410
     2  C   -0.278611  -0.017566
     3  C    1.200121  -0.150591
     4  C   -0.205217   0.107835
     5  C    2.012756  -0.068985
     6  C   -1.290099   0.094250
     7  C   -0.376942  -0.037918
     8  C   -0.678834   0.094467
     9  O   -0.106117  -0.019171
    10  C    0.116944   0.030959
    11  C    1.141931  -0.474652
    12  C   -1.443189  -0.109671
    13  O   -0.408044   0.082748
    14  N   -0.330148  -0.012284
    15  H    0.132638   0.000394
    16  H    0.094717   0.000169
    17  H    0.142125   0.002313
    18  H    0.122508   0.006626
    19  H    0.139292   0.003324
    20  H    0.171317  -0.008710
    21  H    0.058463   0.085072
    22  H    0.110946  -0.007296
    23  H    0.040526   0.120487
    24  H   -0.346433   0.615420
    25  H   -0.399707   0.668193
 Sum of Mulliken charges =  -1.00000   1.00000

 Dipole moment (field-independent basis, Debye):
    X=             -8.7915    Y=             -2.0909    Z=              0.2267  Tot=              9.0395
 Quadrupole moment (field-independent basis, Debye-Ang):
   XX=           -144.5815   YY=           -116.1302   ZZ=            -96.2579
   XY=              6.6547   XZ=              0.3979   YZ=              0.4377

 Summary of Natural Population Analysis:

                                       Natural Population
                Natural  -----------------------------------------------
    Atom  No    Charge         Core      Valence    Rydberg      Total
 -----------------------------------------------------------------------
      C    1   -0.28107      0.99967     2.27758    0.00382     3.28107
      C    2   -0.19192      0.99961     2.18454    0.00776     3.19192
      C    3   -0.04258      0.99951     2.03425    0.00881     3.04258
      C    4   -0.04455      0.99949     2.03681    0.00825     3.04455
      C    5   -0.07651      0.99943     2.06613    0.01095     3.07651
      C    6    0.16279      0.99932     1.82509    0.01279     2.83721
      C    7   -0.10907      0.99953     2.10102    0.00853     3.10907
      C    8   -0.06294      0.99953     2.05531    0.00810     3.06294
      O    9   -0.25337      0.99983     3.24471    0.00883     4.25337
      C   10    0.30674      0.99945     1.67834    0.01547     2.69326
      C   11   -0.23595      0.99948     2.22587    0.01060     3.23595
      C   12    0.26158      0.99957     1.71802    0.02084     2.73842
      O   13   -0.30507      0.99988     3.29916    0.00603     4.30507
      N   14   -0.39259      0.99971     2.88242    0.01047     3.89259
      H   15    0.09577      0.00000     0.40322    0.00101     0.40423
      H   16    0.08948      0.00000     0.40942    0.00110     0.41052
      H   17    0.09924      0.00000     0.39978    0.00098     0.40076
      H   18    0.09248      0.00000     0.40623    0.00129     0.40752
      H   19    0.09651      0.00000     0.40228    0.00121     0.40349
      H   20    0.10583      0.00000     0.39262    0.00155     0.39417
      H   21    0.09986      0.00000     0.39866    0.00148     0.40014
      H   22    0.08935      0.00000     0.40931    0.00134     0.41065
      H   23    0.10594      0.00000     0.39280    0.00126     0.39406
      H   24    0.19528      0.00000     0.29740    0.00732     0.30472
      H   25    0.19477      0.00000     0.29846    0.00677     0.30523
 =======================================================================
   * Total *   -0.00000     13.99402    35.83945    0.16653    50.00000

 Normal termination of Gaussian 16 at Thu Dec 10 10:27:27 2020.
