 Gaussian 16, Revision A.03,

 -----------------------------------------------------------
 # opt freq B3LYP/6-31G(d) empiricaldispersion=gd3bj scf=xqc
 -----------------------------------------------------------

 ------------------------------
 CID_64598305_JID_3683_neutraal
 ------------------------------
 Symbolic Z-matrix:
 Charge =  0 Multiplicity = 1

 SCF Done:  E(RB3LYP) =  -576.661417322     A.U. after   15 cycles
 SCF Done:  E(RB3LYP) =  -576.683836120     A.U. after   13 cycles
 SCF Done:  E(RB3LYP) =  -576.684281819     A.U. after   13 cycles
 SCF Done:  E(RB3LYP) =  -576.685142973     A.U. after   13 cycles
 SCF Done:  E(RB3LYP) =  -576.685444265     A.U. after   12 cycles
 SCF Done:  E(RB3LYP) =  -576.685867212     A.U. after   12 cycles
 SCF Done:  E(RB3LYP) =  -576.685950760     A.U. after   12 cycles
 SCF Done:  E(RB3LYP) =  -576.686056267     A.U. after   12 cycles
 SCF Done:  E(RB3LYP) =  -576.686108186     A.U. after   11 cycles
 SCF Done:  E(RB3LYP) =  -576.686118388     A.U. after   11 cycles
 SCF Done:  E(RB3LYP) =  -576.686129201     A.U. after   10 cycles
 SCF Done:  E(RB3LYP) =  -576.686140185     A.U. after   10 cycles
 SCF Done:  E(RB3LYP) =  -576.686147281     A.U. after   10 cycles
 SCF Done:  E(RB3LYP) =  -576.686149706     A.U. after    9 cycles
 SCF Done:  E(RB3LYP) =  -576.686149971     A.U. after    8 cycles
 Optimization completed.
    -- Stationary point found.
 Normal termination of Gaussian 16 at Sun Dec 13 12:23:57 2020.

 --------------------------------------------------------------------
 #N Geom=AllCheck Guess=TCheck SCRF=Check GenChk RB3LYP/6-31G(d) Freq
 --------------------------------------------------------------------

 Structure from the checkpoint file:  "JID_3683.chk"
 ------------------------------
 CID_64598305_JID_3683_neutraal
 ------------------------------
 Charge =  0 Multiplicity = 1

 SCF Done:  E(RB3LYP) =  -576.686149971     A.U. after    1 cycles

  Exact polarizability: 128.848  -1.043 116.282   2.380   6.711 101.902
 Approx polarizability: 159.631   2.234 176.917   5.416  24.382 159.790

                      1                      2                      3
                      A                      A                      A
 Frequencies --     35.3434                42.9034                63.7239
 Red. masses --      3.7502                 3.4579                 5.5261
 Frc consts  --      0.0028                 0.0038                 0.0132
 IR Inten    --      0.7589                 0.4274                 3.7274

                      4                      5                      6
                      A                      A                      A
 Frequencies --     70.5047                84.2586               132.9835
 Red. masses --      3.2323                 3.3843                 6.7156
 Frc consts  --      0.0095                 0.0142                 0.0700
 IR Inten    --      1.1181                 1.7864                 5.3446

                      7                      8                      9
                      A                      A                      A
 Frequencies --    185.6991               198.1955               216.6711
 Red. masses --      3.0238                 1.4440                 1.0878
 Frc consts  --      0.0614                 0.0334                 0.0301
 IR Inten    --      1.1776                 0.5236                 0.2437

                     10                     11                     12
                      A                      A                      A
 Frequencies --    220.0023               234.5999               250.7575
 Red. masses --      2.6791                 1.1879                 2.4024
 Frc consts  --      0.0764                 0.0385                 0.0890
 IR Inten    --      3.3948                 0.1741                 1.3621

                     13                     14                     15
                      A                      A                      A
 Frequencies --    289.2901               304.0867               316.1360
 Red. masses --      2.6400                 2.5035                 1.3030
 Frc consts  --      0.1302                 0.1364                 0.0767
 IR Inten    --      2.9166                 0.2564                 0.5767

                     16                     17                     18
                      A                      A                      A
 Frequencies --    364.2631               376.2873               413.2792
 Red. masses --      2.3330                 2.3463                 1.8357
 Frc consts  --      0.1824                 0.1957                 0.1847
 IR Inten    --      1.6173                 0.9254                 0.3454

                     19                     20                     21
                      A                      A                      A
 Frequencies --    449.1961               463.0000               490.9856
 Red. masses --      4.8385                 5.0060                 2.3708
 Frc consts  --      0.5752                 0.6323                 0.3367
 IR Inten    --      3.4331                 6.7275                 1.1603

                     22                     23                     24
                      A                      A                      A
 Frequencies --    505.9421               551.3758               631.0350
 Red. masses --      4.2074                 4.4430                 1.4444
 Frc consts  --      0.6345                 0.7958                 0.3389
 IR Inten    --      1.0402                 3.1500                66.3182

                     25                     26                     27
                      A                      A                      A
 Frequencies --    665.5759               740.6611               760.7978
 Red. masses --      3.2045                 3.4742                 3.2942
 Frc consts  --      0.8364                 1.1229                 1.1234
 IR Inten    --     30.0691                21.6195                 8.7315

                     28                     29                     30
                      A                      A                      A
 Frequencies --    793.3808               887.8150               898.5062
 Red. masses --      2.4656                 1.9803                 2.2912
 Frc consts  --      0.9144                 0.9197                 1.0898
 IR Inten    --      6.5302                 6.2099                 2.1943

                     31                     32                     33
                      A                      A                      A
 Frequencies --    927.1814               942.2266               955.2404
 Red. masses --      1.7449                 1.1860                 1.7474
 Frc consts  --      0.8838                 0.6203                 0.9394
 IR Inten    --      6.0440                 1.7105                 1.6499

                     34                     35                     36
                      A                      A                      A
 Frequencies --    981.9610              1008.5219              1029.3369
 Red. masses --      1.4486                 1.3252                 1.9815
 Frc consts  --      0.8230                 0.7941                 1.2369
 IR Inten    --      1.1928                20.9769                 9.8077

                     37                     38                     39
                      A                      A                      A
 Frequencies --   1063.2897              1095.0207              1110.7161
 Red. masses --      3.0195                 2.3271                 2.2129
 Frc consts  --      2.0114                 1.6440                 1.6085
 IR Inten    --      3.8503                13.4402                17.0978

                     40                     41                     42
                      A                      A                      A
 Frequencies --   1139.9394              1151.9021              1177.9538
 Red. masses --      1.7472                 2.0136                 2.2760
 Frc consts  --      1.3377                 1.5742                 1.8607
 IR Inten    --      1.2897                 6.2391                 3.5943

                     43                     44                     45
                      A                      A                      A
 Frequencies --   1201.2552              1215.6303              1279.0467
 Red. masses --      1.8997                 1.9338                 1.4835
 Frc consts  --      1.6151                 1.6837                 1.4300
 IR Inten    --      5.5678                 2.6936                52.9489

                     46                     47                     48
                      A                      A                      A
 Frequencies --   1302.2737              1333.4853              1344.7363
 Red. masses --      1.3389                 1.3085                 1.3058
 Frc consts  --      1.3378                 1.3709                 1.3912
 IR Inten    --      2.9958                 3.0576                 6.9401

                     49                     50                     51
                      A                      A                      A
 Frequencies --   1355.1051              1368.9455              1391.0895
 Red. masses --      1.3518                 1.3386                 1.7330
 Frc consts  --      1.4625                 1.4780                 1.9759
 IR Inten    --      2.1854                 2.5759                70.4671

                     52                     53                     54
                      A                      A                      A
 Frequencies --   1404.9564              1426.8899              1429.3748
 Red. masses --      1.4107                 1.4040                 1.2527
 Frc consts  --      1.6406                 1.6842                 1.5080
 IR Inten    --      0.9513                16.2801                 2.4144

                     55                     56                     57
                      A                      A                      A
 Frequencies --   1440.6725              1445.7130              1452.9358
 Red. masses --      1.2663                 1.3233                 1.2148
 Frc consts  --      1.5485                 1.6295                 1.5109
 IR Inten    --      9.6012                32.8976                 1.4213

                     58                     59                     60
                      A                      A                      A
 Frequencies --   1508.2659              1519.7745              1521.4258
 Red. masses --      1.5293                 1.0903                 1.0509
 Frc consts  --      2.0497                 1.4838                 1.4332
 IR Inten    --     50.1958                 5.9279                 2.7436

                     61                     62                     63
                      A                      A                      A
 Frequencies --   1523.3105              1528.3369              1530.0691
 Red. masses --      1.0512                 1.0636                 1.0484
 Frc consts  --      1.4372                 1.4637                 1.4461
 IR Inten    --     10.1798                12.3743                 3.5174

                     64                     65                     66
                      A                      A                      A
 Frequencies --   1535.8747              1540.7319              1544.5866
 Red. masses --      1.0658                 1.0613                 1.0656
 Frc consts  --      1.4813                 1.4844                 1.4979
 IR Inten    --      1.0157                11.1260                 4.5754

                     67                     68                     69
                      A                      A                      A
 Frequencies --   1557.7292              1788.2802              2359.1454
 Red. masses --      1.0615                 7.8171                12.6529
 Frc consts  --      1.5176                14.7289                41.4905
 IR Inten    --     11.1814               425.0954                 9.3515

                     70                     71                     72
                      A                      A                      A
 Frequencies --   3003.3611              3025.6331              3041.0644
 Red. masses --      1.0819                 1.0831                 1.0366
 Frc consts  --      5.7497                 5.8418                 5.6483
 IR Inten    --      9.0641                17.0412                27.5347

                     73                     74                     75
                      A                      A                      A
 Frequencies --   3047.1389              3049.2810              3061.7698
 Red. masses --      1.0391                 1.0410                 1.0734
 Frc consts  --      5.6845                 5.7027                 5.9286
 IR Inten    --     32.0740                 7.2136                31.5427

                     76                     77                     78
                      A                      A                      A
 Frequencies --   3078.0064              3096.4523              3106.4699
 Red. masses --      1.0346                 1.0837                 1.1010
 Frc consts  --      5.7749                 6.1219                 6.2598
 IR Inten    --     12.7755                 0.3783                12.8904

                     79                     80                     81
                      A                      A                      A
 Frequencies --   3106.7675              3108.9047              3114.3737
 Red. masses --      1.1013                 1.1017                 1.0999
 Frc consts  --      6.2627                 6.2737                 6.2858
 IR Inten    --     21.3442                39.9776                74.5995

                     82                     83                     84
                      A                      A                      A
 Frequencies --   3128.0864              3144.4335              3150.7508
 Red. masses --      1.1011                 1.0971                 1.1044
 Frc consts  --      6.3480                 6.3909                 6.4595
 IR Inten    --     32.8589                34.0628                10.7577

                     85                     86                     87
                      A                      A                      A
 Frequencies --   3163.3634              3168.1742              3606.4299
 Red. masses --      1.0928                 1.0998                 1.0747
 Frc consts  --      6.4429                 6.5040                 8.2354
 IR Inten    --     10.3241                 8.6789                31.0001

 - Thermochemistry -
 -------------------
 Temperature   298.150 Kelvin.  Pressure   1.00000 Atm.
 Atom     1 has atomic number  6 and mass  12.00000

 Molecular mass:   182.14191 amu.
 Principal axes and moments of inertia in atomic units:
                           1         2         3
     Eigenvalues --  1570.157373863.296134484.71889
           X            0.99993  -0.00154   0.01200
           Y            0.00216   0.99866  -0.05176
           Z           -0.01190   0.05178   0.99859
 This molecule is an asymmetric top.
 Rotational symmetry number  1.
 Warning -- assumption of classical behavior for rotation
           may cause significant error
 Rotational temperatures (Kelvin)      0.05516     0.02242     0.01931
 Rotational constants (GHZ):           1.14940     0.46715     0.40242
 Zero-point vibrational energy     719378.2 (Joules/Mol)
                                  171.93552 (Kcal/Mol)
 Warning -- explicit consideration of  23 degrees of freedom as
           vibrations may cause significant error
 Vibrational temperatures:     50.85    61.73    91.68   101.44   121.23
          (Kelvin)            191.33   267.18   285.16   311.74   316.53
                              337.54   360.78   416.22   437.51   454.85
                              524.09   541.39   594.62   646.29   666.15
                              706.42   727.94   793.31   907.92   957.62
                             1065.65  1094.62  1141.50  1277.37  1292.75
                             1334.01  1355.65  1374.38  1412.82  1451.04
                             1480.99  1529.84  1575.49  1598.07  1640.12
                             1657.33  1694.81  1728.34  1749.02  1840.26
                             1873.68  1918.59  1934.78  1949.69  1969.61
                             2001.47  2021.42  2052.98  2056.55  2072.81
                             2080.06  2090.45  2170.06  2186.62  2188.99
                             2191.70  2198.94  2201.43  2209.78  2216.77
                             2222.32  2241.22  2572.94  3394.28  4321.17
                             4353.21  4375.41  4384.15  4387.24  4405.20
                             4428.56  4455.10  4469.52  4469.95  4473.02
                             4480.89  4500.62  4524.14  4533.23  4551.37
                             4558.30  5188.85

 Zero-point correction=                           0.273997 (Hartree/Particle)
 Thermal correction to Energy=                    0.289389
 Thermal correction to Enthalpy=                  0.290333
 Thermal correction to Gibbs Free Energy=         0.231047
 Sum of electronic and zero-point Energies=           -576.412153
 Sum of electronic and thermal Energies=              -576.396761
 Sum of electronic and thermal Enthalpies=            -576.395817
 Sum of electronic and thermal Free Energies=         -576.455103

                     E (Thermal)             CV                S
                      KCal/Mol        Cal/Mol-Kelvin    Cal/Mol-Kelvin
 Total                  181.594             56.094            124.777
 Electronic               0.000              0.000              0.000
 Translational            0.889              2.981             41.505
 Rotational               0.889              2.981             31.676
 Vibrational            179.817             50.132             51.596
 Vibration     1          0.594              1.982              5.504
 Vibration     2          0.595              1.980              5.120
 Vibration     3          0.597              1.972              4.338
 Vibration     4          0.598              1.968              4.139
 Vibration     5          0.601              1.960              3.789
 Vibration     6          0.613              1.920              2.902
 Vibration     7          0.632              1.859              2.270
 Vibration     8          0.637              1.842              2.150
 Vibration     9          0.646              1.816              1.987
 Vibration    10          0.647              1.811              1.959
 Vibration    11          0.654              1.788              1.843
 Vibration    12          0.663              1.761              1.725
 Vibration    13          0.686              1.694              1.478
 Vibration    14          0.695              1.666              1.394
 Vibration    15          0.703              1.643              1.330
 Vibration    16          0.738              1.546              1.104
 Vibration    17          0.747              1.521              1.054
 Vibration    18          0.777              1.441              0.915
 Vibration    19          0.808              1.363              0.798
 Vibration    20          0.821              1.332              0.757
 Vibration    21          0.847              1.270              0.681
 Vibration    22          0.861              1.237              0.643
 Vibration    23          0.907              1.137              0.541

                           ! Non-Optimized Parameters !
 Normal termination of Gaussian 16 at Sun Dec 13 12:32:05 2020.

 ----------------------------------------------------------------------
 # B3LYP/6-311++G(d,p) empiricaldispersion=gd3bj scf=xqc pop=npa geom=c
 heck
 ----------------------------------------------------------------------

 --------------------------------------
 CID_64598305_JID_3683_Energie_neutraal
 --------------------------------------
 Structure from the checkpoint file:  "JID_3683.chk"
 Charge =  0 Multiplicity = 1

 SCF Done:  E(RB3LYP) =  -576.855419638     A.U. after   15 cycles
 Normal termination of Gaussian 16 at Sun Dec 13 12:35:31 2020.

 ----------------------------------------------------------------------
 # B3LYP/6-311++G(d,p) empiricaldispersion=gd3bj scf=xqc pop=npa geom=c
 heck
 ----------------------------------------------------------------------

 ------------------------------------
 CID_64598305_JID_3683_Energie_kation
 ------------------------------------
 Structure from the checkpoint file:  "JID_3683.chk"
 Charge =  1 Multiplicity = 2

 SCF Done:  E(UB3LYP) =  -576.512370271     A.U. after   25 cycles
 Normal termination of Gaussian 16 at Sun Dec 13 12:42:58 2020.
 Gaussian 16:  ES64L-G16RevA.03 25-Dec-2016

 ----------------------------------------------------------------------
 # B3LYP/6-311++G(d,p) empiricaldispersion=gd3bj scf=xqc pop=npa geom=c
 heck
 ----------------------------------------------------------------------

 -----------------------------------
 CID_64598305_JID_3683_Energie_anion
 -----------------------------------
 Structure from the checkpoint file:  "JID_3683.chk"
 Charge = -1 Multiplicity = 2

                         Standard orientation:
 ---------------------------------------------------------------------
 Center     Atomic      Atomic             Coordinates (Angstroms)
 Number     Number       Type             X           Y           Z
 ---------------------------------------------------------------------
      1          6           0       -3.776798   -0.199272    0.798537
      2          6           0       -2.727430    0.020825   -0.301490
      3          6           0       -2.630910    1.523369   -0.608565
      4          6           0       -1.369661   -0.629136    0.070720
      5          6           0       -1.480297   -2.161124    0.128004
      6          6           0       -0.220016   -0.262055   -0.899988
      7          7           0        0.441733    1.007962   -0.622365
      8          6           0        1.578485    1.273317    0.079899
      9          8           0        1.887228    2.413550    0.399077
     10          6           0        2.502338    0.109621    0.518435
     11          6           0        1.952499   -0.614048    1.767876
     12          6           0        2.837522   -0.835275   -0.550745
     13          7           0        3.107561   -1.592828   -1.388529
     14          1           0       -3.453397    0.266450    1.738349
     15          1           0       -3.962703   -1.258726    0.995545
     16          1           0       -4.732899    0.254998    0.516097
     17          1           0       -3.081692   -0.479914   -1.216130
     18          1           0       -2.199477    2.076582    0.235065
     19          1           0       -2.033701    1.728529   -1.504286
     20          1           0       -3.627598    1.937314   -0.795743
     21          1           0       -1.082190   -0.259239    1.065771
     22          1           0       -1.729427   -2.568521   -0.859971
     23          1           0       -0.531745   -2.613597    0.438922
     24          1           0       -2.249229   -2.494632    0.829179
     25          1           0        0.535652   -1.046465   -0.886142
     26          1           0       -0.595599   -0.233169   -1.930295
     27          1           0       -0.088628    1.852443   -0.795415
     28          1           0        3.427514    0.623338    0.796498
     29          1           0        1.041196   -1.172223    1.543572
     30          1           0        2.696983   -1.313539    2.157611
     31          1           0        1.729661    0.128702    2.538911
 ---------------------------------------------------------------------

 SCF Done:  E(UB3LYP) =  -576.845372783     A.U. after   32 cycles

 The electronic state is 2-A.
 Alpha  occ. eigenvalues --  -19.00520 -14.25313 -14.22792 -10.19607 -10.14100
 Alpha  occ. eigenvalues --  -10.12830 -10.12149 -10.09215 -10.08846 -10.08582
 Alpha  occ. eigenvalues --  -10.07103 -10.06987 -10.06293  -0.95886  -0.84290
 Alpha  occ. eigenvalues --   -0.82532  -0.73338  -0.72524  -0.66587  -0.61261
 Alpha  occ. eigenvalues --   -0.59079  -0.58825  -0.53237  -0.51412  -0.47151
 Alpha  occ. eigenvalues --   -0.45821  -0.42030  -0.38323  -0.37410  -0.36477
 Alpha  occ. eigenvalues --   -0.35862  -0.34689  -0.34108  -0.32450  -0.32109
 Alpha  occ. eigenvalues --   -0.31662  -0.30214  -0.29655  -0.29183  -0.28571
 Alpha  occ. eigenvalues --   -0.28096  -0.27730  -0.26442  -0.25288  -0.24626
 Alpha  occ. eigenvalues --   -0.24130  -0.23510  -0.22542  -0.17729  -0.16972
 Alpha  occ. eigenvalues --    0.04092
 Alpha virt. eigenvalues --    0.05898   0.07006   0.07468   0.08202   0.08698
 Alpha virt. eigenvalues --    0.09069   0.09540   0.10154   0.10454   0.11126
 Alpha virt. eigenvalues --    0.11494   0.11631   0.12081   0.12261   0.13103

  Beta  occ. eigenvalues --  -19.00489 -14.25300 -14.22759 -10.19585 -10.14092
  Beta  occ. eigenvalues --  -10.12829 -10.12137 -10.09145 -10.08835 -10.08569
  Beta  occ. eigenvalues --  -10.07073 -10.06959 -10.06256  -0.95834  -0.84253
  Beta  occ. eigenvalues --   -0.82482  -0.73301  -0.72469  -0.66546  -0.61209
  Beta  occ. eigenvalues --   -0.58973  -0.58755  -0.53168  -0.51360  -0.47087
  Beta  occ. eigenvalues --   -0.45781  -0.41985  -0.38284  -0.37344  -0.36418
  Beta  occ. eigenvalues --   -0.35792  -0.34649  -0.34057  -0.32408  -0.32045
  Beta  occ. eigenvalues --   -0.31630  -0.30162  -0.29606  -0.29095  -0.28531
  Beta  occ. eigenvalues --   -0.28055  -0.27680  -0.26389  -0.25195  -0.24564
  Beta  occ. eigenvalues --   -0.24084  -0.23449  -0.22513  -0.17683  -0.16890
  Beta virt. eigenvalues --    0.06387   0.06987   0.07675   0.07926   0.08500
  Beta virt. eigenvalues --    0.09206   0.09585   0.09983   0.10403   0.10804
  Beta virt. eigenvalues --    0.11438   0.11889   0.12008   0.12363   0.12572

 Mulliken charges and spin densities:
               1          2
     1  C    0.919389  -1.614697
     2  C   -1.359778   1.810615
     3  C    0.300124  -1.012591
     4  C   -0.015791   0.419151
     5  C    0.742828  -1.499688
     6  C    0.228976  -0.861296
     7  N   -0.238817   0.147453
     8  C   -0.050551  -0.100551
     9  O   -0.314844   0.006181
    10  C   -1.050721   1.545643
    11  C    0.975700  -1.599976
    12  C    0.872506  -1.066637
    13  N   -0.339268   0.039859
    14  H   -0.270762   0.418693
    15  H   -0.066228   0.193199
    16  H   -0.311263   0.459126
    17  H   -0.140815   0.306583
    18  H    0.073695   0.095985
    19  H   -0.304891   0.419962
    20  H   -0.390506   0.549702
    21  H    0.341084  -0.148784
    22  H    0.026453   0.131630
    23  H   -0.005729   0.121506
    24  H   -0.374925   0.517885
    25  H    0.255161  -0.136896
    26  H    0.068178   0.157530
    27  H    0.447036  -0.112634
    28  H   -0.024814   0.302350
    29  H   -0.200316   0.342044
    30  H   -0.557718   0.739325
    31  H   -0.233393   0.429330
 Sum of Mulliken charges =  -1.00000   1.00000

 Dipole moment (field-independent basis, Debye):
    X=              1.2544    Y=              0.8129    Z=             -2.1891  Tot=              2.6508
 Quadrupole moment (field-independent basis, Debye-Ang):
   XX=           -162.5286   YY=           -129.3871   ZZ=           -124.5436
   XY=              4.5851   XZ=             -0.7284   YZ=              2.3596

 Summary of Natural Population Analysis:

                                       Natural Population
                Natural  -----------------------------------------------
    Atom  No    Charge         Core      Valence    Rydberg      Total
 -----------------------------------------------------------------------
      C    1   -0.28414      0.99965     2.27837    0.00613     3.28414
      C    2   -0.10991      0.99960     2.10028    0.01003     3.10991
      C    3   -0.28852      0.99965     2.28247    0.00640     3.28852
      C    4   -0.11629      0.99958     2.10677    0.00994     3.11629
      C    5   -0.28505      0.99965     2.27929    0.00611     3.28505
      C    6   -0.09142      0.99957     2.08107    0.01077     3.09142
      N    7   -0.31331      0.99966     2.80448    0.00917     3.81331
      C    8    0.35517      0.99965     1.62254    0.02265     2.64483
      O    9   -0.31791      0.99988     3.31205    0.00598     4.31791
      C   10   -0.20304      0.99948     2.19352    0.01005     3.20304
      C   11   -0.27373      0.99964     2.26734    0.00675     3.27373
      C   12    0.15755      0.99964     1.82492    0.01789     2.84245
      N   13   -0.17724      0.99979     2.66635    0.01110     3.67724
      H   14    0.09758      0.00000     0.40121    0.00121     0.40242
      H   15    0.10129      0.00000     0.39743    0.00128     0.39871
      H   16    0.10072      0.00000     0.39812    0.00115     0.39928
      H   17    0.09242      0.00000     0.40578    0.00180     0.40758
      H   18    0.09826      0.00000     0.40053    0.00120     0.40174
      H   19    0.09453      0.00000     0.40420    0.00127     0.40547
      H   20    0.10457      0.00000     0.39446    0.00097     0.39543
      H   21    0.09694      0.00000     0.40075    0.00231     0.40306
      H   22    0.09756      0.00000     0.40141    0.00103     0.40244
      H   23    0.09954      0.00000     0.39930    0.00116     0.40046
      H   24    0.10512      0.00000     0.39383    0.00105     0.39488
      H   25    0.10711      0.00000     0.39070    0.00220     0.39289
      H   26    0.09970      0.00000     0.39901    0.00130     0.40030
      H   27    0.19850      0.00000     0.29896    0.00255     0.30150
      H   28    0.13356      0.00000     0.36481    0.00163     0.36644
      H   29    0.10305      0.00000     0.39482    0.00213     0.39695
      H   30    0.10841      0.00000     0.38921    0.00238     0.39159
      H   31    0.10898      0.00000     0.38956    0.00146     0.39102
 =======================================================================
   * Total *    0.00000     12.99542    36.84353    0.16105    50.00000

 Normal termination of Gaussian 16 at Sun Dec 13 12:52:54 2020.
