 Gaussian 16, Revision A.03,

 -----------------------------------------------------------
 # opt freq B3LYP/6-31G(d) empiricaldispersion=gd3bj scf=xqc
 -----------------------------------------------------------

 ------------------------------
 CID_153685695_JID_244_neutraal
 ------------------------------
 Symbolic Z-matrix:
 Charge =  0 Multiplicity = 1

 SCF Done:  E(RB3LYP) =  -442.628762619     A.U. after   13 cycles
 SCF Done:  E(RB3LYP) =  -442.632122666     A.U. after   11 cycles
 SCF Done:  E(RB3LYP) =  -442.633085893     A.U. after   12 cycles
 SCF Done:  E(RB3LYP) =  -442.633489231     A.U. after   11 cycles
 SCF Done:  E(RB3LYP) =  -442.633580327     A.U. after   10 cycles
 SCF Done:  E(RB3LYP) =  -442.633607826     A.U. after   10 cycles
 SCF Done:  E(RB3LYP) =  -442.633609946     A.U. after    8 cycles
 SCF Done:  E(RB3LYP) =  -442.633610163     A.U. after    7 cycles
 SCF Done:  E(RB3LYP) =  -442.633610207     A.U. after    7 cycles
 Optimization completed.
    -- Stationary point found.
 Normal termination of Gaussian 16 at Tue Dec  8 10:20:31 2020.

 --------------------------------------------------------------------
 #N Geom=AllCheck Guess=TCheck SCRF=Check GenChk RB3LYP/6-31G(d) Freq
 --------------------------------------------------------------------

 Structure from the checkpoint file:  "JID_244.chk"
 ------------------------------
 CID_153685695_JID_244_neutraal
 ------------------------------
 Charge =  0 Multiplicity = 1

 SCF Done:  E(RB3LYP) =  -442.633610207     A.U. after    1 cycles

  Exact polarizability: 106.910   0.936  93.077   7.047  -4.745  74.128
 Approx polarizability: 146.074   0.912 142.426  18.194 -13.060 114.051

                      1                      2                      3
                      A                      A                      A
 Frequencies --     46.7914                76.5216               123.9579
 Red. masses --      3.2909                 3.2250                 2.1724
 Frc consts  --      0.0042                 0.0111                 0.0197
 IR Inten    --      0.7665                 0.3880                 2.8808

                      4                      5                      6
                      A                      A                      A
 Frequencies --    145.8227               184.0977               239.9609
 Red. masses --      2.3231                 2.0163                 2.1795
 Frc consts  --      0.0291                 0.0403                 0.0739
 IR Inten    --      1.8116                 0.4331                 9.0185

                      7                      8                      9
                      A                      A                      A
 Frequencies --    275.0083               317.2932               346.8391
 Red. masses --      1.1735                 2.8622                 2.2150
 Frc consts  --      0.0523                 0.1698                 0.1570
 IR Inten    --     37.1206                 6.7350                10.9069

                     10                     11                     12
                      A                      A                      A
 Frequencies --    402.9612               417.8826               470.6164
 Red. masses --      1.9805                 3.0608                 3.1256
 Frc consts  --      0.1895                 0.3149                 0.4079
 IR Inten    --      8.5159                 2.7054                 2.0097

                     13                     14                     15
                      A                      A                      A
 Frequencies --    545.5690               606.4061               625.3638
 Red. masses --      3.1776                 2.3567                 4.2123
 Frc consts  --      0.5572                 0.5106                 0.9706
 IR Inten    --      6.0663                14.4640                 6.2704

                     16                     17                     18
                      A                      A                      A
 Frequencies --    746.1261               791.6156               831.2873
 Red. masses --      2.3684                 2.4355                 2.7105
 Frc consts  --      0.7768                 0.8992                 1.1036
 IR Inten    --     11.0112                 5.9407                48.2983

                     19                     20                     21
                      A                      A                      A
 Frequencies --    856.6101               896.4559               932.1281
 Red. masses --      1.5641                 2.1983                 2.2845
 Frc consts  --      0.6762                 1.0409                 1.1695
 IR Inten    --     21.6496                56.6507                56.7313

                     22                     23                     24
                      A                      A                      A
 Frequencies --    955.2136               968.2027               979.4315
 Red. masses --      3.1722                 2.9446                 1.4229
 Frc consts  --      1.7053                 1.6263                 0.8042
 IR Inten    --     19.6940                 6.3754                44.1332

                     25                     26                     27
                      A                      A                      A
 Frequencies --    990.3312              1031.2174              1085.5024
 Red. masses --      1.5783                 1.7959                 2.0142
 Frc consts  --      0.9120                 1.1252                 1.3984
 IR Inten    --     40.4759                 4.1492                 4.3182

                     28                     29                     30
                      A                      A                      A
 Frequencies --   1132.4457              1140.7062              1176.3553
 Red. masses --      1.8204                 3.3334                 1.3561
 Frc consts  --      1.3755                 2.5556                 1.1056
 IR Inten    --     47.7040                74.3565                 6.5287

                     31                     32                     33
                      A                      A                      A
 Frequencies --   1192.8917              1198.0013              1209.1382
 Red. masses --      1.2793                 1.4514                 1.3702
 Frc consts  --      1.0726                 1.2273                 1.1802
 IR Inten    --      3.5217                 7.7567                13.7588

                     34                     35                     36
                      A                      A                      A
 Frequencies --   1226.6790              1269.3814              1309.0765
 Red. masses --      1.5843                 1.3191                 1.2946
 Frc consts  --      1.4046                 1.2523                 1.3071
 IR Inten    --     34.4311                 5.3266                 6.6500

                     37                     38                     39
                      A                      A                      A
 Frequencies --   1346.9361              1359.3230              1397.1493
 Red. masses --      1.6057                 1.3398                 1.5958
 Frc consts  --      1.7164                 1.4586                 1.8353
 IR Inten    --      4.1766                10.8267                 2.9656

                     40                     41                     42
                      A                      A                      A
 Frequencies --   1409.9078              1422.8764              1458.6724
 Red. masses --      1.2734                 1.4226                 1.6938
 Frc consts  --      1.4914                 1.6969                 2.1234
 IR Inten    --     26.9227                 6.9124                 2.9316

                     43                     44                     45
                      A                      A                      A
 Frequencies --   1485.9477              1500.3226              1512.7661
 Red. masses --      1.1047                 1.1416                 1.0871
 Frc consts  --      1.4371                 1.5140                 1.4658
 IR Inten    --      7.4861                 0.2521                 0.0428

                     46                     47                     48
                      A                      A                      A
 Frequencies --   1516.0612              1538.6122              1663.4920
 Red. masses --      1.0639                 1.0570                 6.6010
 Frc consts  --      1.4407                 1.4743                10.7623
 IR Inten    --      5.1968                 7.4084                 7.0956

                     49                     50                     51
                      A                      A                      A
 Frequencies --   1692.4963              1731.9299              2991.5111
 Red. masses --      1.0992                 6.1994                 1.0593
 Frc consts  --      1.8551                10.9562                 5.5853
 IR Inten    --     23.0344                 0.8178                43.5588

                     52                     53                     54
                      A                      A                      A
 Frequencies --   2999.6404              3004.5395              3057.3944
 Red. masses --      1.0508                 1.0713                 1.0966
 Frc consts  --      5.5708                 5.6977                 6.0394
 IR Inten    --     72.1271                23.4494                48.5689

                     55                     56                     57
                      A                      A                      A
 Frequencies --   3068.2973              3070.5547              3089.1487
 Red. masses --      1.0860                 1.0953                 1.0901
 Frc consts  --      6.0237                 6.0842                 6.1289
 IR Inten    --     50.5070                23.3402                13.4187

                     58                     59                     60
                      A                      A                      A
 Frequencies --   3139.9414              3155.9470              3177.4394
 Red. masses --      1.0984                 1.0900                 1.0857
 Frc consts  --      6.3807                 6.3965                 6.4583
 IR Inten    --     36.1272                22.7172                 7.1559

                     61                     62                     63
                      A                      A                      A
 Frequencies --   3200.6357              3442.5241              3528.2127
 Red. masses --      1.0964                 1.0497                 1.0916
 Frc consts  --      6.6175                 7.3292                 8.0065
 IR Inten    --     22.1936                 0.9527                 0.2366

 - Thermochemistry -
 -------------------
 Temperature   298.150 Kelvin.  Pressure   1.00000 Atm.
 Atom     1 has atomic number  6 and mass  12.00000

 Molecular mass:   139.09971 amu.
 Principal axes and moments of inertia in atomic units:
                           1         2         3
     Eigenvalues --   687.093882232.890282458.33107
           X            0.99995   0.00304  -0.00945
           Y           -0.00293   0.99993   0.01149
           Z            0.00948  -0.01146   0.99989
 This molecule is an asymmetric top.
 Rotational symmetry number  1.
 Warning -- assumption of classical behavior for rotation
           may cause significant error
 Rotational temperatures (Kelvin)      0.12606     0.03879     0.03523
 Rotational constants (GHZ):           2.62663     0.80825     0.73413
 Zero-point vibrational energy     530580.7 (Joules/Mol)
                                  126.81183 (Kcal/Mol)
 Warning -- explicit consideration of  14 degrees of freedom as
           vibrations may cause significant error
 Vibrational temperatures:     67.32   110.10   178.35   209.81   264.88
          (Kelvin)            345.25   395.68   456.51   499.02   579.77
                              601.24   677.11   784.95   872.48   899.76
                             1073.51  1138.96  1196.04  1232.47  1289.80
                             1341.12  1374.34  1393.03  1409.18  1424.87
                             1483.69  1561.80  1629.34  1641.22  1692.51
                             1716.31  1723.66  1739.68  1764.92  1826.36
                             1883.47  1937.94  1955.76  2010.19  2028.54
                             2047.20  2098.70  2137.95  2158.63  2176.53
                             2181.27  2213.72  2393.39  2435.12  2491.86
                             4304.12  4315.81  4322.86  4398.91  4414.60
                             4417.84  4444.60  4517.68  4540.70  4571.63
                             4605.00  4953.02  5076.31

 Zero-point correction=                           0.202088 (Hartree/Particle)
 Thermal correction to Energy=                    0.212387
 Thermal correction to Enthalpy=                  0.213331
 Thermal correction to Gibbs Free Energy=         0.166078
 Sum of electronic and zero-point Energies=           -442.431523
 Sum of electronic and thermal Energies=              -442.421223
 Sum of electronic and thermal Enthalpies=            -442.420279
 Sum of electronic and thermal Free Energies=         -442.467532

                     E (Thermal)             CV                S
                      KCal/Mol        Cal/Mol-Kelvin    Cal/Mol-Kelvin
 Total                  133.275             38.429             99.453
 Electronic               0.000              0.000              0.000
 Translational            0.889              2.981             40.702
 Rotational               0.889              2.981             29.713
 Vibrational            131.498             32.467             29.039
 Vibration     1          0.595              1.979              4.949
 Vibration     2          0.599              1.965              3.978
 Vibration     3          0.610              1.929              3.038
 Vibration     4          0.617              1.907              2.726
 Vibration     5          0.631              1.862              2.286
 Vibration     6          0.657              1.779              1.803
 Vibration     7          0.677              1.720              1.565
 Vibration     8          0.704              1.641              1.324
 Vibration     9          0.725              1.582              1.181
 Vibration    10          0.768              1.464              0.952
 Vibration    11          0.781              1.431              0.899
 Vibration    12          0.828              1.315              0.736
 Vibration    13          0.901              1.149              0.553
 Vibration    14          0.965              1.018              0.439

 Optimization completed.
    -- Stationary point found.
 Normal termination of Gaussian 16 at Tue Dec  8 10:24:50 2020.

 ----------------------------------------------------------------------
 # B3LYP/6-311++G(d,p) empiricaldispersion=gd3bj scf=xqc pop=npa geom=c
 heck
 ----------------------------------------------------------------------

 --------------------------------------
 CID_153685695_JID_244_Energie_neutraal
 --------------------------------------
 Structure from the checkpoint file:  "JID_244.chk"
 Charge =  0 Multiplicity = 1

 SCF Done:  E(RB3LYP) =  -442.767497030     A.U. after   15 cycles
 Normal termination of Gaussian 16 at Tue Dec  8 10:26:50 2020.

 ----------------------------------------------------------------------
 # B3LYP/6-311++G(d,p) empiricaldispersion=gd3bj scf=xqc pop=npa geom=c
 heck
 ----------------------------------------------------------------------

 ------------------------------------
 CID_153685695_JID_244_Energie_kation
 ------------------------------------
 Structure from the checkpoint file:  "JID_244.chk"
 Charge =  1 Multiplicity = 2

 SCF Done:  E(UB3LYP) =  -442.470801272     A.U. after   21 cycles
 Normal termination of Gaussian 16 at Tue Dec  8 10:30:43 2020.
 Gaussian 16:  ES64L-G16RevA.03 25-Dec-2016

 ----------------------------------------------------------------------
 # B3LYP/6-311++G(d,p) empiricaldispersion=gd3bj scf=xqc pop=npa geom=c
 heck
 ----------------------------------------------------------------------

 -----------------------------------
 CID_153685695_JID_244_Energie_anion
 -----------------------------------
 Structure from the checkpoint file:  "JID_244.chk"
 Charge = -1 Multiplicity = 2

                         Standard orientation:
 ---------------------------------------------------------------------
 Center     Atomic      Atomic             Coordinates (Angstroms)
 Number     Number       Type             X           Y           Z
 ---------------------------------------------------------------------
      1          6           0       -2.970493    0.244648    0.995971
      2          8           0       -2.800351    0.017198   -0.389921
      3          6           0       -1.732674   -0.875112   -0.675749
      4          6           0       -0.378454   -0.317992   -0.309760
      5          6           0        0.513343   -1.009045    0.424530
      6          6           0        1.925720   -0.501146    0.635699
      7          6           0        1.964690    1.035431    0.654043
      8          6           0        1.063049    1.658476   -0.379537
      9          6           0       -0.038048    1.020833   -0.807697
     10          7           0        2.852834   -1.001008   -0.404957
     11          1           0       -3.828269    0.913194    1.103183
     12          1           0       -2.086427    0.715089    1.448433
     13          1           0       -3.177302   -0.694521    1.534362
     14          1           0       -1.889606   -1.844111   -0.173779
     15          1           0       -1.793439   -1.042097   -1.758357
     16          1           0        0.270712   -2.009561    0.781372
     17          1           0        2.314647   -0.867921    1.591922
     18          1           0        1.651644    1.393499    1.648143
     19          1           0        3.004741    1.352710    0.519091
     20          1           0        1.294827    2.660889   -0.731644
     21          1           0       -0.724833    1.490694   -1.506479
     22          1           0        2.825925   -2.021143   -0.412675
     23          1           0        2.487562   -0.713816   -1.314495
 ---------------------------------------------------------------------

 SCF Done:  E(UB3LYP) =  -442.755474955     A.U. after   33 cycles
 SCF Done:  E(UB3LYP) =  -442.755474955     a.u. after    1 cycles

 The electronic state is 2-A.
 Alpha  occ. eigenvalues --  -19.00909 -14.16127 -10.09774 -10.09528 -10.07038
 Alpha  occ. eigenvalues --  -10.04222 -10.03457 -10.03321 -10.03104 -10.02427
 Alpha  occ. eigenvalues --   -0.92019  -0.76187  -0.69280  -0.63614  -0.59458
 Alpha  occ. eigenvalues --   -0.58771  -0.52381  -0.47081  -0.45670  -0.38392
 Alpha  occ. eigenvalues --   -0.36929  -0.36391  -0.35695  -0.34703  -0.32663
 Alpha  occ. eigenvalues --   -0.30501  -0.29453  -0.27911  -0.26583  -0.25613
 Alpha  occ. eigenvalues --   -0.25050  -0.22766  -0.20142  -0.18949  -0.18056
 Alpha  occ. eigenvalues --   -0.14711  -0.11969  -0.08960   0.05336
 Alpha virt. eigenvalues --    0.07840   0.08660   0.08907   0.09279   0.10366
 Alpha virt. eigenvalues --    0.10902   0.11332   0.11794   0.12245   0.13532
 Alpha virt. eigenvalues --    0.13930   0.14391   0.15211   0.16183   0.17536

  Beta  occ. eigenvalues --  -19.00893 -14.16047 -10.09753 -10.09525 -10.07036
  Beta  occ. eigenvalues --  -10.04231 -10.03380 -10.03163 -10.03050 -10.02229
  Beta  occ. eigenvalues --   -0.91991  -0.76002  -0.69022  -0.63443  -0.59222
  Beta  occ. eigenvalues --   -0.58647  -0.52261  -0.46928  -0.45375  -0.38289
  Beta  occ. eigenvalues --   -0.36811  -0.36321  -0.35575  -0.34578  -0.32589
  Beta  occ. eigenvalues --   -0.30383  -0.29302  -0.27784  -0.26520  -0.25412
  Beta  occ. eigenvalues --   -0.24951  -0.22633  -0.20067  -0.18833  -0.17442
  Beta  occ. eigenvalues --   -0.14605  -0.11715  -0.08090
  Beta virt. eigenvalues --    0.07702   0.08765   0.09225   0.09352   0.10005
  Beta virt. eigenvalues --    0.11030   0.11225   0.11572   0.11910   0.12491
  Beta virt. eigenvalues --    0.13786   0.14148   0.14748   0.15277   0.16230

 Mulliken charges and spin densities:
               1          2
     1  C    0.089742  -0.420661
     2  O   -0.142354   0.048084
     3  C    1.314001  -1.920139
     4  C    0.569676   0.471183
     5  C   -1.866331   1.225762
     6  C    1.346348  -1.027852
     7  C    0.378572  -1.308423
     8  C   -0.573591   0.735055
     9  C   -0.696256   0.089017
    10  N   -0.174816  -0.160819
    11  H   -0.039729   0.175043
    12  H    0.089224   0.055077
    13  H   -0.045807   0.154371
    14  H   -0.062638   0.194179
    15  H   -0.117737   0.281032
    16  H   -0.650091   0.797066
    17  H   -0.308675   0.499055
    18  H   -0.050610   0.172180
    19  H    0.147368   0.015907
    20  H   -0.085506   0.221678
    21  H    0.025378   0.125448
    22  H   -0.229971   0.461020
    23  H    0.083805   0.116737
 Sum of Mulliken charges =  -1.00000   1.00000

 Dipole moment (field-independent basis, Debye):
    X=             -2.7435    Y=              3.2592    Z=              0.6406  Tot=              4.3081
 Quadrupole moment (field-independent basis, Debye-Ang):
   XX=           -114.0690   YY=            -92.9289   ZZ=            -82.7377
   XY=              6.5776   XZ=             -2.6648   YZ=              0.7441

 Summary of Natural Population Analysis:

                                       Natural Population
                Natural  -----------------------------------------------
    Atom  No    Charge         Core      Valence    Rydberg      Total
 -----------------------------------------------------------------------
      C    1   -0.09851      0.99961     2.09038    0.00852     3.09851
      O    2   -0.29920      0.99989     3.28912    0.01019     4.29920
      C    3   -0.01457      0.99953     2.00023    0.01481     3.01457
      C    4   -0.04612      0.99946     2.03507    0.01159     3.04612
      C    5   -0.05839      0.99946     2.04663    0.01230     3.05839
      C    6   -0.02921      0.99960     2.01458    0.01503     3.02921
      C    7   -0.20995      0.99961     2.20188    0.00846     3.20995
      C    8   -0.05557      0.99955     2.04611    0.00991     3.05557
      C    9   -0.11446      0.99949     2.10473    0.01024     3.11446
      N   10   -0.41550      0.99978     2.90542    0.01030     3.91550
      H   11    0.08402      0.00000     0.41467    0.00131     0.41598
      H   12    0.08625      0.00000     0.41219    0.00156     0.41375
      H   13    0.07393      0.00000     0.42431    0.00175     0.42607
      H   14    0.07939      0.00000     0.41901    0.00159     0.42061
      H   15    0.09075      0.00000     0.40736    0.00188     0.40925
      H   16    0.09144      0.00000     0.40679    0.00177     0.40856
      H   17    0.09241      0.00000     0.40515    0.00244     0.40759
      H   18    0.10401      0.00000     0.39457    0.00143     0.39599
      H   19    0.10504      0.00000     0.39353    0.00143     0.39496
      H   20    0.08831      0.00000     0.41081    0.00088     0.41169
      H   21    0.09754      0.00000     0.40116    0.00130     0.40246
      H   22    0.17527      0.00000     0.32132    0.00341     0.32473
      H   23    0.17310      0.00000     0.32484    0.00205     0.32690
 =======================================================================
   * Total *    0.00000      9.99598    27.86987    0.13416    38.00000

 Normal termination of Gaussian 16 at Tue Dec  8 10:38:49 2020.
