 Gaussian 16, Revision A.03,

 -----------------------------------------------------------
 # opt freq B3LYP/6-31G(d) empiricaldispersion=gd3bj scf=xqc
 -----------------------------------------------------------

 -------------------------------
 CID_101834357_JID_2892_neutraal
 -------------------------------
 Symbolic Z-matrix:
 Charge =  0 Multiplicity = 1

 SCF Done:  E(RB3LYP) =  -614.169769350     A.U. after   15 cycles
 SCF Done:  E(RB3LYP) =  -614.175343387     A.U. after   12 cycles
 SCF Done:  E(RB3LYP) =  -614.177486424     A.U. after   13 cycles
 SCF Done:  E(RB3LYP) =  -614.178125069     A.U. after   14 cycles
 SCF Done:  E(RB3LYP) =  -614.179009038     A.U. after   12 cycles
 SCF Done:  E(RB3LYP) =  -614.179145173     A.U. after   13 cycles
 SCF Done:  E(RB3LYP) =  -614.179498188     A.U. after   12 cycles
 SCF Done:  E(RB3LYP) =  -614.179753285     A.U. after   12 cycles
 SCF Done:  E(RB3LYP) =  -614.179949999     A.U. after   13 cycles
 SCF Done:  E(RB3LYP) =  -614.179974692     A.U. after    9 cycles
 SCF Done:  E(RB3LYP) =  -614.180594068     A.U. after   12 cycles
 SCF Done:  E(RB3LYP) =  -614.180602426     A.U. after   10 cycles
 SCF Done:  E(RB3LYP) =  -614.180604641     A.U. after    9 cycles
 SCF Done:  E(RB3LYP) =  -614.180605308     A.U. after    9 cycles
 SCF Done:  E(RB3LYP) =  -614.180605610     A.U. after    8 cycles
 SCF Done:  E(RB3LYP) =  -614.180605640     A.U. after    7 cycles
 Optimization completed.
    -- Stationary point found.

 1\1\GINC-NODE320\FOpt\RB3LYP\6-31G(d)\C8H14O4\VSC10255\09-Dec-2020\0\\
 # opt freq B3LYP/6-31G(d) empiricaldispersion=gd3bj scf=xqc\\CID_10183
 4357_JID_2892_neutraal\\0,1\C,1.8251094636,-0.4742723163,0.545960606\C
 ,0.5603712254,0.3467312817,0.461301775\O,-0.3632241827,0.0847250785,-0
 .2827251824\C,0.4604894924,1.5207736874,1.4476899616\C,-0.1894614883,0
 .9691635779,2.7207060608\O,0.4920383491,0.4622927342,3.5923626688\C,-1
 .7030128229,1.0102563656,2.7437289329\C,-2.3513982102,0.3492579123,3.9
 756187492\O,-2.6116542824,1.2934327023,4.9977061935\C,-1.474647114,1.7

 Normal termination of Gaussian 16 at Wed Dec  9 18:12:03 2020.

 --------------------------------------------------------------------
 #N Geom=AllCheck Guess=TCheck SCRF=Check GenChk RB3LYP/6-31G(d) Freq
 --------------------------------------------------------------------

 Structure from the checkpoint file:  "JID_2892.chk"
 -------------------------------
 CID_101834357_JID_2892_neutraal
 -------------------------------
 Charge =  0 Multiplicity = 1

 SCF Done:  E(RB3LYP) =  -614.180605640     A.U. after    1 cycles

  Exact polarizability: 106.865   1.140 100.105   3.330   2.980  77.057
 Approx polarizability: 126.142   0.194 154.221   2.958  11.241 119.126

                      1                      2                      3
                      A                      A                      A
 Frequencies --     25.3613                32.5557                50.1593
 Red. masses --      4.4199                 4.3527                 4.5289
 Frc consts  --      0.0017                 0.0027                 0.0067
 IR Inten    --      0.1388                 1.6023                 6.9754

                      4                      5                      6
                      A                      A                      A
 Frequencies --     68.0395                95.2331               103.1518
 Red. masses --      2.7164                 2.0416                 4.0182
 Frc consts  --      0.0074                 0.0109                 0.0252
 IR Inten    --      4.5202                 2.6217                 3.7324

                      7                      8                      9
                      A                      A                      A
 Frequencies --    131.7953               162.2490               173.7076
 Red. masses --      5.6781                 1.7506                 1.0860
 Frc consts  --      0.0581                 0.0272                 0.0193
 IR Inten    --      0.3823                 2.4594                 0.5674

                     10                     11                     12
                      A                      A                      A
 Frequencies --    188.6515               222.8488               254.8990
 Red. masses --      1.6974                 1.1943                 3.5847
 Frc consts  --      0.0356                 0.0349                 0.1372
 IR Inten    --      7.2615                 1.8624                 4.5029

                     13                     14                     15
                      A                      A                      A
 Frequencies --    286.3002               355.0586               393.8927
 Red. masses --      4.6117                 3.0557                 2.5404
 Frc consts  --      0.2227                 0.2270                 0.2322
 IR Inten    --      1.9498                 0.4071                 2.1596

                     16                     17                     18
                      A                      A                      A
 Frequencies --    406.1176               479.7681               497.1597
 Red. masses --      2.2228                 3.6784                 3.5940
 Frc consts  --      0.2160                 0.4989                 0.5234
 IR Inten    --      0.8135                 9.8906                 3.1994

                     19                     20                     21
                      A                      A                      A
 Frequencies --    511.4062               573.5391               617.1851
 Red. masses --      3.3236                 3.5553                 3.9632
 Frc consts  --      0.5121                 0.6890                 0.8895
 IR Inten    --     23.9415                12.5209                 4.2657

                     22                     23                     24
                      A                      A                      A
 Frequencies --    656.7813               790.1434               861.1206
 Red. masses --      2.9486                 3.5885                 3.6683
 Frc consts  --      0.7494                 1.3200                 1.6027
 IR Inten    --      9.5908                12.1390                15.0676

                     25                     26                     27
                      A                      A                      A
 Frequencies --    879.0726               918.4387               964.4933
 Red. masses --      2.5323                 1.9697                 2.6422
 Frc consts  --      1.1530                 0.9790                 1.4482
 IR Inten    --     19.9400                19.6535                11.6382

                     28                     29                     30
                      A                      A                      A
 Frequencies --   1003.2026              1015.6743              1056.5441
 Red. masses --      2.5834                 2.2407                 2.5059
 Frc consts  --      1.5319                 1.3619                 1.6481
 IR Inten    --     14.3292                25.1293                50.6530

                     31                     32                     33
                      A                      A                      A
 Frequencies --   1077.8959              1103.7646              1138.6917
 Red. masses --      2.6848                 2.0095                 5.2093
 Frc consts  --      1.8378                 1.4424                 3.9796
 IR Inten    --     21.1069                98.8790               180.5914

                     34                     35                     36
                      A                      A                      A
 Frequencies --   1166.1899              1183.8063              1191.1796
 Red. masses --      2.2427                 1.7187                 1.2921
 Frc consts  --      1.7971                 1.4191                 1.0802
 IR Inten    --    146.1703                53.7031                 9.1268

                     37                     38                     39
                      A                      A                      A
 Frequencies --   1192.3125              1212.6717              1241.1892
 Red. masses --      1.4745                 1.3389                 1.6546
 Frc consts  --      1.2350                 1.1601                 1.5019
 IR Inten    --     32.0409                62.9120                47.3751

                     40                     41                     42
                      A                      A                      A
 Frequencies --   1246.0451              1269.5567              1278.4777
 Red. masses --      1.7301                 1.7798                 1.5075
 Frc consts  --      1.5826                 1.6902                 1.4518
 IR Inten    --     18.1888                35.9332                64.7862

                     43                     44                     45
                      A                      A                      A
 Frequencies --   1351.0218              1408.5312              1414.5060
 Red. masses --      1.5913                 1.2011                 1.3132
 Frc consts  --      1.7113                 1.4040                 1.5481
 IR Inten    --     62.7060                33.1293                46.1291

                     46                     47                     48
                      A                      A                      A
 Frequencies --   1426.7959              1464.2747              1491.3892
 Red. masses --      1.4147                 1.0838                 1.0720
 Frc consts  --      1.6968                 1.3691                 1.4048
 IR Inten    --     73.8948                17.7960                14.5845

                     49                     50                     51
                      A                      A                      A
 Frequencies --   1497.8287              1500.9339              1502.2757
 Red. masses --      1.1517                 1.0580                 1.0752
 Frc consts  --      1.5223                 1.4044                 1.4297
 IR Inten    --      1.8916                 4.8954                11.2368

                     52                     53                     54
                      A                      A                      A
 Frequencies --   1508.0293              1522.0757              1525.7837
 Red. masses --      1.1073                 1.0590                 1.0944
 Frc consts  --      1.4837                 1.4455                 1.5011
 IR Inten    --      7.6827                 1.3269                 3.4216

                     55                     56                     57
                      A                      A                      A
 Frequencies --   1534.1450              1541.8010              1793.4915
 Red. masses --      1.0569                 1.0500                10.5529
 Frc consts  --      1.4656                 1.4706                19.9996
 IR Inten    --     10.8295                 8.3353               253.0142

                     58                     59                     60
                      A                      A                      A
 Frequencies --   1823.8947              3017.5670              3025.9162
 Red. masses --     10.0899                 1.0369                 1.0442
 Frc consts  --     19.7760                 5.5631                 5.6330
 IR Inten    --     37.9057                54.4654                44.2566

                     61                     62                     63
                      A                      A                      A
 Frequencies --   3046.9353              3051.5438              3064.2785
 Red. masses --      1.0610                 1.0378                 1.0859
 Frc consts  --      5.8033                 5.6939                 6.0075
 IR Inten    --      1.8619                 1.9415                27.1394

                     64                     65                     66
                      A                      A                      A
 Frequencies --   3072.9701              3085.9725              3094.5994
 Red. masses --      1.1018                 1.0977                 1.0577
 Frc consts  --      6.1302                 6.1590                 5.9679
 IR Inten    --     41.6244                 5.4606                 3.7295

                     67                     68                     69
                      A                      A                      A
 Frequencies --   3105.8336              3111.6712              3139.6239
 Red. masses --      1.0915                 1.0986                 1.1009
 Frc consts  --      6.2033                 6.2670                 6.3934
 IR Inten    --     43.8069                 3.5092                39.8366

                     70                     71                     72
                      A                      A                      A
 Frequencies --   3153.4992              3159.8328              3172.8145
 Red. masses --      1.1042                 1.1098                 1.1031
 Frc consts  --      6.4699                 6.5284                 6.5425
 IR Inten    --     27.2217                 6.4754                 7.7680

 - Thermochemistry -
 -------------------
 Temperature   298.150 Kelvin.  Pressure   1.00000 Atm.
 Atom     1 has atomic number  6 and mass  12.00000

 Molecular mass:   174.08921 amu.
 Principal axes and moments of inertia in atomic units:
                           1         2         3
     Eigenvalues --  1220.494513584.048504357.24914
           X            0.99984   0.01427   0.01105
           Y           -0.01432   0.99989   0.00450
           Z           -0.01099  -0.00466   0.99993
 This molecule is an asymmetric top.
 Rotational symmetry number  1.
 Warning -- assumption of classical behavior for rotation
           may cause significant error
 Rotational temperatures (Kelvin)      0.07097     0.02417     0.01988
 Rotational constants (GHZ):           1.47870     0.50355     0.41419
 Zero-point vibrational energy     572330.4 (Joules/Mol)
                                  136.79024 (Kcal/Mol)
 Warning -- explicit consideration of  21 degrees of freedom as
           vibrations may cause significant error
 Vibrational temperatures:     36.49    46.84    72.17    97.89   137.02
          (Kelvin)            148.41   189.62   233.44   249.93   271.43
                              320.63   366.74   411.92   510.85   566.72
                              584.31   690.28   715.30   735.80   825.19
                              887.99   944.96  1136.84  1238.96  1264.79
                             1321.43  1387.69  1443.38  1461.33  1520.13
                             1550.85  1588.07  1638.32  1677.89  1703.23
                             1713.84  1715.47  1744.76  1785.79  1792.78
                             1826.61  1839.44  1943.82  2026.56  2035.16
                             2052.84  2106.76  2145.78  2155.04  2159.51
                             2161.44  2169.72  2189.93  2195.26  2207.29
                             2218.31  2580.43  2624.18  4341.61  4353.62
                             4383.86  4390.49  4408.81  4421.32  4440.03
                             4452.44  4468.60  4477.00  4517.22  4537.18
                             4546.29  4564.97

 Zero-point correction=                           0.217989 (Hartree/Particle)
 Thermal correction to Energy=                    0.232411
 Thermal correction to Enthalpy=                  0.233355
 Thermal correction to Gibbs Free Energy=         0.174537
 Sum of electronic and zero-point Energies=           -613.962617
 Sum of electronic and thermal Energies=              -613.948195
 Sum of electronic and thermal Enthalpies=            -613.947250
 Sum of electronic and thermal Free Energies=         -614.006069

                     E (Thermal)             CV                S
                      KCal/Mol        Cal/Mol-Kelvin    Cal/Mol-Kelvin
 Total                  145.840             49.322            123.794
 Electronic               0.000              0.000              0.000
 Translational            0.889              2.981             41.371
 Rotational               0.889              2.981             31.322
 Vibrational            144.063             43.361             51.101
 Vibration     1          0.593              1.985              6.163
 Vibration     2          0.594              1.983              5.667
 Vibration     3          0.595              1.978              4.811
 Vibration     4          0.598              1.969              4.209
 Vibration     5          0.603              1.953              3.550
 Vibration     6          0.605              1.947              3.394
 Vibration     7          0.612              1.922              2.920
 Vibration     8          0.622              1.889              2.523
 Vibration     9          0.627              1.875              2.395
 Vibration    10          0.633              1.855              2.241
 Vibration    11          0.649              1.806              1.936
 Vibration    12          0.665              1.755              1.696
 Vibration    13          0.684              1.699              1.496
 Vibration    14          0.731              1.565              1.144
 Vibration    15          0.761              1.483              0.985
 Vibration    16          0.771              1.457              0.940
 Vibration    17          0.836              1.295              0.711
 Vibration    18          0.853              1.256              0.665
 Vibration    19          0.867              1.225              0.630
 Vibration    20          0.930              1.088              0.497
 Vibration    21          0.977              0.996              0.421

                           ! Non-Optimized Parameters !

 1\1\GINC-NODE320\Freq\RB3LYP\6-31G(d)\C8H14O4\VSC10255\09-Dec-2020\0\\
 #N Geom=AllCheck Guess=TCheck SCRF=Check GenChk RB3LYP/6-31G(d) Freq\\
 CID_101834357_JID_2892_neutraal\\0,1\C,1.8251094636,-0.4742723163,0.54
 5960606\C,0.5603712254,0.3467312817,0.461301775\O,-0.3632241827,0.0847
 250785,-0.2827251824\C,0.4604894924,1.5207736874,1.4476899616\C,-0.189
 4614883,0.9691635779,2.7207060608\O,0.4920383491,0.4622927342,3.592362
 6688\C,-1.7030128229,1.0102563656,2.7437289329\C,-2.3513982102,0.34925
 79123,3.9756187492\O,-2.6116542824,1.2934327023,4.9977061935\C,-1.4746

 Normal termination of Gaussian 16 at Wed Dec  9 18:18:10 2020.

 ----------------------------------------------------------------------
 # B3LYP/6-311++G(d,p) empiricaldispersion=gd3bj scf=xqc pop=npa geom=c
 heck
 ----------------------------------------------------------------------

 ---------------------------------------
 CID_101834357_JID_2892_Energie_neutraal
 ---------------------------------------
 Structure from the checkpoint file:  "JID_2892.chk"
 Charge =  0 Multiplicity = 1

 SCF Done:  E(RB3LYP) =  -614.368234761     A.U. after   14 cycles
 Normal termination of Gaussian 16 at Wed Dec  9 18:20:49 2020.

 ----------------------------------------------------------------------
 # B3LYP/6-311++G(d,p) empiricaldispersion=gd3bj scf=xqc pop=npa geom=c
 heck
 ----------------------------------------------------------------------

 -------------------------------------
 CID_101834357_JID_2892_Energie_kation
 -------------------------------------
 Structure from the checkpoint file:  "JID_2892.chk"
 Charge =  1 Multiplicity = 2

 SCF Done:  E(UB3LYP) =  -614.040144343     A.U. after   23 cycles
 Normal termination of Gaussian 16 at Wed Dec  9 18:25:34 2020.
 Gaussian 16:  ES64L-G16RevA.03 25-Dec-2016

 ------------------------------------
 CID_101834357_JID_2892_Energie_anion
 ------------------------------------
 Structure from the checkpoint file:  "JID_2892.chk"
 Charge = -1 Multiplicity = 2

                         Standard orientation:
 ---------------------------------------------------------------------
 Center     Atomic      Atomic             Coordinates (Angstroms)
 Number     Number       Type             X           Y           Z
 ---------------------------------------------------------------------
      1          6           0        3.810560    0.183796    0.779974
      2          6           0        2.854988   -0.490689   -0.175394
      3          8           0        2.716481   -1.695055   -0.250032
      4          6           0        1.981750    0.450259   -1.020015
      5          6           0        0.709816    0.714205   -0.207736
      6          8           0        0.672911    1.618894    0.605479
      7          6           0       -0.411303   -0.281211   -0.420567
      8          6           0       -1.641874   -0.075749    0.484062
      9          8           0       -2.629895    0.714470   -0.150943
     10          6           0       -2.336356    2.096209   -0.237637
     11          8           0       -2.227203   -1.286335    0.863687
     12          6           0       -2.793492   -2.052062   -0.193432
     13          1           0        4.264708   -0.552922    1.444776
     14          1           0        3.273882    0.946197    1.357324
     15          1           0        4.594870    0.704296    0.215911
     16          1           0        2.485125    1.404361   -1.193569
     17          1           0        1.750277   -0.047667   -1.964347
     18          1           0       -0.704551   -0.262274   -1.478122
     19          1           0        0.024388   -1.274713   -0.244259
     20          1           0       -1.329001    0.400222    1.421524
     21          1           0       -2.040544    2.509423    0.735815
     22          1           0       -1.532157    2.309684   -0.956447
     23          1           0       -3.251499    2.585717   -0.579783
     24          1           0       -3.568542   -1.489370   -0.723204
     25          1           0       -2.032770   -2.385312   -0.913837
     26          1           0       -3.237076   -2.931979    0.277167
 ---------------------------------------------------------------------

 SCF Done:  E(UB3LYP) =  -614.370712849     A.U. after   30 cycles

 The electronic state is 2-A.
 Alpha  occ. eigenvalues --  -19.02069 -19.01606 -18.94992 -18.94976 -10.15195
 Alpha  occ. eigenvalues --  -10.10826 -10.10395 -10.09491 -10.09352 -10.04235
 Alpha  occ. eigenvalues --  -10.03691 -10.02985  -0.96290  -0.90292  -0.89250
 Alpha  occ. eigenvalues --   -0.88650  -0.65450  -0.63081  -0.60309  -0.57941
 Alpha  occ. eigenvalues --   -0.56988  -0.48299  -0.41684  -0.40475  -0.40069
 Alpha  occ. eigenvalues --   -0.38170  -0.35250  -0.34112  -0.32793  -0.32501
 Alpha  occ. eigenvalues --   -0.32231  -0.31604  -0.30671  -0.28745  -0.28612
 Alpha  occ. eigenvalues --   -0.27449  -0.25882  -0.25298  -0.23591  -0.22615
 Alpha  occ. eigenvalues --   -0.22421  -0.21461  -0.20833  -0.16485  -0.15091
 Alpha  occ. eigenvalues --   -0.11072  -0.09726   0.05225
 Alpha virt. eigenvalues --    0.07787   0.08657   0.09001   0.10244   0.11002
 Alpha virt. eigenvalues --    0.11607   0.12271   0.12327   0.12743   0.13552
 Alpha virt. eigenvalues --    0.13753   0.13980   0.14590   0.15569   0.15938

  Beta  occ. eigenvalues --  -19.02066 -19.01604 -18.94661 -18.94645 -10.15195
  Beta  occ. eigenvalues --  -10.10823 -10.10390 -10.09178 -10.08986 -10.04263
  Beta  occ. eigenvalues --  -10.03715 -10.03036  -0.96284  -0.90281  -0.88606
  Beta  occ. eigenvalues --   -0.88018  -0.65282  -0.62760  -0.60144  -0.57927
  Beta  occ. eigenvalues --   -0.56909  -0.48206  -0.41235  -0.40316  -0.39908
  Beta  occ. eigenvalues --   -0.37698  -0.34950  -0.33985  -0.32585  -0.32260
  Beta  occ. eigenvalues --   -0.32030  -0.31488  -0.30333  -0.28516  -0.28370
  Beta  occ. eigenvalues --   -0.27290  -0.25638  -0.25007  -0.23483  -0.22540
  Beta  occ. eigenvalues --   -0.21739  -0.19951  -0.19763  -0.16436  -0.15060
  Beta  occ. eigenvalues --   -0.10821  -0.09322
  Beta virt. eigenvalues --    0.07678   0.08591   0.09125   0.10160   0.11027
  Beta virt. eigenvalues --    0.11455   0.12213   0.12351   0.12520   0.12942
  Beta virt. eigenvalues --    0.13820   0.14221   0.14471   0.15601   0.15760

 Mulliken charges and spin densities:
               1          2
     1  C   -0.257366  -0.382167
     2  C    0.136005   0.117221
     3  O   -0.364580   0.116217
     4  C    0.022710  -0.078298
     5  C   -0.031446   0.340944
     6  O   -0.345288   0.126993
     7  C    0.214322  -0.526415
     8  C   -0.620971  -0.059964
     9  O   -0.129994   0.010130
    10  C   -0.130660  -0.161747
    11  O   -0.098226   0.001059
    12  C   -0.118184  -0.095521
    13  H    0.135941  -0.016184
    14  H    0.172885   0.004167
    15  H   -0.075642   0.216413
    16  H   -0.240202   0.432022
    17  H   -0.279995   0.450997
    18  H    0.015028   0.200825
    19  H    0.247586  -0.015819
    20  H    0.239187  -0.009036
    21  H    0.121666   0.019110
    22  H    0.058796   0.106196
    23  H    0.017928   0.104797
    24  H    0.091990   0.046241
    25  H    0.080665   0.045579
    26  H    0.137846   0.006241
 Sum of Mulliken charges =  -1.00000   1.00000

 Dipole moment (field-independent basis, Debye):
    X=             -5.1056    Y=             -0.1077    Z=              1.3650  Tot=              5.2860
 Quadrupole moment (field-independent basis, Debye-Ang):
   XX=           -115.6866   YY=            -97.8456   ZZ=            -92.1849
   XY=              2.6129   XZ=              6.1491   YZ=              0.3955

 Summary of Natural Population Analysis:

                                       Natural Population
                Natural  -----------------------------------------------
    Atom  No    Charge         Core      Valence    Rydberg      Total
 -----------------------------------------------------------------------
      C    1   -0.33547      0.99962     2.33130    0.00455     3.33547
      C    2    0.32298      0.99970     1.65525    0.02207     2.67702
      O    3   -0.27470      0.99987     3.26834    0.00649     4.27470
      C    4   -0.27786      0.99956     2.26881    0.00949     3.27786
      C    5    0.33165      0.99968     1.64611    0.02256     2.66835
      O    6   -0.27818      0.99987     3.27214    0.00617     4.27818
      C    7   -0.27305      0.99955     2.26452    0.00899     3.27305
      C    8    0.22669      0.99957     1.75409    0.01965     2.77331
      O    9   -0.31123      0.99987     3.30225    0.00911     4.31123
      C   10   -0.09797      0.99961     2.08981    0.00855     3.09797
      O   11   -0.29624      0.99988     3.28757    0.00879     4.29624
      C   12   -0.10482      0.99961     2.09659    0.00862     3.10482
      H   13    0.09984      0.00000     0.39923    0.00093     0.40016
      H   14    0.11432      0.00000     0.38486    0.00082     0.38568
      H   15    0.10483      0.00000     0.39366    0.00151     0.39517
      H   16    0.11048      0.00000     0.38695    0.00257     0.38952
      H   17    0.11072      0.00000     0.38687    0.00241     0.38928
      H   18    0.11159      0.00000     0.38641    0.00200     0.38841
      H   19    0.12608      0.00000     0.37280    0.00112     0.37392
      H   20    0.08632      0.00000     0.41227    0.00141     0.41368
      H   21    0.08517      0.00000     0.41363    0.00120     0.41483
      H   22    0.08494      0.00000     0.41365    0.00141     0.41506
      H   23    0.08161      0.00000     0.41741    0.00099     0.41839
      H   24    0.08640      0.00000     0.41191    0.00169     0.41360
      H   25    0.08172      0.00000     0.41702    0.00126     0.41828
      H   26    0.08422      0.00000     0.41486    0.00092     0.41578
 =======================================================================
   * Total *   -0.00000     11.99638    34.84832    0.15531    47.00000

 Normal termination of Gaussian 16 at Wed Dec  9 18:31:17 2020.
