 Gaussian 16, Revision A.03,

 -----------------------------------------------------------
 # opt freq B3LYP/6-31G(d) empiricaldispersion=gd3bj scf=xqc
 -----------------------------------------------------------

 ------------------------------
 CID_12306175_JID_1403_neutraal
 ------------------------------
 Symbolic Z-matrix:
 Charge =  0 Multiplicity = 1

 SCF Done:  E(RB3LYP) =  -459.734791145     A.U. after   13 cycles
 SCF Done:  E(RB3LYP) =  -459.737665891     A.U. after   11 cycles
 SCF Done:  E(RB3LYP) =  -459.737888662     A.U. after   11 cycles
 SCF Done:  E(RB3LYP) =  -459.737902676     A.U. after    9 cycles
 SCF Done:  E(RB3LYP) =  -459.737905860     A.U. after    9 cycles
 SCF Done:  E(RB3LYP) =  -459.737908269     A.U. after    9 cycles
 SCF Done:  E(RB3LYP) =  -459.737908630     A.U. after    8 cycles
 SCF Done:  E(RB3LYP) =  -459.737912161     A.U. after    8 cycles
 SCF Done:  E(RB3LYP) =  -459.737950149     A.U. after   11 cycles
 SCF Done:  E(RB3LYP) =  -459.737995111     A.U. after   12 cycles
 SCF Done:  E(RB3LYP) =  -459.738443924     A.U. after   10 cycles
 SCF Done:  E(RB3LYP) =  -459.738445098     A.U. after    8 cycles
 SCF Done:  E(RB3LYP) =  -459.738445429     A.U. after    7 cycles
 SCF Done:  E(RB3LYP) =  -459.738445496     A.U. after    7 cycles
 Optimization completed.
    -- Stationary point found.

 1\1\GINC-NODE357\FOpt\RB3LYP\6-31G(d)\C9H12N2\VSC10255\08-Dec-2020\0\\
 # opt freq B3LYP/6-31G(d) empiricaldispersion=gd3bj scf=xqc\\CID_12306
 175_JID_1403_neutraal\\0,1\C,1.0710823925,-0.0700101955,-0.0837156135\
 C,0.6263023185,1.3870629851,-0.0125469818\C,1.6441338368,2.3318408699,
 0.6870893028\C,1.3636078614,3.6666834657,0.0469781067\N,1.7419767872,4
 .8617078031,0.4892164968\C,1.3659171211,5.8946833003,-0.284515451\C,0.
 6369017822,5.744281489,-1.4705941081\N,0.2651625829,4.5220867865,-1.90
 97258367\C,0.6322162527,3.502402643,-1.1420994083\C,0.3624444456,2.041

 Normal termination of Gaussian 16 at Tue Dec  8 20:06:01 2020.

 --------------------------------------------------------------------
 #N Geom=AllCheck Guess=TCheck SCRF=Check GenChk RB3LYP/6-31G(d) Freq
 --------------------------------------------------------------------

 Structure from the checkpoint file:  "JID_1403.chk"
 ------------------------------
 CID_12306175_JID_1403_neutraal
 ------------------------------
 Charge =  0 Multiplicity = 1

 SCF Done:  E(RB3LYP) =  -459.738445496     A.U. after    1 cycles

  Exact polarizability: 145.539  -0.249  99.024  -0.860  -0.089  64.402
 Approx polarizability: 193.170  -0.519 170.528  -1.711  -0.253  99.569

                      1                      2                      3
                      A                      A                      A
 Frequencies --     73.6850                77.0594               135.4285
 Red. masses --      2.8956                 1.0607                 2.4566
 Frc consts  --      0.0093                 0.0037                 0.0265
 IR Inten    --      0.1507                 0.2328                 0.5203

                      4                      5                      6
                      A                      A                      A
 Frequencies --    212.8420               219.7053               255.5027
 Red. masses --      2.9015                 2.3238                 1.1631
 Frc consts  --      0.0774                 0.0661                 0.0447
 IR Inten    --      2.6098                 0.8467                 0.2324

                      7                      8                      9
                      A                      A                      A
 Frequencies --    323.2970               328.3144               398.2654
 Red. masses --      2.9653                 2.5533                 2.4897
 Frc consts  --      0.1826                 0.1622                 0.2327
 IR Inten    --      0.3299                 0.7948                 0.2915

                     10                     11                     12
                      A                      A                      A
 Frequencies --    434.8369               474.0609               482.6472
 Red. masses --      5.5146                 3.2090                 3.2067
 Frc consts  --      0.6144                 0.4249                 0.4401
 IR Inten    --      8.0644                 3.2083                 0.7300

                     13                     14                     15
                      A                      A                      A
 Frequencies --    564.8559               576.8168               646.1311
 Red. masses --      3.0389                 4.1619                 6.4155
 Frc consts  --      0.5713                 0.8159                 1.5780
 IR Inten    --      0.6609                 1.2251                 0.2595

                     16                     17                     18
                      A                      A                      A
 Frequencies --    739.6377               767.0985               807.8468
 Red. masses --      5.1333                 3.5884                 3.5038
 Frc consts  --      1.6546                 1.2441                 1.3473
 IR Inten    --      1.9518                 0.2219                 1.0542

                     19                     20                     21
                      A                      A                      A
 Frequencies --    839.7854               906.9869               915.1238
 Red. masses --      3.2690                 1.4843                 1.4945
 Frc consts  --      1.3583                 0.7194                 0.7374
 IR Inten    --      0.5146                 1.9151                 1.8427

                     22                     23                     24
                      A                      A                      A
 Frequencies --    939.5222               958.6070               986.3323
 Red. masses --      1.3693                 1.7322                 3.6662
 Frc consts  --      0.7122                 0.9379                 2.1014
 IR Inten    --      5.6257                 0.9240                 5.1059

                     25                     26                     27
                      A                      A                      A
 Frequencies --   1032.0926              1060.0357              1074.7328
 Red. masses --      1.6599                 1.7421                 1.5929
 Frc consts  --      1.0418                 1.1534                 1.0840
 IR Inten    --      0.2109                 4.0339                 3.5130

                     28                     29                     30
                      A                      A                      A
 Frequencies --   1118.7084              1139.2467              1155.9836
 Red. masses --      2.0116                 2.5984                 1.3343
 Frc consts  --      1.4833                 1.9870                 1.0505
 IR Inten    --      1.7722                 6.7980                 1.8595

                     31                     32                     33
                      A                      A                      A
 Frequencies --   1200.8482              1227.2807              1249.3292
 Red. masses --      2.6369                 6.1065                 1.4465
 Frc consts  --      2.2404                 5.4192                 1.3302
 IR Inten    --      6.3552                33.0544                 1.2315

                     34                     35                     36
                      A                      A                      A
 Frequencies --   1267.0975              1289.2368              1322.1455
 Red. masses --      1.4595                 1.6198                 1.9206
 Frc consts  --      1.3806                 1.5863                 1.9780
 IR Inten    --      1.3788                 4.2940                30.4603

                     37                     38                     39
                      A                      A                      A
 Frequencies --   1350.1981              1363.7570              1396.1484
 Red. masses --      2.5864                 1.3178                 1.6329
 Frc consts  --      2.7780                 1.4440                 1.8754
 IR Inten    --     12.2891                 2.1617                 4.4277

                     40                     41                     42
                      A                      A                      A
 Frequencies --   1410.2216              1439.8282              1441.7550
 Red. masses --      7.0891                 1.2710                 1.2731
 Frc consts  --      8.3064                 1.5524                 1.5591
 IR Inten    --     83.1886                 0.6623                 3.3037

                     43                     44                     45
                      A                      A                      A
 Frequencies --   1491.7929              1503.2805              1506.2939
 Red. masses --      2.3020                 1.1530                 1.0453
 Frc consts  --      3.0184                 1.5351                 1.3973
 IR Inten    --     35.7709                 5.3906                 5.8062

                     46                     47                     48
                      A                      A                      A
 Frequencies --   1512.9069              1522.3637              1527.1824
 Red. masses --      1.1375                 1.1949                 1.0510
 Frc consts  --      1.5340                 1.6316                 1.4443
 IR Inten    --      3.5710                 7.2148                 2.4183

                     49                     50                     51
                      A                      A                      A
 Frequencies --   1529.7454              1609.5584              1632.0908
 Red. masses --      1.0464                10.8555                 5.7127
 Frc consts  --      1.4427                16.5697                 8.9657
 IR Inten    --      8.7029                 1.8248                 5.1658

                     52                     53                     54
                      A                      A                      A
 Frequencies --   3020.6039              3023.0671              3036.3444
 Red. masses --      1.0743                 1.0703                 1.0731
 Frc consts  --      5.7751                 5.7629                 5.8292
 IR Inten    --      7.0925                16.9447                20.0004

                     55                     56                     57
                      A                      A                      A
 Frequencies --   3042.4856              3055.9173              3103.7775
 Red. masses --      1.0425                 1.0361                 1.0974
 Frc consts  --      5.6855                 5.7007                 6.2290
 IR Inten    --     49.1239                20.2211                 3.0030

                     58                     59                     60
                      A                      A                      A
 Frequencies --   3105.2483              3110.1787              3112.5199
 Red. masses --      1.0925                 1.0976                 1.1026
 Frc consts  --      6.2067                 6.2558                 6.2933
 IR Inten    --     20.4600                58.8341                26.2477

                     61                     62                     63
                      A                      A                      A
 Frequencies --   3114.6508              3137.9369              3177.8793
 Red. masses --      1.1010                 1.1027                 1.0912
 Frc consts  --      6.2929                 6.3974                 6.4930
 IR Inten    --     13.5536                13.6361                33.1309

 - Thermochemistry -
 -------------------
 Temperature   298.150 Kelvin.  Pressure   1.00000 Atm.
 Atom     1 has atomic number  6 and mass  12.00000

 Molecular mass:   148.10005 amu.
 Principal axes and moments of inertia in atomic units:
                           1         2         3
     Eigenvalues --   593.824352578.103623096.32474
           X            0.99999  -0.00290  -0.00211
           Y            0.00290   1.00000  -0.00100
           Z            0.00211   0.00099   1.00000
 This molecule is an asymmetric top.
 Rotational symmetry number  1.
 Warning -- assumption of classical behavior for rotation
           may cause significant error
 Rotational temperatures (Kelvin)      0.14586     0.03360     0.02797
 Rotational constants (GHZ):           3.03918     0.70003     0.58287
 Zero-point vibrational energy     517258.4 (Joules/Mol)
                                  123.62774 (Kcal/Mol)
 Warning -- explicit consideration of  14 degrees of freedom as
           vibrations may cause significant error
 Vibrational temperatures:    106.02   110.87   194.85   306.23   316.11
          (Kelvin)            367.61   465.15   472.37   573.02   625.63
                              682.07   694.42   812.70   829.91   929.64
                             1064.17  1103.68  1162.31  1208.26  1304.95
                             1316.66  1351.76  1379.22  1419.11  1484.95
                             1525.15  1546.30  1609.57  1639.12  1663.20
                             1727.75  1765.78  1797.51  1823.07  1854.92
                             1902.27  1942.63  1962.14  2008.75  2028.99
                             2071.59  2074.36  2146.36  2162.89  2167.22
                             2176.74  2190.34  2197.27  2200.96  2315.80
                             2348.21  4345.98  4349.52  4368.62  4377.46
                             4396.78  4465.64  4467.76  4474.85  4478.22
                             4481.29  4514.79  4572.26

 Zero-point correction=                           0.197013 (Hartree/Particle)
 Thermal correction to Energy=                    0.206847
 Thermal correction to Enthalpy=                  0.207791
 Thermal correction to Gibbs Free Energy=         0.161786
 Sum of electronic and zero-point Energies=           -459.541432
 Sum of electronic and thermal Energies=              -459.531598
 Sum of electronic and thermal Enthalpies=            -459.530654
 Sum of electronic and thermal Free Energies=         -459.576659

                     E (Thermal)             CV                S
                      KCal/Mol        Cal/Mol-Kelvin    Cal/Mol-Kelvin
 Total                  129.799             37.927             96.826
 Electronic               0.000              0.000              0.000
 Translational            0.889              2.981             40.889
 Rotational               0.889              2.981             29.940
 Vibrational            128.021             31.965             25.998
 Vibration     1          0.599              1.966              4.052
 Vibration     2          0.599              1.964              3.964
 Vibration     3          0.613              1.918              2.867
 Vibration     4          0.644              1.821              2.019
 Vibration     5          0.647              1.811              1.962
 Vibration     6          0.666              1.753              1.692
 Vibration     7          0.708              1.629              1.293
 Vibration     8          0.712              1.619              1.268
 Vibration     9          0.765              1.474              0.969
 Vibration    10          0.795              1.394              0.843
 Vibration    11          0.831              1.308              0.726
 Vibration    12          0.839              1.289              0.703
 Vibration    13          0.921              1.107              0.514
 Vibration    14          0.933              1.081              0.491

 Optimization completed.
    -- Stationary point found.

 1\1\GINC-NODE357\Freq\RB3LYP\6-31G(d)\C9H12N2\VSC10255\08-Dec-2020\0\\
 #N Geom=AllCheck Guess=TCheck SCRF=Check GenChk RB3LYP/6-31G(d) Freq\\
 CID_12306175_JID_1403_neutraal\\0,1\C,1.0710823925,-0.0700101955,-0.08
 37156135\C,0.6263023185,1.3870629851,-0.0125469818\C,1.6441338368,2.33
 18408699,0.6870893028\C,1.3636078614,3.6666834657,0.0469781067\N,1.741
 9767872,4.8617078031,0.4892164968\C,1.3659171211,5.8946833003,-0.28451
 5451\C,0.6369017822,5.744281489,-1.4705941081\N,0.2651625829,4.5220867
 865,-1.9097258367\C,0.6322162527,3.502402643,-1.1420994083\C,0.3624444

 Normal termination of Gaussian 16 at Tue Dec  8 20:10:10 2020.

 ----------------------------------------------------------------------
 # B3LYP/6-311++G(d,p) empiricaldispersion=gd3bj scf=xqc pop=npa geom=c
 heck
 ----------------------------------------------------------------------

 --------------------------------------
 CID_12306175_JID_1403_Energie_neutraal
 --------------------------------------
 Structure from the checkpoint file:  "JID_1403.chk"
 Charge =  0 Multiplicity = 1

 SCF Done:  E(RB3LYP) =  -459.856746032     A.U. after   14 cycles
 Normal termination of Gaussian 16 at Tue Dec  8 20:12:07 2020.

 ----------------------------------------------------------------------
 # B3LYP/6-311++G(d,p) empiricaldispersion=gd3bj scf=xqc pop=npa geom=c
 heck
 ----------------------------------------------------------------------

 ------------------------------------
 CID_12306175_JID_1403_Energie_kation
 ------------------------------------
 Structure from the checkpoint file:  "JID_1403.chk"
 Charge =  1 Multiplicity = 2

 SCF Done:  E(UB3LYP) =  -459.534842556     A.U. after   33 cycles
 SCF Done:  E(UB3LYP) =  -459.534842751     a.u. after    2 cycles
 Normal termination of Gaussian 16 at Tue Dec  8 20:19:23 2020.
 Gaussian 16:  ES64L-G16RevA.03 25-Dec-2016

 -----------------------------------
 CID_12306175_JID_1403_Energie_anion
 -----------------------------------
 Structure from the checkpoint file:  "JID_1403.chk"
 Charge = -1 Multiplicity = 2

                         Standard orientation:
 ---------------------------------------------------------------------
 Center     Atomic      Atomic             Coordinates (Angstroms)
 Number     Number       Type             X           Y           Z
 ---------------------------------------------------------------------
      1          6           0       -3.735238   -0.376898    0.152118
      2          6           0       -2.322998   -0.172323   -0.386105
      3          6           0       -1.664365    1.169383    0.042968
      4          6           0       -0.192641    0.847202    0.021299
      5          7           0        0.816168    1.712709    0.016320
      6          6           0        2.038844    1.154049    0.007226
      7          6           0        2.254385   -0.229572    0.008429
      8          7           0        1.218179   -1.096138    0.019742
      9          6           0        0.010489   -0.543683    0.023182
     10          6           0       -1.310059   -1.269501    0.047050
     11          6           0        3.639069   -0.817008   -0.006136
     12          1           0       -4.153511   -1.333288   -0.182256
     13          1           0       -4.408270    0.419811   -0.185056
     14          1           0       -3.737153   -0.375373    1.249319
     15          1           0       -2.357070   -0.179192   -1.484157
     16          1           0       -1.928286    2.008295   -0.608386
     17          1           0       -1.973444    1.444377    1.062777
     18          1           0        2.884694    1.838427   -0.003444
     19          1           0       -1.324033   -2.152381   -0.599449
     20          1           0       -1.526559   -1.615797    1.068993
     21          1           0        3.788640   -1.466232    0.863662
     22          1           0        3.783082   -1.436930   -0.898204
     23          1           0        4.406559   -0.037606    0.003575
 ---------------------------------------------------------------------

 SCF Done:  E(UB3LYP) =  -459.850433763     A.U. after   33 cycles
 SCF Done:  E(UB3LYP) =  -459.850433763     a.u. after    1 cycles

 The electronic state is 2-A.
 Alpha  occ. eigenvalues --  -14.14094 -14.14005 -10.05662 -10.05159 -10.04521
 Alpha  occ. eigenvalues --  -10.04502 -10.04387 -10.04277 -10.04224 -10.03661
 Alpha  occ. eigenvalues --  -10.03637  -0.81459  -0.74197  -0.70508  -0.63433
 Alpha  occ. eigenvalues --   -0.59480  -0.57182  -0.53274  -0.47899  -0.44894
 Alpha  occ. eigenvalues --   -0.43681  -0.37511  -0.34872  -0.32593  -0.31190
 Alpha  occ. eigenvalues --   -0.30277  -0.28667  -0.28019  -0.27432  -0.27221
 Alpha  occ. eigenvalues --   -0.26147  -0.24159  -0.22608  -0.21266  -0.20033
 Alpha  occ. eigenvalues --   -0.19994  -0.16605  -0.14561  -0.09857  -0.08400
 Alpha  occ. eigenvalues --    0.05632
 Alpha virt. eigenvalues --    0.07544   0.08760   0.09975   0.10454   0.10993
 Alpha virt. eigenvalues --    0.11288   0.12100   0.12984   0.13103   0.13265
 Alpha virt. eigenvalues --    0.13660   0.14661   0.15139   0.16762   0.17215

  Beta  occ. eigenvalues --  -14.13554 -14.13498 -10.05621 -10.05157 -10.04468
  Beta  occ. eigenvalues --  -10.04446 -10.04346 -10.04247 -10.04232 -10.03668
  Beta  occ. eigenvalues --  -10.03647  -0.80811  -0.73320  -0.70333  -0.63250
  Beta  occ. eigenvalues --   -0.59333  -0.57066  -0.53100  -0.47383  -0.44702
  Beta  occ. eigenvalues --   -0.43577  -0.37283  -0.34724  -0.32409  -0.31067
  Beta  occ. eigenvalues --   -0.29884  -0.28525  -0.27884  -0.27304  -0.27120
  Beta  occ. eigenvalues --   -0.25994  -0.23298  -0.22449  -0.21170  -0.19944
  Beta  occ. eigenvalues --   -0.19718  -0.14106  -0.13856  -0.08926  -0.07830
  Beta virt. eigenvalues --    0.08155   0.08699   0.10294   0.10441   0.11054
  Beta virt. eigenvalues --    0.11344   0.11765   0.12279   0.13091   0.13158
  Beta virt. eigenvalues --    0.13480   0.13722   0.14801   0.15186   0.16708

 Mulliken charges and spin densities:
               1          2
     1  C    0.664976  -1.430313
     2  C   -0.159450   0.925612
     3  C   -0.717971  -0.328601
     4  C    0.288065   0.057351
     5  N   -0.119588   0.258275
     6  C   -0.325347   0.062951
     7  C    0.347009   0.009335
     8  N   -0.089336   0.259285
     9  C    0.244670  -0.017728
    10  C   -1.065965  -0.156776
    11  C   -0.293090  -0.044492
    12  H   -0.323352   0.456204
    13  H   -0.311360   0.443484
    14  H    0.055558   0.070574
    15  H   -0.004900   0.177115
    16  H    0.016707   0.115649
    17  H    0.147189  -0.005916
    18  H    0.128919  -0.003022
    19  H    0.013251   0.123172
    20  H    0.150209  -0.004155
    21  H    0.128461   0.005315
    22  H    0.109359   0.026945
    23  H    0.115987  -0.000264
 Sum of Mulliken charges =  -1.00000   1.00000

 Dipole moment (field-independent basis, Debye):
    X=              2.9723    Y=             -0.0949    Z=              1.2658  Tot=              3.2320
 Quadrupole moment (field-independent basis, Debye-Ang):
   XX=           -115.5028   YY=            -93.9692   ZZ=            -78.3442
   XY=             -1.6024   XZ=             -4.9221   YZ=             -0.7676

 Summary of Natural Population Analysis:

                                       Natural Population
                Natural  -----------------------------------------------
    Atom  No    Charge         Core      Valence    Rydberg      Total
 -----------------------------------------------------------------------
      C    1   -0.28232      0.99965     2.27665    0.00602     3.28232
      C    2   -0.10720      0.99962     2.09680    0.01078     3.10720
      C    3   -0.19863      0.99960     2.18873    0.01031     3.19863
      C    4    0.08579      0.99946     1.89852    0.01623     2.91421
      N    5   -0.15809      0.99967     2.64563    0.01279     3.65809
      C    6   -0.00297      0.99953     1.98998    0.01345     3.00297
      C    7    0.08047      0.99955     1.90765    0.01233     2.91953
      N    8   -0.17249      0.99964     2.66013    0.01272     3.67249
      C    9    0.10224      0.99947     1.88392    0.01437     2.89776
      C   10   -0.19889      0.99960     2.18933    0.00995     3.19889
      C   11   -0.29285      0.99964     2.28839    0.00482     3.29285
      H   12    0.09775      0.00000     0.40110    0.00114     0.40225
      H   13    0.09763      0.00000     0.40123    0.00114     0.40237
      H   14    0.09231      0.00000     0.40672    0.00097     0.40769
      H   15    0.09241      0.00000     0.40565    0.00194     0.40759
      H   16    0.10149      0.00000     0.39632    0.00219     0.39851
      H   17    0.09466      0.00000     0.40385    0.00149     0.40534
      H   18    0.07880      0.00000     0.42004    0.00117     0.42120
      H   19    0.10224      0.00000     0.39570    0.00206     0.39776
      H   20    0.09554      0.00000     0.40306    0.00140     0.40446
      H   21    0.09982      0.00000     0.39900    0.00118     0.40018
      H   22    0.10004      0.00000     0.39877    0.00119     0.39996
      H   23    0.09223      0.00000     0.40688    0.00089     0.40777
 =======================================================================
   * Total *   -0.00000     10.99543    28.86403    0.14053    40.00000

 Normal termination of Gaussian 16 at Tue Dec  8 20:24:11 2020.
