 Gaussian 16, Revision A.03,

 -----------------------------------------------------------
 # opt freq B3LYP/6-31G(d) empiricaldispersion=gd3bj scf=xqc
 -----------------------------------------------------------

 ------------------------------
 CID_84152987_JID_7113_neutraal
 ------------------------------
 Symbolic Z-matrix:
 Charge =  0 Multiplicity = 1

 SCF Done:  E(RB3LYP) =  -785.861802136     A.U. after   14 cycles
 SCF Done:  E(RB3LYP) =  -785.868902800     A.U. after   12 cycles
 SCF Done:  E(RB3LYP) =  -785.869284252     A.U. after   11 cycles
 SCF Done:  E(RB3LYP) =  -785.870080969     A.U. after   12 cycles
 SCF Done:  E(RB3LYP) =  -785.870270321     A.U. after   12 cycles
 SCF Done:  E(RB3LYP) =  -785.870580938     A.U. after   11 cycles
 SCF Done:  E(RB3LYP) =  -785.870656747     A.U. after   10 cycles
 SCF Done:  E(RB3LYP) =  -785.870733887     A.U. after   10 cycles
 SCF Done:  E(RB3LYP) =  -785.870835651     A.U. after   11 cycles
 SCF Done:  E(RB3LYP) =  -785.870878908     A.U. after   11 cycles
 SCF Done:  E(RB3LYP) =  -785.880626132     A.U. after   11 cycles
 SCF Done:  E(RB3LYP) =  -785.880625688     A.U. after   10 cycles
 SCF Done:  E(RB3LYP) =  -785.880630077     A.U. after    9 cycles
 SCF Done:  E(RB3LYP) =  -785.880630228     A.U. after    8 cycles
 SCF Done:  E(RB3LYP) =  -785.880630257     A.U. after    8 cycles
 SCF Done:  E(RB3LYP) =  -785.880630269     A.U. after    6 cycles
 Optimization completed.
    -- Stationary point found.
 Normal termination of Gaussian 16 at Mon Dec 14 17:13:32 2020.

 --------------------------------------------------------------------
 #N Geom=AllCheck Guess=TCheck SCRF=Check GenChk RB3LYP/6-31G(d) Freq
 --------------------------------------------------------------------

 Structure from the checkpoint file:  "JID_7113.chk"
 ------------------------------
 CID_84152987_JID_7113_neutraal
 ------------------------------
 Charge =  0 Multiplicity = 1

 SCF Done:  E(RB3LYP) =  -785.880630269     A.U. after    1 cycles

  Exact polarizability: 177.397  -2.345 138.639   2.915  -4.012 127.542
 Approx polarizability: 206.537  -4.250 207.950   6.590 -14.638 201.141

                      1                      2                      3
                      A                      A                      A
 Frequencies --     23.4006                33.7956                43.4054
 Red. masses --      3.2456                 3.1488                 4.0850
 Frc consts  --      0.0010                 0.0021                 0.0045
 IR Inten    --      0.4038                 0.1264                 1.0368

                      4                      5                      6
                      A                      A                      A
 Frequencies --     47.9120                58.3645                70.0593
 Red. masses --      3.9768                 3.9021                 3.4937
 Frc consts  --      0.0054                 0.0078                 0.0101
 IR Inten    --      0.5696                 2.1202                 2.3172

                      7                      8                      9
                      A                      A                      A
 Frequencies --    130.5327               149.3172               170.2693
 Red. masses --      3.0733                 3.3527                 3.2277
 Frc consts  --      0.0309                 0.0440                 0.0551
 IR Inten    --      7.3975                 1.5396                 4.3562

                     10                     11                     12
                      A                      A                      A
 Frequencies --    214.4233               229.9253               245.6569
 Red. masses --      2.9157                 2.2739                 1.7172
 Frc consts  --      0.0790                 0.0708                 0.0611
 IR Inten    --      0.5708                 5.1596                 3.9676

                     13                     14                     15
                      A                      A                      A
 Frequencies --    250.7232               276.3063               285.9240
 Red. masses --      1.5236                 2.3766                 1.2777
 Frc consts  --      0.0564                 0.1069                 0.0615
 IR Inten    --      1.6834                 1.3938                 6.3469

                     16                     17                     18
                      A                      A                      A
 Frequencies --    306.2302               331.5092               361.9513
 Red. masses --      5.1040                 1.9909                 2.9124
 Frc consts  --      0.2820                 0.1289                 0.2248
 IR Inten    --      4.4329                 2.7305                 5.4387

                     19                     20                     21
                      A                      A                      A
 Frequencies --    408.5946               440.1576               451.1104
 Red. masses --      2.1233                 2.2927                 2.3820
 Frc consts  --      0.2089                 0.2617                 0.2856
 IR Inten    --      1.2046                 3.3692                11.8673

                     22                     23                     24
                      A                      A                      A
 Frequencies --    486.0386               498.0575               521.0983
 Red. masses --      2.8042                 3.5965                 4.6556
 Frc consts  --      0.3903                 0.5256                 0.7448
 IR Inten    --      6.9439                 8.5802                 7.5458

                     25                     26                     27
                      A                      A                      A
 Frequencies --    571.1593               591.3546               648.1464
 Red. masses --      4.2353                 1.8991                 3.0321
 Frc consts  --      0.8140                 0.3913                 0.7505
 IR Inten    --     27.2453                 3.2054                10.8734

                     28                     29                     30
                      A                      A                      A
 Frequencies --    674.1337               696.7806               771.7495
 Red. masses --      2.9935                 3.5067                 3.3943
 Frc consts  --      0.8015                 1.0031                 1.1911
 IR Inten    --      2.5689                 3.1666                14.4865

                     31                     32                     33
                      A                      A                      A
 Frequencies --    822.5759               826.2623               839.1466
 Red. masses --      3.2232                 2.6159                 2.3689
 Frc consts  --      1.2849                 1.0522                 0.9828
 IR Inten    --     14.2167                49.1633                25.7264

                     34                     35                     36
                      A                      A                      A
 Frequencies --    889.7854               895.0258               919.1527
 Red. masses --      1.6128                 1.9636                 1.9978
 Frc consts  --      0.7523                 0.9268                 0.9944
 IR Inten    --      1.7025                 6.0149                 4.4975

                     37                     38                     39
                      A                      A                      A
 Frequencies --    927.2421               939.2734               954.1968
 Red. masses --      2.5575                 2.5799                 1.9608
 Frc consts  --      1.2955                 1.3410                 1.0519
 IR Inten    --     18.7188                 1.1207                32.1697

                     40                     41                     42
                      A                      A                      A
 Frequencies --    964.7383               998.7328              1007.0119
 Red. masses --      1.8013                 2.2167                 1.9457
 Frc consts  --      0.9878                 1.3027                 1.1625
 IR Inten    --      7.0738                 3.5894                19.2498

                     43                     44                     45
                      A                      A                      A
 Frequencies --   1032.7758              1056.3609              1082.8035
 Red. masses --      2.2978                 1.8901                 2.5766
 Frc consts  --      1.4440                 1.2427                 1.7799
 IR Inten    --      5.4677                14.3643                80.2860

                     46                     47                     48
                      A                      A                      A
 Frequencies --   1090.8250              1094.8771              1115.6036
 Red. masses --      2.3391                 1.5029                 3.4554
 Frc consts  --      1.6399                 1.0615                 2.5338
 IR Inten    --     18.0659                11.6276                64.0466

                     49                     50                     51
                      A                      A                      A
 Frequencies --   1125.0553              1141.1370              1156.5058
 Red. masses --      3.2217                 1.3035                 2.0702
 Frc consts  --      2.4026                 1.0001                 1.6314
 IR Inten    --     85.2362                13.0375                 7.4673

                     52                     53                     54
                      A                      A                      A
 Frequencies --   1163.8273              1170.8449              1190.1683
 Red. masses --      2.2338                 2.7191                 1.4428
 Frc consts  --      1.7826                 2.1962                 1.2042
 IR Inten    --     14.3109                29.9646                 5.0939

                     55                     56                     57
                      A                      A                      A
 Frequencies --   1211.3037              1219.5661              1225.5047
 Red. masses --      1.4693                 1.4156                 1.7648
 Frc consts  --      1.2701                 1.2405                 1.5616
 IR Inten    --      1.6686                 3.5482                11.4287

                     58                     59                     60
                      A                      A                      A
 Frequencies --   1242.3203              1256.4357              1276.4649
 Red. masses --      1.6567                 1.5993                 1.3446
 Frc consts  --      1.5064                 1.4875                 1.2908
 IR Inten    --      8.2092                 6.8218                52.9933

                     61                     62                     63
                      A                      A                      A
 Frequencies --   1282.7966              1310.4549              1318.4290
 Red. masses --      1.4330                 1.5620                 1.3119
 Frc consts  --      1.3893                 1.5804                 1.3436
 IR Inten    --     60.9681                16.6369                 0.4772

                     64                     65                     66
                      A                      A                      A
 Frequencies --   1332.9307              1351.9135              1352.7795
 Red. masses --      1.7465                 1.4595                 1.8692
 Frc consts  --      1.8282                 1.5716                 2.0153
 IR Inten    --     36.4959                18.5873                 7.1800

                     67                     68                     69
                      A                      A                      A
 Frequencies --   1354.7955              1372.9623              1376.9088
 Red. masses --      1.4414                 1.2852                 1.3424
 Frc consts  --      1.5588                 1.4274                 1.4994
 IR Inten    --      9.2206                10.3551                14.0467

                     70                     71                     72
                      A                      A                      A
 Frequencies --   1390.2645              1399.7242              1409.7534
 Red. masses --      1.4395                 1.2855                 1.4360
 Frc consts  --      1.6393                 1.4839                 1.6815
 IR Inten    --     22.1930                11.9741                30.9399

                     73                     74                     75
                      A                      A                      A
 Frequencies --   1415.7553              1418.6476              1430.0249
 Red. masses --      1.3280                 1.3163                 1.5074
 Frc consts  --      1.5683                 1.5609                 1.8162
 IR Inten    --      1.3315                18.4395                 6.7108

                     76                     77                     78
                      A                      A                      A
 Frequencies --   1474.7897              1476.3914              1486.1303
 Red. masses --      1.1422                 1.2565                 1.1073
 Frc consts  --      1.4637                 1.6137                 1.4408
 IR Inten    --      1.2329                22.3878                 1.5592

                     79                     80                     81
                      A                      A                      A
 Frequencies --   1499.5290              1505.0751              1508.7290
 Red. masses --      1.0659                 1.3933                 1.2986
 Frc consts  --      1.4121                 1.8596                 1.7417
 IR Inten    --      8.7603                15.1618                75.2965

                     82                     83                     84
                      A                      A                      A
 Frequencies --   1510.4916              1515.6588              1516.4790
 Red. masses --      1.0920                 1.0900                 1.1764
 Frc consts  --      1.4679                 1.4753                 1.5939
 IR Inten    --     13.1524                 2.5451                 8.4540

                     85                     86                     87
                      A                      A                      A
 Frequencies --   1524.8313              1528.1668              1543.1103
 Red. masses --      1.1237                 1.1033                 1.0667
 Frc consts  --      1.5394                 1.5181                 1.4966
 IR Inten    --     12.9622                 3.6324                14.5688

                     88                     89                     90
                      A                      A                      A
 Frequencies --   1544.9405              1557.5499              1562.5290
 Red. masses --      1.1490                 1.0984                 1.0648
 Frc consts  --      1.6158                 1.5700                 1.5318
 IR Inten    --     15.4982                 2.4387                 4.4758

                     91                     92                     93
                      A                      A                      A
 Frequencies --   1731.3771              2907.7455              2922.2179
 Red. masses --      9.9778                 1.0649                 1.0651
 Frc consts  --     17.6225                 5.3050                 5.3589
 IR Inten    --    210.0069                69.4600               142.3343

                     94                     95                     96
                      A                      A                      A
 Frequencies --   2988.0916              2991.8829              3007.3635
 Red. masses --      1.0726                 1.0728                 1.0823
 Frc consts  --      5.6423                 5.6581                 5.7675
 IR Inten    --     38.3905                83.9617                19.0454

                     97                     98                     99
                      A                      A                      A
 Frequencies --   3045.9443              3047.6062              3054.6312
 Red. masses --      1.0706                 1.0709                 1.0610
 Frc consts  --      5.8522                 5.8605                 5.8329
 IR Inten    --     13.5918                67.1605                34.6204

                    100                    101                    102
                      A                      A                      A
 Frequencies --   3057.0960              3062.5877              3069.3731
 Red. masses --      1.0683                 1.0720                 1.0628
 Frc consts  --      5.8826                 5.9242                 5.8993
 IR Inten    --     16.0673                61.3448                22.9428

                    103                    104                    105
                      A                      A                      A
 Frequencies --   3073.7028              3075.6497              3101.1002
 Red. masses --      1.0601                 1.0805                 1.1037
 Frc consts  --      5.9008                 6.0218                 6.2538
 IR Inten    --     35.6346                40.6923                36.5963

                    106                    107                    108
                      A                      A                      A
 Frequencies --   3101.7904              3110.7133              3121.0866
 Red. masses --      1.0919                 1.0923                 1.1056
 Frc consts  --      6.1893                 6.2275                 6.3454
 IR Inten    --     53.3053                 9.0391                 9.8835

                    109                    110                    111
                      A                      A                      A
 Frequencies --   3121.1648              3128.4544              3128.5900
 Red. masses --      1.1000                 1.0984                 1.1013
 Frc consts  --      6.3137                 6.3338                 6.3509
 IR Inten    --     19.0877                22.8610                32.5894

                    112                    113                    114
                      A                      A                      A
 Frequencies --   3132.7130              3142.6223              3513.2572
 Red. masses --      1.1009                 1.0982                 1.0729
 Frc consts  --      6.3657                 6.3904                 7.8023
 IR Inten    --     18.2048                12.7128                 1.9412

 - Thermochemistry -
 -------------------
 Temperature   298.150 Kelvin.  Pressure   1.00000 Atm.
 Atom     1 has atomic number  6 and mass  12.00000

 Molecular mass:   241.17903 amu.
 Principal axes and moments of inertia in atomic units:
                           1         2         3
     Eigenvalues --  1634.382897707.730998431.58535
           X            0.99999   0.00389  -0.00292
           Y           -0.00385   0.99991   0.01296
           Z            0.00297  -0.01295   0.99991
 This molecule is an asymmetric top.
 Rotational symmetry number  1.
 Warning -- assumption of classical behavior for rotation
           may cause significant error
 Rotational temperatures (Kelvin)      0.05299     0.01124     0.01027
 Rotational constants (GHZ):           1.10423     0.23415     0.21405
 Zero-point vibrational energy     943452.3 (Joules/Mol)
                                  225.49052 (Kcal/Mol)
 Warning -- explicit consideration of  26 degrees of freedom as
           vibrations may cause significant error
 Vibrational temperatures:     33.67    48.62    62.45    68.93    83.97
          (Kelvin)            100.80   187.81   214.83   244.98   308.51
                              330.81   353.45   360.73   397.54   411.38
                              440.60   476.97   520.77   587.88   633.29
                              649.05   699.30   716.59   749.74   821.77
                              850.83   932.54   969.93  1002.51  1110.38
                             1183.50  1188.81  1207.34  1280.20  1287.74
                             1322.46  1334.09  1351.40  1372.88  1388.04
                             1436.95  1448.87  1485.93  1519.87  1557.91
                             1569.45  1575.28  1605.10  1618.70  1641.84
                             1663.95  1674.49  1684.58  1712.39  1742.80
                             1754.68  1763.23  1787.42  1807.73  1836.55
                             1845.66  1885.45  1896.93  1917.79  1945.10
                             1946.35  1949.25  1975.39  1981.06  2000.28
                             2013.89  2028.32  2036.96  2041.12  2057.49
                             2121.89  2124.20  2138.21  2157.49  2165.47
                             2170.72  2173.26  2180.69  2181.88  2193.89
                             2198.69  2220.19  2222.82  2240.97  2248.13
                             2491.07  4183.60  4204.42  4299.20  4304.65
                             4326.93  4382.43  4384.83  4394.93  4398.48
                             4406.38  4416.14  4422.37  4425.17  4461.79
                             4462.78  4475.62  4490.55  4490.66  4501.15
                             4501.34  4507.28  4521.53  5054.79

 Zero-point correction=                           0.359342 (Hartree/Particle)
 Thermal correction to Energy=                    0.376732
 Thermal correction to Enthalpy=                  0.377676
 Thermal correction to Gibbs Free Energy=         0.312139
 Sum of electronic and zero-point Energies=           -785.521288
 Sum of electronic and thermal Energies=              -785.503898
 Sum of electronic and thermal Enthalpies=            -785.502954
 Sum of electronic and thermal Free Energies=         -785.568491

                     E (Thermal)             CV                S
                      KCal/Mol        Cal/Mol-Kelvin    Cal/Mol-Kelvin
 Total                  236.403             65.336            137.935
 Electronic               0.000              0.000              0.000
 Translational            0.889              2.981             42.342
 Rotational               0.889              2.981             33.029
 Vibrational            234.625             59.374             62.563
 Vibration     1          0.593              1.985              6.322
 Vibration     2          0.594              1.983              5.593
 Vibration     3          0.595              1.980              5.097
 Vibration     4          0.595              1.978              4.902
 Vibration     5          0.596              1.974              4.512
 Vibration     6          0.598              1.968              4.152
 Vibration     7          0.612              1.923              2.938
 Vibration     8          0.618              1.903              2.681
 Vibration     9          0.625              1.879              2.433
 Vibration    10          0.644              1.819              2.006
 Vibration    11          0.652              1.795              1.880
 Vibration    12          0.660              1.770              1.762
 Vibration    13          0.663              1.762              1.725
 Vibration    14          0.678              1.717              1.556
 Vibration    15          0.684              1.700              1.498
 Vibration    16          0.697              1.662              1.383
 Vibration    17          0.714              1.613              1.253
 Vibration    18          0.736              1.551              1.114
 Vibration    19          0.773              1.452              0.932
 Vibration    20          0.800              1.383              0.826
 Vibration    21          0.810              1.358              0.792
 Vibration    22          0.842              1.281              0.694
 Vibration    23          0.854              1.254              0.663
 Vibration    24          0.876              1.203              0.607
 Vibration    25          0.927              1.094              0.502
 Vibration    26          0.949              1.050              0.465

 Optimization completed.
    -- Stationary point found.
 Normal termination of Gaussian 16 at Mon Dec 14 17:30:06 2020.

 ----------------------------------------------------------------------
 # B3LYP/6-311++G(d,p) empiricaldispersion=gd3bj scf=xqc pop=npa geom=c
 heck
 ----------------------------------------------------------------------

 --------------------------------------
 CID_84152987_JID_7113_Energie_neutraal
 --------------------------------------
 Structure from the checkpoint file:  "JID_7113.chk"
 Charge =  0 Multiplicity = 1

 SCF Done:  E(RB3LYP) =  -786.103703141     A.U. after   15 cycles
 Normal termination of Gaussian 16 at Mon Dec 14 17:39:24 2020.

 ----------------------------------------------------------------------
 # B3LYP/6-311++G(d,p) empiricaldispersion=gd3bj scf=xqc pop=npa geom=c
 heck
 ----------------------------------------------------------------------

 ------------------------------------
 CID_84152987_JID_7113_Energie_kation
 ------------------------------------
 Structure from the checkpoint file:  "JID_7113.chk"
 Charge =  1 Multiplicity = 2

 SCF Done:  E(UB3LYP) =  -785.832566281     A.U. after   25 cycles
 Normal termination of Gaussian 16 at Mon Dec 14 17:59:46 2020.
 Gaussian 16:  ES64L-G16RevA.03 25-Dec-2016

 ----------------------------------------------------------------------
 # B3LYP/6-311++G(d,p) empiricaldispersion=gd3bj scf=xqc pop=npa geom=c
 heck
 ----------------------------------------------------------------------

 -----------------------------------
 CID_84152987_JID_7113_Energie_anion
 -----------------------------------
 Structure from the checkpoint file:  "JID_7113.chk"
 Charge = -1 Multiplicity = 2

                         Standard orientation:
 ---------------------------------------------------------------------
 Center     Atomic      Atomic             Coordinates (Angstroms)
 Number     Number       Type             X           Y           Z
 ---------------------------------------------------------------------
      1          6           0        2.955631   -1.571207   -1.080960
      2          7           0        3.771406   -0.832178   -0.139871
      3          6           0        4.658939    0.123753   -0.768728
      4          6           0        3.128889   -0.456413    1.109581
      5          6           0        1.845263    0.409460    1.060361
      6          6           0        0.631575   -0.422341    0.610724
      7          8           0        0.444831   -1.551497    1.070209
      8          7           0       -0.236675    0.142405   -0.279770
      9          6           0       -0.138842    1.516261   -0.778001
     10          6           0        0.794154    2.345118    0.098385
     11          7           0        2.063279    1.668860    0.349368
     12          6           0       -1.375554   -0.656143   -0.716933
     13          6           0       -2.579981   -0.527716    0.212154
     14          6           0       -3.771396   -1.403689   -0.214042
     15          6           0       -4.981481   -0.513535    0.099408
     16          6           0       -4.417650    0.872099   -0.214118
     17          8           0       -3.059319    0.834860    0.224886
     18          1           0        3.602154   -2.058975   -1.820976
     19          1           0        2.235507   -0.938864   -1.638921
     20          1           0        2.381714   -2.336641   -0.552783
     21          1           0        4.160425    0.866491   -1.424489
     22          1           0        5.212511    0.676686   -0.004449
     23          1           0        5.382468   -0.410323   -1.399048
     24          1           0        2.857501   -1.371601    1.644892
     25          1           0        3.867439    0.084387    1.709506
     26          1           0        1.621130    0.659355    2.109195
     27          1           0       -1.146195    1.942287   -0.787020
     28          1           0        0.235272    1.503677   -1.814983
     29          1           0        0.316000    2.538845    1.066726
     30          1           0        0.981140    3.314878   -0.375844
     31          1           0        2.506621    1.469540   -0.544475
     32          1           0       -1.654658   -0.333969   -1.727092
     33          1           0       -1.062894   -1.702753   -0.751874
     34          1           0       -2.253275   -0.768218    1.230103
     35          1           0       -3.723617   -1.610443   -1.291435
     36          1           0       -3.784387   -2.363434    0.308961
     37          1           0       -5.868685   -0.760446   -0.491379
     38          1           0       -5.243555   -0.581416    1.161221
     39          1           0       -4.469161    1.078577   -1.295690
     40          1           0       -4.920904    1.687960    0.314019
 ---------------------------------------------------------------------

 SCF Done:  E(UB3LYP) =  -786.091957862     A.U. after   32 cycles

 The electronic state is 2-A.
 Alpha  occ. eigenvalues --  -19.02778 -18.98913 -14.24984 -14.21424 -14.21263
 Alpha  occ. eigenvalues --  -10.17170 -10.12826 -10.12130 -10.11541 -10.10993
 Alpha  occ. eigenvalues --  -10.10860 -10.10851 -10.10560 -10.09904 -10.09263
 Alpha  occ. eigenvalues --  -10.08301 -10.08136  -0.94685  -0.94101  -0.85534
 Alpha  occ. eigenvalues --   -0.83638  -0.81145  -0.69991  -0.68058  -0.67491
 Alpha  occ. eigenvalues --   -0.63339  -0.61771  -0.60235  -0.56081  -0.54654
 Alpha  occ. eigenvalues --   -0.51087  -0.49592  -0.48485  -0.45277  -0.42623
 Alpha  occ. eigenvalues --   -0.41194  -0.40711  -0.40550  -0.39025  -0.37629
 Alpha  occ. eigenvalues --   -0.37379  -0.36743  -0.34704  -0.34219  -0.33833
 Alpha  occ. eigenvalues --   -0.32797  -0.32243  -0.31821  -0.31356  -0.30096
 Alpha  occ. eigenvalues --   -0.29338  -0.28227  -0.28052  -0.27886  -0.27035
 Alpha  occ. eigenvalues --   -0.26779  -0.26562  -0.26138  -0.24861  -0.24770
 Alpha  occ. eigenvalues --   -0.22998  -0.18858  -0.17227  -0.14598  -0.13279
 Alpha  occ. eigenvalues --   -0.11684   0.04026
 Alpha virt. eigenvalues --    0.05535   0.06910   0.07072   0.07726   0.07967
 Alpha virt. eigenvalues --    0.08181   0.09232   0.09267   0.09900   0.10163
 Alpha virt. eigenvalues --    0.10617   0.10900   0.11277   0.11473   0.12167

  Beta  occ. eigenvalues --  -19.02777 -18.98899 -14.24989 -14.21421 -14.21251
  Beta  occ. eigenvalues --  -10.17160 -10.12825 -10.12101 -10.11541 -10.10968
  Beta  occ. eigenvalues --  -10.10847 -10.10838 -10.10556 -10.09876 -10.09244
  Beta  occ. eigenvalues --  -10.08285 -10.08110  -0.94673  -0.94086  -0.85519
  Beta  occ. eigenvalues --   -0.83628  -0.81129  -0.69962  -0.68031  -0.67465
  Beta  occ. eigenvalues --   -0.63307  -0.61735  -0.60198  -0.56047  -0.54612
  Beta  occ. eigenvalues --   -0.51023  -0.49553  -0.48447  -0.45244  -0.42602
  Beta  occ. eigenvalues --   -0.41177  -0.40680  -0.40501  -0.39002  -0.37594
  Beta  occ. eigenvalues --   -0.37350  -0.36709  -0.34677  -0.34189  -0.33808
  Beta  occ. eigenvalues --   -0.32764  -0.32205  -0.31795  -0.31328  -0.30068
  Beta  occ. eigenvalues --   -0.29308  -0.28207  -0.28027  -0.27863  -0.27010
  Beta  occ. eigenvalues --   -0.26746  -0.26532  -0.26116  -0.24823  -0.24735
  Beta  occ. eigenvalues --   -0.22981  -0.18843  -0.17208  -0.14580  -0.13262
  Beta  occ. eigenvalues --   -0.11662
  Beta virt. eigenvalues --    0.06089   0.06490   0.07376   0.07555   0.08066
  Beta virt. eigenvalues --    0.08400   0.08550   0.09627   0.09700   0.10018
  Beta virt. eigenvalues --    0.10375   0.10909   0.11044   0.11562   0.11673

 Mulliken charges and spin densities:
               1          2
     1  C   -0.345817  -0.117324
     2  N   -0.079067   0.099608
     3  C    0.408193  -0.764229
     4  C   -0.017420  -0.693390
     5  C   -0.153641   0.213921
     6  C   -0.431282  -0.092847
     7  O   -0.305365   0.014831
     8  N    0.201436   0.138247
     9  C    0.383568  -0.641806
    10  C   -0.314778  -0.214920
    11  N    0.056426   0.024338
    12  C    0.215431  -0.760072
    13  C   -0.615760   0.895296
    14  C    0.373048  -0.836675
    15  C   -0.329076  -0.004994
    16  C    0.857996  -1.081160
    17  O   -0.168243   0.028165
    18  H   -0.198217   0.350977
    19  H    0.173118  -0.022428
    20  H    0.119465   0.052915
    21  H   -0.506802   0.615984
    22  H   -0.056802   0.195766
    23  H   -0.132154   0.274462
    24  H    0.213226  -0.006848
    25  H    0.113645   0.050785
    26  H    0.136276   0.082789
    27  H    0.097072   0.110452
    28  H   -0.430882   0.602146
    29  H    0.135405   0.023023
    30  H   -0.305717   0.513001
    31  H    0.718474  -0.469612
    32  H   -0.189477   0.418257
    33  H    0.161172   0.032869
    34  H    0.159798   0.089548
    35  H   -0.158269   0.312091
    36  H    0.023977   0.136543
    37  H   -0.529254   0.705610
    38  H    0.109445   0.026935
    39  H   -0.174288   0.319447
    40  H   -0.214860   0.378302
 Sum of Mulliken charges =  -1.00000   1.00000

 Dipole moment (field-independent basis, Debye):
    X=              2.2357    Y=             -1.0208    Z=              4.5572  Tot=              5.1778
 Quadrupole moment (field-independent basis, Debye-Ang):
   XX=           -210.7757   YY=           -147.0558   ZZ=           -145.5595
   XY=             -0.5821   XZ=             -3.2473   YZ=              5.7868

 Summary of Natural Population Analysis:

                                       Natural Population
                Natural  -----------------------------------------------
    Atom  No    Charge         Core      Valence    Rydberg      Total
 -----------------------------------------------------------------------
      C    1   -0.18093      0.99964     2.17285    0.00843     3.18093
      N    2   -0.28208      0.99973     2.76949    0.01286     3.78208
      C    3   -0.17278      0.99964     2.16446    0.00868     3.17278
      C    4   -0.07867      0.99958     2.06719    0.01189     3.07867
      C    5   -0.05657      0.99955     2.04373    0.01329     3.05657
      C    6    0.34281      0.99960     1.63494    0.02264     2.65719
      O    7   -0.34007      0.99988     3.33501    0.00518     4.34007
      N    8   -0.25402      0.99963     2.74275    0.01165     3.75402
      C    9   -0.08869      0.99960     2.07862    0.01048     3.08869
      C   10   -0.09261      0.99963     2.08144    0.01154     3.09261
      N   11   -0.33987      0.99975     2.82759    0.01253     3.83987
      C   12   -0.09330      0.99957     2.08108    0.01265     3.09330
      C   13    0.06228      0.99955     1.92475    0.01343     2.93772
      C   14   -0.20303      0.99962     2.19539    0.00802     3.20303
      C   15   -0.20325      0.99964     2.19575    0.00786     3.20325
      C   16   -0.00842      0.99960     1.99609    0.01273     3.00842
      O   17   -0.31074      0.99989     3.30246    0.00840     4.31074
      H   18    0.09333      0.00000     0.40573    0.00094     0.40667
      H   19    0.08086      0.00000     0.41752    0.00162     0.41914
      H   20    0.10425      0.00000     0.39472    0.00104     0.39575
      H   21    0.07676      0.00000     0.42149    0.00175     0.42324
      H   22    0.09632      0.00000     0.40268    0.00100     0.40368
      H   23    0.09258      0.00000     0.40622    0.00120     0.40742
      H   24    0.10618      0.00000     0.39270    0.00111     0.39382
      H   25    0.09712      0.00000     0.40191    0.00097     0.40288
      H   26    0.10388      0.00000     0.39480    0.00133     0.39612
      H   27    0.11091      0.00000     0.38725    0.00184     0.38909
      H   28    0.09083      0.00000     0.40654    0.00263     0.40917
      H   29    0.09230      0.00000     0.40636    0.00133     0.40770
      H   30    0.10075      0.00000     0.39834    0.00091     0.39925
      H   31    0.17418      0.00000     0.32149    0.00433     0.32582
      H   32    0.09962      0.00000     0.39874    0.00165     0.40038
      H   33    0.11166      0.00000     0.38705    0.00129     0.38834
      H   34    0.09226      0.00000     0.40629    0.00145     0.40774
      H   35    0.09955      0.00000     0.39912    0.00133     0.40045
      H   36    0.10534      0.00000     0.39384    0.00082     0.39466
      H   37    0.10634      0.00000     0.39161    0.00204     0.39366
      H   38    0.09551      0.00000     0.40345    0.00104     0.40449
      H   39    0.08032      0.00000     0.41758    0.00210     0.41968
      H   40    0.08907      0.00000     0.40966    0.00127     0.41093
 =======================================================================
   * Total *    0.00000     16.99411    48.77866    0.22723    66.00000

 Normal termination of Gaussian 16 at Mon Dec 14 18:23:53 2020.
