 Gaussian 16, Revision A.03,

 -----------------------------------------------------------
 # opt freq B3LYP/6-31G(d) empiricaldispersion=gd3bj scf=xqc
 -----------------------------------------------------------

 -------------------------------
 CID_105429840_JID_1054_neutraal
 -------------------------------
 Symbolic Z-matrix:
 Charge =  0 Multiplicity = 1

 SCF Done:  E(RB3LYP) =  -547.545647426     A.U. after   15 cycles
 SCF Done:  E(RB3LYP) =  -547.549683819     A.U. after   13 cycles
 SCF Done:  E(RB3LYP) =  -547.550161144     A.U. after   11 cycles
 SCF Done:  E(RB3LYP) =  -547.550180301     A.U. after   10 cycles
 SCF Done:  E(RB3LYP) =  -547.550179106     A.U. after   10 cycles
 SCF Done:  E(RB3LYP) =  -547.550178543     A.U. after   10 cycles
 SCF Done:  E(RB3LYP) =  -547.550183108     A.U. after   10 cycles
 SCF Done:  E(RB3LYP) =  -547.550183783     A.U. after    8 cycles
 Optimization completed.
    -- Stationary point found.
 Normal termination of Gaussian 16 at Tue Dec  8 19:09:32 2020.

 --------------------------------------------------------------------
 #N Geom=AllCheck Guess=TCheck SCRF=Check GenChk RB3LYP/6-31G(d) Freq
 --------------------------------------------------------------------

 Structure from the checkpoint file:  "JID_1054.chk"
 -------------------------------
 CID_105429840_JID_1054_neutraal
 -------------------------------
 Charge =  0 Multiplicity = 1

 SCF Done:  E(RB3LYP) =  -547.550183783     A.U. after    1 cycles

  Exact polarizability: 113.716  -0.489  89.051   4.071   3.647  47.489
 Approx polarizability: 173.108   5.468 152.907  11.143  12.180  72.257

                      1                      2                      3
                      A                      A                      A
 Frequencies --     19.2451                32.4480               118.3161
 Red. masses --      8.5338                 2.8283                 4.4458
 Frc consts  --      0.0019                 0.0018                 0.0367
 IR Inten    --      0.7293                 0.0423                 0.3089

                      4                      5                      6
                      A                      A                      A
 Frequencies --    138.4754               172.5480               237.1119
 Red. masses --      5.2070                 2.6731                 1.3874
 Frc consts  --      0.0588                 0.0469                 0.0460
 IR Inten    --      5.9666                 0.7867                 1.3282

                      7                      8                      9
                      A                      A                      A
 Frequencies --    278.3184               360.5587               397.0801
 Red. masses --      3.7112                 3.2273                 7.0792
 Frc consts  --      0.1694                 0.2472                 0.6576
 IR Inten    --      0.8027                 0.7943                 2.8787

                     10                     11                     12
                      A                      A                      A
 Frequencies --    413.4950               492.6547               534.0476
 Red. masses --      6.5783                 6.0159                 4.4652
 Frc consts  --      0.6627                 0.8603                 0.7503
 IR Inten    --      4.8703                 2.4969                 1.9627

                     13                     14                     15
                      A                      A                      A
 Frequencies --    596.9662               662.5963               670.5155
 Red. masses --      3.3079                 1.8852                 3.1689
 Frc consts  --      0.6945                 0.4876                 0.8394
 IR Inten    --     13.9971                96.6689                76.7184

                     16                     17                     18
                      A                      A                      A
 Frequencies --    737.0702               775.4379               806.2994
 Red. masses --      5.8468                 3.8783                 1.3092
 Frc consts  --      1.8715                 1.3740                 0.5015
 IR Inten    --     14.6262                19.0625                 4.0628

                     19                     20                     21
                      A                      A                      A
 Frequencies --    837.9204               923.9482               939.0208
 Red. masses --      6.0950                 3.4751                 1.3921
 Frc consts  --      2.5213                 1.7479                 0.7232
 IR Inten    --      0.1425                 4.9963                 3.1985

                     22                     23                     24
                      A                      A                      A
 Frequencies --   1006.0645              1041.2351              1084.2438
 Red. masses --      3.0667                 9.4939                 2.2414
 Frc consts  --      1.8288                 6.0645                 1.5525
 IR Inten    --      0.3698                 4.4347                 9.2392

                     25                     26                     27
                      A                      A                      A
 Frequencies --   1095.9583              1127.2612              1167.6877
 Red. masses --      1.8589                 2.8795                 3.9378
 Frc consts  --      1.3155                 2.1558                 3.1635
 IR Inten    --     10.4300                84.9024               178.0995

                     28                     29                     30
                      A                      A                      A
 Frequencies --   1223.6389              1275.3733              1301.0754
 Red. masses --      2.2297                 1.8556                 1.6191
 Frc consts  --      1.9670                 1.7783                 1.6149
 IR Inten    --     73.5558                12.5459                 1.2619

                     31                     32                     33
                      A                      A                      A
 Frequencies --   1327.3639              1382.3374              1431.7906
 Red. masses --      1.9545                 1.7308                 2.6271
 Frc consts  --      2.0290                 1.9486                 3.1731
 IR Inten    --     44.5036                 8.6090                30.8816

                     34                     35                     36
                      A                      A                      A
 Frequencies --   1432.7147              1462.6625              1510.5340
 Red. masses --      1.4529                 3.6017                 1.0878
 Frc consts  --      1.7572                 4.5399                 1.4624
 IR Inten    --      5.5747                 5.3029                 2.7787

                     37                     38                     39
                      A                      A                      A
 Frequencies --   1526.8305              1538.2625              1565.6604
 Red. masses --      1.0412                 1.0804                 8.2525
 Frc consts  --      1.4301                 1.5062                11.9188
 IR Inten    --      9.0163                 2.4325                17.6246

                     40                     41                     42
                      A                      A                      A
 Frequencies --   1601.1139              1852.0482              3060.3135
 Red. masses --      5.8691                10.6228                 1.0423
 Frc consts  --      8.8647                21.4680                 5.7515
 IR Inten    --     78.5648               250.3083                15.0827

                     43                     44                     45
                      A                      A                      A
 Frequencies --   3063.0643              3103.1759              3132.2613
 Red. masses --      1.0520                 1.1041                 1.1033
 Frc consts  --      5.8153                 6.2644                 6.3773
 IR Inten    --     23.1300                 6.8526                27.2321

                     46                     47                     48
                      A                      A                      A
 Frequencies --   3145.7759              3203.6809              3691.4356
 Red. masses --      1.1037                 1.0924                 1.0640
 Frc consts  --      6.4351                 6.6056                 8.5428
 IR Inten    --     20.2946                 9.4199                69.0355

 - Thermochemistry -
 -------------------
 Temperature   298.150 Kelvin.  Pressure   1.00000 Atm.
 Atom     1 has atomic number  6 and mass  12.00000

 Molecular mass:   153.05383 amu.
 Principal axes and moments of inertia in atomic units:
                           1         2         3
     Eigenvalues --   942.228842262.566043071.83535
           X            0.99982   0.01805  -0.00504
           Y           -0.01811   0.99977  -0.01146
           Z            0.00483   0.01155   0.99992
 This molecule is an asymmetric top.
 Rotational symmetry number  1.
 Warning -- assumption of classical behavior for rotation
           may cause significant error
 Rotational temperatures (Kelvin)      0.09192     0.03828     0.02820
 Rotational constants (GHZ):           1.91540     0.79765     0.58751
 Zero-point vibrational energy     355874.9 (Joules/Mol)
                                   85.05614 (Kcal/Mol)
 Warning -- explicit consideration of  13 degrees of freedom as
           vibrations may cause significant error
 Vibrational temperatures:     27.69    46.69   170.23   199.24   248.26
          (Kelvin)            341.15   400.44   518.76   571.31   594.93
                              708.82   768.38   858.90   953.33   964.72
                             1060.48  1115.68  1160.08  1205.58  1329.36
                             1351.04  1447.50  1498.11  1559.99  1576.84
                             1621.88  1680.04  1760.54  1834.98  1871.96
                             1909.78  1988.88  2060.03  2061.36  2104.45
                             2173.32  2196.77  2213.22  2252.64  2303.65
                             2664.68  4403.11  4407.07  4464.78  4506.63
                             4526.07  4609.38  5311.15

 Zero-point correction=                           0.135546 (Hartree/Particle)
 Thermal correction to Energy=                    0.145559
 Thermal correction to Enthalpy=                  0.146503
 Thermal correction to Gibbs Free Energy=         0.097786
 Sum of electronic and zero-point Energies=           -547.414638
 Sum of electronic and thermal Energies=              -547.404625
 Sum of electronic and thermal Enthalpies=            -547.403681
 Sum of electronic and thermal Free Energies=         -547.452397

                     E (Thermal)             CV                S
                      KCal/Mol        Cal/Mol-Kelvin    Cal/Mol-Kelvin
 Total                   91.340             35.618            102.533
 Electronic               0.000              0.000              0.000
 Translational            0.889              2.981             40.987
 Rotational               0.889              2.981             30.261
 Vibrational             89.562             29.657             31.286
 Vibration     1          0.593              1.986              6.711
 Vibration     2          0.594              1.983              5.674
 Vibration     3          0.608              1.934              3.128
 Vibration     4          0.614              1.915              2.825
 Vibration     5          0.626              1.876              2.408
 Vibration     6          0.656              1.784              1.824
 Vibration     7          0.679              1.714              1.544
 Vibration     8          0.735              1.554              1.120
 Vibration     9          0.764              1.476              0.973
 Vibration    10          0.777              1.441              0.914
 Vibration    11          0.848              1.266              0.677
 Vibration    12          0.889              1.175              0.578
 Vibration    13          0.955              1.038              0.455

                           ! Non-Optimized Parameters !
 Normal termination of Gaussian 16 at Tue Dec  8 19:12:33 2020.

 ----------------------------------------------------------------------
 # B3LYP/6-311++G(d,p) empiricaldispersion=gd3bj scf=xqc pop=npa geom=c
 heck
 ----------------------------------------------------------------------

 ---------------------------------------
 CID_105429840_JID_1054_Energie_neutraal
 ---------------------------------------
 Structure from the checkpoint file:  "JID_1054.chk"
 Charge =  0 Multiplicity = 1

 SCF Done:  E(RB3LYP) =  -547.708564954     A.U. after   15 cycles
 Normal termination of Gaussian 16 at Tue Dec  8 19:13:39 2020.

 ----------------------------------------------------------------------
 # B3LYP/6-311++G(d,p) empiricaldispersion=gd3bj scf=xqc pop=npa geom=c
 heck
 ----------------------------------------------------------------------

 -------------------------------------
 CID_105429840_JID_1054_Energie_kation
 -------------------------------------
 Structure from the checkpoint file:  "JID_1054.chk"
 Charge =  1 Multiplicity = 2

 SCF Done:  E(UB3LYP) =  -547.373213191     A.U. after   24 cycles
 Normal termination of Gaussian 16 at Tue Dec  8 19:15:53 2020.
 Gaussian 16:  ES64L-G16RevA.03 25-Dec-2016

 ----------------------------------------------------------------------
 # B3LYP/6-311++G(d,p) empiricaldispersion=gd3bj scf=xqc pop=npa geom=c
 heck
 ----------------------------------------------------------------------

 ------------------------------------
 CID_105429840_JID_1054_Energie_anion
 ------------------------------------
 Structure from the checkpoint file:  "JID_1054.chk"
 Charge = -1 Multiplicity = 2

                         Standard orientation:
 ---------------------------------------------------------------------
 Center     Atomic      Atomic             Coordinates (Angstroms)
 Number     Number       Type             X           Y           Z
 ---------------------------------------------------------------------
      1          6           0       -2.992231   -1.452527    0.674690
      2          6           0       -2.658159   -0.535209   -0.513866
      3          6           0       -1.374373    0.213415   -0.287135
      4          6           0       -1.321935    1.600225   -0.074522
      5          7           0       -0.178926    2.246792    0.153244
      6          7           0        0.953938    1.546229    0.179466
      7          6           0        0.872509    0.226437   -0.025613
      8          7           0       -0.237862   -0.483842   -0.258569
      9          6           0        2.194935   -0.505320    0.015770
     10          8           0        3.262530    0.026237    0.204580
     11          8           0        2.041606   -1.831301   -0.183385
     12          1           0       -2.171985   -2.154583    0.850348
     13          1           0       -3.903592   -2.023540    0.472651
     14          1           0       -3.148271   -0.870878    1.589630
     15          1           0       -2.544148   -1.141601   -1.419895
     16          1           0       -3.472598    0.175777   -0.691246
     17          1           0       -2.218878    2.213646   -0.087594
     18          1           0        2.941865   -2.204681   -0.138384
 ---------------------------------------------------------------------

 SCF Done:  E(UB3LYP) =  -547.738965553     A.U. after   26 cycles

 The electronic state is 2-A.
 Alpha  occ. eigenvalues --  -19.02459 -18.95208 -14.17955 -14.16287 -14.13085
 Alpha  occ. eigenvalues --  -10.13945 -10.06557 -10.06525 -10.05185 -10.04958
 Alpha  occ. eigenvalues --  -10.03441  -0.96225  -0.86992  -0.86043  -0.76123
 Alpha  occ. eigenvalues --   -0.67915  -0.63858  -0.54460  -0.53825  -0.48943
 Alpha  occ. eigenvalues --   -0.44640  -0.38498  -0.35905  -0.33462  -0.32521
 Alpha  occ. eigenvalues --   -0.32221  -0.31181  -0.30717  -0.27825  -0.26030
 Alpha  occ. eigenvalues --   -0.25369  -0.23530  -0.23371  -0.18245  -0.17569
 Alpha  occ. eigenvalues --   -0.15931  -0.14444  -0.13313  -0.12817  -0.06152
 Alpha  occ. eigenvalues --    0.03806
 Alpha virt. eigenvalues --    0.08079   0.09791   0.09875   0.10367   0.10982
 Alpha virt. eigenvalues --    0.12741   0.13754   0.14865   0.16455   0.16703
 Alpha virt. eigenvalues --    0.17593   0.17788   0.18648   0.19048   0.19888

  Beta  occ. eigenvalues --  -19.02437 -18.94963 -14.18113 -14.15732 -14.12341
  Beta  occ. eigenvalues --  -10.13824 -10.06622 -10.06322 -10.05187 -10.04950
  Beta  occ. eigenvalues --  -10.03196  -0.96051  -0.86644  -0.85499  -0.75092
  Beta  occ. eigenvalues --   -0.67476  -0.63645  -0.54260  -0.53143  -0.48475
  Beta  occ. eigenvalues --   -0.44479  -0.38166  -0.35697  -0.33199  -0.32287
  Beta  occ. eigenvalues --   -0.31976  -0.30671  -0.30118  -0.27245  -0.25776
  Beta  occ. eigenvalues --   -0.24641  -0.23438  -0.23288  -0.17352  -0.15765
  Beta  occ. eigenvalues --   -0.14589  -0.13763  -0.12338  -0.11864  -0.05662
  Beta virt. eigenvalues --    0.08033   0.09795   0.10139   0.10284   0.10988
  Beta virt. eigenvalues --    0.11518   0.12745   0.13669   0.14806   0.16519
  Beta virt. eigenvalues --    0.16824   0.17617   0.17844   0.19000   0.19717

 Mulliken charges and spin densities:
               1          2
     1  C   -0.405838  -0.121804
     2  C   -0.425624   0.156627
     3  C    0.448958  -0.129085
     4  C   -0.544393   0.240344
     5  N   -0.168301   0.247327
     6  N    0.020991  -0.103813
     7  C   -0.258173   0.147750
     8  N   -0.081275   0.347141
     9  C   -0.013248   0.080662
    10  O   -0.353033   0.081732
    11  O   -0.196567   0.003464
    12  H    0.174387  -0.012905
    13  H    0.063942   0.032222
    14  H    0.094567   0.031088
    15  H    0.106605   0.028246
    16  H    0.135651  -0.011793
    17  H    0.136609  -0.016239
    18  H    0.264743  -0.000966
 Sum of Mulliken charges =  -1.00000   1.00000

 Dipole moment (field-independent basis, Debye):
    X=             -4.0159    Y=             -4.4372    Z=             -0.5759  Tot=              6.0123
 Quadrupole moment (field-independent basis, Debye-Ang):
   XX=            -86.9546   YY=            -85.1935   ZZ=            -69.3002
   XY=             -8.5304   XZ=             -1.3389   YZ=             -2.1717

 Summary of Natural Population Analysis:

                                       Natural Population
                Natural  -----------------------------------------------
    Atom  No    Charge         Core      Valence    Rydberg      Total
 -----------------------------------------------------------------------
      C    1   -0.28167      0.99967     2.27707    0.00493     3.28167
      C    2   -0.20054      0.99961     2.19327    0.00767     3.20054
      C    3    0.08540      0.99955     1.89891    0.01614     2.91460
      C    4    0.02326      0.99955     1.96230    0.01490     2.97674
      N    5   -0.05379      0.99972     2.53466    0.01941     3.55379
      N    6   -0.15199      0.99970     2.63846    0.01383     3.65199
      C    7    0.16545      0.99957     1.81735    0.01763     2.83455
      N    8   -0.13180      0.99964     2.62139    0.01077     3.63180
      C    9    0.39626      0.99971     1.57847    0.02556     2.60374
      O   10   -0.28968      0.99987     3.28216    0.00766     4.28968
      O   11   -0.34119      0.99988     3.33463    0.00668     4.34119
      H   12    0.10532      0.00000     0.39244    0.00224     0.39468
      H   13    0.08690      0.00000     0.41162    0.00148     0.41310
      H   14    0.09367      0.00000     0.40473    0.00159     0.40633
      H   15    0.09869      0.00000     0.39904    0.00226     0.40131
      H   16    0.09122      0.00000     0.40754    0.00124     0.40878
      H   17    0.08037      0.00000     0.41813    0.00150     0.41963
      H   18    0.22413      0.00000     0.26983    0.00605     0.27587
 =======================================================================
   * Total *    0.00000     10.99646    28.84201    0.16153    40.00000

 Normal termination of Gaussian 16 at Tue Dec  8 19:18:11 2020.
