 Gaussian 16, Revision A.03,

 -----------------------------------------------------------
 # opt freq B3LYP/6-31G(d) empiricaldispersion=gd3bj scf=xqc
 -----------------------------------------------------------

 -------------------------------
 CID_117551742_JID_7782_neutraal
 -------------------------------
 Symbolic Z-matrix:
 Charge =  0 Multiplicity = 1

 SCF Done:  E(RB3LYP) =  -724.081110715     A.U. after   14 cycles
 SCF Done:  E(RB3LYP) =  -724.086264624     A.U. after   13 cycles
 SCF Done:  E(RB3LYP) =  -724.086911406     A.U. after   12 cycles
 SCF Done:  E(RB3LYP) =  -724.087056579     A.U. after   12 cycles
 SCF Done:  E(RB3LYP) =  -724.087112879     A.U. after   10 cycles
 SCF Done:  E(RB3LYP) =  -724.087132114     A.U. after   10 cycles
 SCF Done:  E(RB3LYP) =  -724.087134696     A.U. after    8 cycles
 SCF Done:  E(RB3LYP) =  -724.087136270     A.U. after    8 cycles
 SCF Done:  E(RB3LYP) =  -724.087139557     A.U. after    9 cycles
 SCF Done:  E(RB3LYP) =  -724.087145118     A.U. after   10 cycles
 SCF Done:  E(RB3LYP) =  -724.087195341     A.U. after   11 cycles
 SCF Done:  E(RB3LYP) =  -724.087196035     A.U. after   10 cycles
 SCF Done:  E(RB3LYP) =  -724.087196571     A.U. after    9 cycles
 SCF Done:  E(RB3LYP) =  -724.087196626     A.U. after    7 cycles
 SCF Done:  E(RB3LYP) =  -724.087196662     A.U. after    8 cycles
 Optimization completed.
    -- Stationary point found.
 Normal termination of Gaussian 16 at Fri Dec 11 13:23:42 2020.

 --------------------------------------------------------------------
 #N Geom=AllCheck Guess=TCheck SCRF=Check GenChk RB3LYP/6-31G(d) Freq
 --------------------------------------------------------------------

 Structure from the checkpoint file:  "JID_7782.chk"
 -------------------------------
 CID_117551742_JID_7782_neutraal
 -------------------------------
 Charge =  0 Multiplicity = 1

 SCF Done:  E(RB3LYP) =  -724.087196662     A.U. after    1 cycles

  Exact polarizability: 225.112 -10.457 166.447   2.361   3.798  91.107
 Approx polarizability: 303.573 -21.781 279.420   7.185  13.462 139.402

                      1                      2                      3
                      A                      A                      A
 Frequencies --     16.5416                26.3408                37.2142
 Red. masses --      3.3570                 2.8250                 3.2795
 Frc consts  --      0.0005                 0.0012                 0.0027
 IR Inten    --      0.5593                 0.0135                 0.8515

                      4                      5                      6
                      A                      A                      A
 Frequencies --     66.9560                89.3665               126.9818
 Red. masses --      4.1015                 3.2999                 3.9865
 Frc consts  --      0.0108                 0.0155                 0.0379
 IR Inten    --      2.2740                 0.1985                 1.1210

                      7                      8                      9
                      A                      A                      A
 Frequencies --    157.1939               190.8630               226.3583
 Red. masses --      1.4585                 2.2837                 3.5371
 Frc consts  --      0.0212                 0.0490                 0.1068
 IR Inten    --      0.8580                 0.3482                 0.2890

                     10                     11                     12
                      A                      A                      A
 Frequencies --    257.7796               278.5704               288.7227
 Red. masses --      2.8895                 2.4331                 3.4108
 Frc consts  --      0.1131                 0.1112                 0.1675
 IR Inten    --      0.8988                 4.0131                 4.1854

                     13                     14                     15
                      A                      A                      A
 Frequencies --    316.2754               382.1404               399.6186
 Red. masses --      5.0286                 4.5449                 4.4644
 Frc consts  --      0.2964                 0.3910                 0.4201
 IR Inten    --      4.3472                 2.9152                 1.4621

                     16                     17                     18
                      A                      A                      A
 Frequencies --    421.4211               479.8603               514.3758
 Red. masses --      3.6929                 3.7921                 1.8772
 Frc consts  --      0.3864                 0.5145                 0.2926
 IR Inten    --      4.7106                 4.1033                35.0149

                     19                     20                     21
                      A                      A                      A
 Frequencies --    534.8222               587.4359               636.7828
 Red. masses --      1.8047                 2.5591                 7.7401
 Frc consts  --      0.3041                 0.5203                 1.8492
 IR Inten    --     35.3028                 2.0895                 2.4947

                     22                     23                     24
                      A                      A                      A
 Frequencies --    665.9665               682.5637               705.6753
 Red. masses --      2.6937                 4.8238                 5.0362
 Frc consts  --      0.7039                 1.3241                 1.4776
 IR Inten    --      0.9488                 3.8446                 3.9300

                     25                     26                     27
                      A                      A                      A
 Frequencies --    730.1176               731.8139               749.4137
 Red. masses --      1.9647                 5.0528                 6.8236
 Frc consts  --      0.6171                 1.5943                 2.2579
 IR Inten    --     22.6518                 2.1038                 1.0715

                     28                     29                     30
                      A                      A                      A
 Frequencies --    790.7409               826.7039               846.2533
 Red. masses --      2.2665                 1.7781                 1.9676
 Frc consts  --      0.8350                 0.7160                 0.8302
 IR Inten    --      2.3407                13.4660                23.1808

                     31                     32                     33
                      A                      A                      A
 Frequencies --    865.2067               902.6138               943.2622
 Red. masses --      1.7687                 3.4517                 2.7004
 Frc consts  --      0.7801                 1.6569                 1.4156
 IR Inten    --    154.9961                 3.4880                 0.9434

                     34                     35                     36
                      A                      A                      A
 Frequencies --    944.7253               949.4305               970.0920
 Red. masses --      1.3287                 2.5785                 1.3875
 Frc consts  --      0.6987                 1.3694                 0.7693
 IR Inten    --      0.2029                32.4778                 2.2430

                     37                     38                     39
                      A                      A                      A
 Frequencies --    987.4026              1007.1646              1032.1616
 Red. masses --      1.3950                 1.5698                 2.4198
 Frc consts  --      0.8013                 0.9382                 1.5189
 IR Inten    --      0.2236                10.3645                10.2860

                     40                     41                     42
                      A                      A                      A
 Frequencies --   1033.3196              1041.9721              1055.0607
 Red. masses --      4.0217                 1.4688                 5.2064
 Frc consts  --      2.5301                 0.9396                 3.4146
 IR Inten    --     16.8681                 8.1387                 8.5368

                     43                     44                     45
                      A                      A                      A
 Frequencies --   1059.7513              1071.7063              1074.5466
 Red. masses --      2.8417                 1.6922                 2.2240
 Frc consts  --      1.8803                 1.1451                 1.5130
 IR Inten    --     13.3516                13.0522                 1.0496

                     46                     47                     48
                      A                      A                      A
 Frequencies --   1090.5562              1115.5863              1152.6516
 Red. masses --      2.1333                 4.5750                 1.5238
 Frc consts  --      1.4949                 3.3547                 1.1928
 IR Inten    --      6.1332                18.5281                 4.4562

                     49                     50                     51
                      A                      A                      A
 Frequencies --   1184.0871              1216.0570              1222.6944
 Red. masses --      1.4238                 3.5201                 1.4977
 Frc consts  --      1.1762                 3.0670                 1.3192
 IR Inten    --      2.6268                 1.0342                 4.5362

                     52                     53                     54
                      A                      A                      A
 Frequencies --   1235.1685              1254.1789              1295.7870
 Red. masses --      1.4733                 1.2636                 1.3277
 Frc consts  --      1.3244                 1.1711                 1.3134
 IR Inten    --      4.3425                11.1336                 1.1875

                     55                     56                     57
                      A                      A                      A
 Frequencies --   1303.0305              1310.0320              1321.9671
 Red. masses --      5.3707                 1.3595                 1.9571
 Frc consts  --      5.3727                 1.3746                 2.0151
 IR Inten    --      1.5953                 3.3465                23.6191

                     58                     59                     60
                      A                      A                      A
 Frequencies --   1340.2689              1353.4026              1358.2609
 Red. masses --      1.8947                 1.2137                 1.6310
 Frc consts  --      2.0053                 1.3098                 1.7729
 IR Inten    --     14.9938                 0.1867                19.2366

                     61                     62                     63
                      A                      A                      A
 Frequencies --   1377.0924              1389.5389              1442.5823
 Red. masses --      1.3109                 1.4801                 1.4079
 Frc consts  --      1.4646                 1.6837                 1.7262
 IR Inten    --      7.5375                 3.8595                 2.6692

                     64                     65                     66
                      A                      A                      A
 Frequencies --   1451.7478              1460.0358              1482.7901
 Red. masses --      2.9370                 2.2630                 2.3768
 Frc consts  --      3.6471                 2.8422                 3.0790
 IR Inten    --      8.5208                13.1978                29.7731

                     67                     68                     69
                      A                      A                      A
 Frequencies --   1486.5929              1513.0604              1519.0602
 Red. masses --      1.2862                 1.0697                 1.0905
 Frc consts  --      1.6747                 1.4429                 1.4825
 IR Inten    --      2.6344                 7.9857                 0.5939

                     70                     71                     72
                      A                      A                      A
 Frequencies --   1522.8963              1527.3116              1528.8793
 Red. masses --      1.0858                 2.3218                 1.1265
 Frc consts  --      1.4837                 3.1910                 1.5514
 IR Inten    --      2.1302                 6.3361                10.0875

                     73                     74                     75
                      A                      A                      A
 Frequencies --   1540.0092              1585.0815              1618.0391
 Red. masses --      1.1054                 6.4684                 4.9125
 Frc consts  --      1.5446                 9.5752                 7.5776
 IR Inten    --      2.8346                49.7017                17.7506

                     76                     77                     78
                      A                      A                      A
 Frequencies --   1635.6883              1654.6337              3031.9289
 Red. masses --      5.8668                 5.6966                 1.0662
 Frc consts  --      9.2481                 9.1890                 5.7746
 IR Inten    --      9.9515                 5.0405                13.7516

                     79                     80                     81
                      A                      A                      A
 Frequencies --   3032.7554              3062.9411              3066.8351
 Red. masses --      1.0610                 1.0626                 1.0629
 Frc consts  --      5.7497                 5.8733                 5.8900
 IR Inten    --     54.9697                42.6585                26.4451

                     82                     83                     84
                      A                      A                      A
 Frequencies --   3077.6205              3086.7228              3116.9750
 Red. masses --      1.0672                 1.0962                 1.1003
 Frc consts  --      5.9557                 6.1535                 6.2983
 IR Inten    --     28.6495                22.7470                29.8221

                     85                     86                     87
                      A                      A                      A
 Frequencies --   3121.3252              3129.1355              3141.9616
 Red. masses --      1.1065                 1.0989                 1.1030
 Frc consts  --      6.3515                 6.3393                 6.4152
 IR Inten    --     28.0070                12.2511                23.8830

                     88                     89                     90
                      A                      A                      A
 Frequencies --   3171.1759              3199.1043              3203.9566
 Red. masses --      1.0883                 1.0901                 1.0909
 Frc consts  --      6.4479                 6.5730                 6.5981
 IR Inten    --     21.7926                33.5732                 4.2331

                     91                     92                     93
                      A                      A                      A
 Frequencies --   3218.1277              3459.0402              3637.2824
 Red. masses --      1.0946                 1.0742                 1.0802
 Frc consts  --      6.6790                 7.5726                 8.4200
 IR Inten    --     15.9073                 3.1812                42.5446

 - Thermochemistry -
 -------------------
 Temperature   298.150 Kelvin.  Pressure   1.00000 Atm.
 Atom     1 has atomic number  6 and mass  12.00000

 Molecular mass:   228.13750 amu.
 Principal axes and moments of inertia in atomic units:
                           1         2         3
     Eigenvalues --  1977.520627315.162708774.74114
           X            0.99989   0.01456  -0.00166
           Y           -0.01457   0.99984  -0.01003
           Z            0.00151   0.01006   0.99995
 This molecule is an asymmetric top.
 Rotational symmetry number  1.
 Warning -- assumption of classical behavior for rotation
           may cause significant error
 Rotational temperatures (Kelvin)      0.04380     0.01184     0.00987
 Rotational constants (GHZ):           0.91263     0.24671     0.20567
 Zero-point vibrational energy     735398.0 (Joules/Mol)
                                  175.76434 (Kcal/Mol)
 Warning -- explicit consideration of  20 degrees of freedom as
           vibrations may cause significant error
 Vibrational temperatures:     23.80    37.90    53.54    96.33   128.58
          (Kelvin)            182.70   226.17   274.61   325.68   370.89
                              400.80   415.41   455.05   549.81   574.96
                              606.33   690.41   740.07   769.49   845.19
                              916.19   958.18   982.06  1015.31  1050.48
                             1052.92  1078.24  1137.70  1189.44  1217.57
                             1244.84  1298.66  1357.14  1359.25  1366.02
                             1395.75  1420.65  1449.09  1485.05  1486.72
                             1499.17  1518.00  1524.75  1541.95  1546.03
                             1569.07  1605.08  1658.41  1703.64  1749.63
                             1759.18  1777.13  1804.48  1864.35  1874.77
                             1884.84  1902.02  1928.35  1947.24  1954.23
                             1981.33  1999.24  2075.55  2088.74  2100.67
                             2133.40  2138.88  2176.96  2185.59  2191.11
                             2197.46  2199.72  2215.73  2280.58  2328.00
                             2353.39  2380.65  4362.27  4363.46  4406.89
                             4412.49  4428.01  4441.11  4484.63  4490.89
                             4502.13  4520.58  4562.61  4602.80  4609.78
                             4630.17  4976.79  5233.24

 Zero-point correction=                           0.280098 (Hartree/Particle)
 Thermal correction to Energy=                    0.294945
 Thermal correction to Enthalpy=                  0.295889
 Thermal correction to Gibbs Free Energy=         0.235197
 Sum of electronic and zero-point Energies=           -723.807098
 Sum of electronic and thermal Energies=              -723.792252
 Sum of electronic and thermal Enthalpies=            -723.791308
 Sum of electronic and thermal Free Energies=         -723.851999

                     E (Thermal)             CV                S
                      KCal/Mol        Cal/Mol-Kelvin    Cal/Mol-Kelvin
 Total                  185.081             56.685            127.736
 Electronic               0.000              0.000              0.000
 Translational            0.889              2.981             42.177
 Rotational               0.889              2.981             33.206
 Vibrational            183.303             50.724             52.354
 Vibration     1          0.593              1.986              7.011
 Vibration     2          0.593              1.985              6.088
 Vibration     3          0.594              1.982              5.402
 Vibration     4          0.598              1.970              4.241
 Vibration     5          0.602              1.957              3.674
 Vibration     6          0.611              1.926              2.991
 Vibration     7          0.621              1.895              2.583
 Vibration     8          0.634              1.852              2.219
 Vibration     9          0.650              1.801              1.908
 Vibration    10          0.667              1.750              1.677
 Vibration    11          0.679              1.713              1.542
 Vibration    12          0.685              1.695              1.481
 Vibration    13          0.703              1.643              1.329
 Vibration    14          0.752              1.508              1.031
 Vibration    15          0.766              1.471              0.964
 Vibration    16          0.784              1.424              0.887
 Vibration    17          0.836              1.295              0.710
 Vibration    18          0.869              1.218              0.623
 Vibration    19          0.890              1.173              0.577
 Vibration    20          0.945              1.059              0.472

 Optimization completed.
    -- Stationary point found.
 Normal termination of Gaussian 16 at Fri Dec 11 13:34:33 2020.

 ----------------------------------------------------------------------
 # B3LYP/6-311++G(d,p) empiricaldispersion=gd3bj scf=xqc pop=npa geom=c
 heck
 ----------------------------------------------------------------------

 ---------------------------------------
 CID_117551742_JID_7782_Energie_neutraal
 ---------------------------------------
 Structure from the checkpoint file:  "JID_7782.chk"
 Charge =  0 Multiplicity = 1

 SCF Done:  E(RB3LYP) =  -724.278965214     A.U. after   16 cycles
 Normal termination of Gaussian 16 at Fri Dec 11 13:40:23 2020.

 ----------------------------------------------------------------------
 # B3LYP/6-311++G(d,p) empiricaldispersion=gd3bj scf=xqc pop=npa geom=c
 heck
 ----------------------------------------------------------------------

 -------------------------------------
 CID_117551742_JID_7782_Energie_kation
 -------------------------------------
 Structure from the checkpoint file:  "JID_7782.chk"
 Charge =  1 Multiplicity = 2

 SCF Done:  E(UB3LYP) =  -724.010092967     A.U. after   25 cycles
 Normal termination of Gaussian 16 at Fri Dec 11 13:53:19 2020.
 Gaussian 16:  ES64L-G16RevA.03 25-Dec-2016

 ----------------------------------------------------------------------
 # B3LYP/6-311++G(d,p) empiricaldispersion=gd3bj scf=xqc pop=npa geom=c
 heck
 ----------------------------------------------------------------------

 ------------------------------------
 CID_117551742_JID_7782_Energie_anion
 ------------------------------------
 Structure from the checkpoint file:  "JID_7782.chk"
 Charge = -1 Multiplicity = 2

                         Standard orientation:
 ---------------------------------------------------------------------
 Center     Atomic      Atomic             Coordinates (Angstroms)
 Number     Number       Type             X           Y           Z
 ---------------------------------------------------------------------
      1          6           0        1.452354    3.075160   -0.239866
      2          6           0        0.579465    1.877787   -0.055091
      3          6           0        0.829463    0.519114    0.050933
      4          7           0       -0.366139   -0.177304    0.160911
      5          6           0       -1.327040    0.720669    0.139818
      6          7           0       -0.799546    1.980679    0.008502
      7          6           0       -2.792372    0.436804    0.178498
      8          6           0       -3.210053   -0.594967    1.266762
      9          6           0       -4.141987   -1.594113    0.520459
     10          7           0       -4.513302   -0.983631   -0.767627
     11          6           0       -3.326667   -0.214077   -1.136680
     12          6           0        2.107622   -0.193375    0.028601
     13          6           0        2.141956   -1.552053   -0.340679
     14          7           0        3.252748   -2.288745   -0.402866
     15          6           0        4.410860   -1.689795   -0.091858
     16          6           0        4.498736   -0.355465    0.300716
     17          6           0        3.331025    0.399966    0.369842
     18          1           0        0.927849    3.863488   -0.792674
     19          1           0        1.785722    3.508317    0.713102
     20          1           0        2.346561    2.812426   -0.812421
     21          1           0       -1.324041    2.842738   -0.037598
     22          1           0       -3.328822    1.381262    0.339813
     23          1           0       -3.725769   -0.096420    2.093692
     24          1           0       -2.328168   -1.095478    1.672293
     25          1           0       -3.596121   -2.521105    0.310951
     26          1           0       -5.038326   -1.860249    1.087766
     27          1           0       -5.281011   -0.331133   -0.605472
     28          1           0       -3.552940    0.516113   -1.919573
     29          1           0       -2.562226   -0.900842   -1.518502
     30          1           0        1.208773   -2.048945   -0.591536
     31          1           0        5.303884   -2.309238   -0.153549
     32          1           0        5.459396    0.078921    0.561347
     33          1           0        3.368741    1.429215    0.711187
 ---------------------------------------------------------------------

 SCF Done:  E(UB3LYP) =  -724.276729785     A.U. after   33 cycles
 SCF Done:  E(UB3LYP) =  -724.276729785     a.u. after    1 cycles

 The electronic state is 2-A.
 Alpha  occ. eigenvalues --  -14.25985 -14.21154 -14.20456 -14.18882 -10.12762
 Alpha  occ. eigenvalues --  -10.10886 -10.10741 -10.10353 -10.09765 -10.09400
 Alpha  occ. eigenvalues --  -10.09211 -10.09117 -10.09067 -10.08961 -10.08450
 Alpha  occ. eigenvalues --  -10.08226 -10.06934  -0.91455  -0.84559  -0.82636
 Alpha  occ. eigenvalues --   -0.77334  -0.72153  -0.69518  -0.66954  -0.65655
 Alpha  occ. eigenvalues --   -0.62962  -0.58973  -0.54590  -0.53884  -0.51596
 Alpha  occ. eigenvalues --   -0.50567  -0.48329  -0.46503  -0.43158  -0.41749
 Alpha  occ. eigenvalues --   -0.41214  -0.38924  -0.36588  -0.36250  -0.35134
 Alpha  occ. eigenvalues --   -0.34084  -0.33610  -0.32990  -0.31700  -0.31691
 Alpha  occ. eigenvalues --   -0.30898  -0.30105  -0.29411  -0.28365  -0.27187
 Alpha  occ. eigenvalues --   -0.26453  -0.25224  -0.25051  -0.23180  -0.21050
 Alpha  occ. eigenvalues --   -0.18865  -0.18004  -0.16459  -0.16005  -0.14492
 Alpha  occ. eigenvalues --   -0.10879   0.03715
 Alpha virt. eigenvalues --    0.05496   0.06109   0.06813   0.06873   0.07966
 Alpha virt. eigenvalues --    0.08695   0.08838   0.09562   0.09839   0.10143
 Alpha virt. eigenvalues --    0.10975   0.11671   0.11938   0.12251   0.12408

  Beta  occ. eigenvalues --  -14.25918 -14.21098 -14.20443 -14.18872 -10.12768
  Beta  occ. eigenvalues --  -10.10861 -10.10699 -10.10366 -10.09760 -10.09391
  Beta  occ. eigenvalues --  -10.09177 -10.09119 -10.09021 -10.08963 -10.08420
  Beta  occ. eigenvalues --  -10.08184 -10.06926  -0.91407  -0.84472  -0.82606
  Beta  occ. eigenvalues --   -0.77260  -0.72070  -0.69460  -0.66900  -0.65587
  Beta  occ. eigenvalues --   -0.62935  -0.58916  -0.54493  -0.53834  -0.51524
  Beta  occ. eigenvalues --   -0.50518  -0.48255  -0.46447  -0.43113  -0.41696
  Beta  occ. eigenvalues --   -0.41163  -0.38879  -0.36545  -0.36198  -0.35083
  Beta  occ. eigenvalues --   -0.34022  -0.33585  -0.32951  -0.31658  -0.31635
  Beta  occ. eigenvalues --   -0.30806  -0.29963  -0.29361  -0.28334  -0.27158
  Beta  occ. eigenvalues --   -0.26426  -0.25197  -0.25015  -0.23132  -0.20825
  Beta  occ. eigenvalues --   -0.18703  -0.17976  -0.16364  -0.15943  -0.14453
  Beta  occ. eigenvalues --   -0.10769
  Beta virt. eigenvalues --    0.06124   0.06209   0.06671   0.06878   0.07479
  Beta virt. eigenvalues --    0.08589   0.08979   0.09187   0.09676   0.10102
  Beta virt. eigenvalues --    0.10585   0.11378   0.11812   0.12019   0.12204

 Mulliken charges and spin densities:
               1          2
     1  C    1.276317  -1.947892
     2  C   -0.538449   0.877293
     3  C   -0.178186  -0.167237
     4  N    0.112029  -0.071640
     5  C   -0.940050   0.809194
     6  N    0.000497  -0.132289
     7  C    0.615719  -0.291323
     8  C    0.172912  -0.650747
     9  C   -0.356999  -0.100789
    10  N   -0.116794   0.040178
    11  C    0.372302  -1.073451
    12  C    0.445246   0.124721
    13  C   -0.905081   0.122573
    14  N   -0.035449   0.023295
    15  C   -0.266237  -0.049733
    16  C   -0.123319  -0.056532
    17  C    0.205742  -0.148180
    18  H   -0.396367   0.546575
    19  H   -0.184471   0.379772
    20  H   -0.059648   0.201163
    21  H   -0.394181   0.736538
    22  H   -0.763096   0.983004
    23  H   -0.075272   0.209966
    24  H    0.171584   0.000514
    25  H    0.142575   0.016280
    26  H    0.090408   0.063228
    27  H    0.018957   0.211195
    28  H   -0.019575   0.187714
    29  H    0.150789   0.052515
    30  H    0.222936  -0.002068
    31  H    0.153442  -0.007614
    32  H    0.070858   0.091885
    33  H    0.130862   0.021892
 Sum of Mulliken charges =  -1.00000   1.00000

 Dipole moment (field-independent basis, Debye):
    X=              4.5943    Y=             -4.3542    Z=              1.0486  Tot=              6.4161
 Quadrupole moment (field-independent basis, Debye-Ang):
   XX=           -168.1199   YY=           -163.7265   ZZ=           -125.6126
   XY=             16.2050   XZ=             -1.2595   YZ=             -2.7650

 Summary of Natural Population Analysis:

                                       Natural Population
                Natural  -----------------------------------------------
    Atom  No    Charge         Core      Valence    Rydberg      Total
 -----------------------------------------------------------------------
      C    1   -0.30312      0.99964     2.29752    0.00597     3.30312
      C    2    0.07569      0.99950     1.91313    0.01169     2.92431
      C    3    0.03301      0.99945     1.95325    0.01429     2.96699
      N    4   -0.26253      0.99967     2.75536    0.00749     3.76253
      C    5    0.19981      0.99959     1.78319    0.01741     2.80019
      N    6   -0.26415      0.99962     2.75409    0.01044     3.76415
      C    7   -0.14326      0.99957     2.12945    0.01425     3.14326
      C    8   -0.19655      0.99963     2.18888    0.00805     3.19655
      C    9   -0.09278      0.99965     2.08256    0.01058     3.09278
      N   10   -0.33344      0.99976     2.82188    0.01179     3.83344
      C   11   -0.08320      0.99962     2.07181    0.01177     3.08320
      C   12   -0.03877      0.99949     2.02939    0.00988     3.03877
      C   13    0.03393      0.99956     1.95162    0.01489     2.96607
      N   14   -0.22580      0.99972     2.71547    0.01062     3.72580
      C   15    0.01872      0.99960     1.96773    0.01396     2.98128
      C   16   -0.12725      0.99957     2.11942    0.00827     3.12725
      C   17   -0.07582      0.99954     2.06698    0.00930     3.07582
      H   18    0.11010      0.00000     0.38858    0.00132     0.38990
      H   19    0.10643      0.00000     0.39211    0.00145     0.39357
      H   20    0.10865      0.00000     0.39029    0.00106     0.39135
      H   21    0.21307      0.00000     0.27104    0.01589     0.28693
      H   22    0.10844      0.00000     0.38527    0.00629     0.39156
      H   23    0.09882      0.00000     0.40017    0.00101     0.40118
      H   24    0.10867      0.00000     0.39019    0.00114     0.39133
      H   25    0.08902      0.00000     0.40986    0.00112     0.41098
      H   26    0.09311      0.00000     0.40607    0.00083     0.40689
      H   27    0.16963      0.00000     0.32778    0.00258     0.33037
      H   28    0.09920      0.00000     0.39988    0.00092     0.40080
      H   29    0.09433      0.00000     0.40441    0.00125     0.40567
      H   30    0.09946      0.00000     0.39884    0.00170     0.40054
      H   31    0.08477      0.00000     0.41413    0.00109     0.41523
      H   32    0.10000      0.00000     0.39914    0.00086     0.40000
      H   33    0.10182      0.00000     0.39685    0.00133     0.39818
 =======================================================================
   * Total *    0.00000     16.99318    43.77636    0.23046    61.00000

 Normal termination of Gaussian 16 at Fri Dec 11 14:10:40 2020.
