 Gaussian 16, Revision A.03,

 -----------------------------------------------------------
 # opt freq B3LYP/6-31G(d) empiricaldispersion=gd3bj scf=xqc
 -----------------------------------------------------------

 ------------------------------
 CID_64569023_JID_8850_neutraal
 ------------------------------
 Symbolic Z-matrix:
 Charge =  0 Multiplicity = 1

 SCF Done:  E(RB3LYP) =  -822.758371523     A.U. after   16 cycles
 SCF Done:  E(RB3LYP) =  -822.764754422     A.U. after   13 cycles
 SCF Done:  E(RB3LYP) =  -822.764189288     A.U. after   14 cycles
 SCF Done:  E(RB3LYP) =  -822.766440196     A.U. after   12 cycles
 SCF Done:  E(RB3LYP) =  -822.767108499     A.U. after   13 cycles
 SCF Done:  E(RB3LYP) =  -822.767799771     A.U. after   12 cycles
 SCF Done:  E(RB3LYP) =  -822.767961244     A.U. after   11 cycles
 SCF Done:  E(RB3LYP) =  -822.768025769     A.U. after   12 cycles
 SCF Done:  E(RB3LYP) =  -822.768072441     A.U. after   10 cycles
 SCF Done:  E(RB3LYP) =  -822.768107301     A.U. after   11 cycles
 SCF Done:  E(RB3LYP) =  -822.768171650     A.U. after    9 cycles
 SCF Done:  E(RB3LYP) =  -822.768172356     A.U. after    8 cycles
 SCF Done:  E(RB3LYP) =  -822.768172986     A.U. after    9 cycles
 SCF Done:  E(RB3LYP) =  -822.768173087     A.U. after    7 cycles
 SCF Done:  E(RB3LYP) =  -822.768173104     A.U. after    7 cycles
 Optimization completed.
    -- Stationary point found.
 Normal termination of Gaussian 16 at Fri Dec 11 22:29:29 2020.

 --------------------------------------------------------------------
 #N Geom=AllCheck Guess=TCheck SCRF=Check GenChk RB3LYP/6-31G(d) Freq
 --------------------------------------------------------------------

 Structure from the checkpoint file:  "JID_8850.chk"
 ------------------------------
 CID_64569023_JID_8850_neutraal
 ------------------------------
 Charge =  0 Multiplicity = 1

 SCF Done:  E(RB3LYP) =  -822.768173104     A.U. after    1 cycles

  Exact polarizability: 159.538 -23.666 163.410 -15.974  -4.752 149.906
 Approx polarizability: 205.798 -45.603 256.190 -35.361   2.799 257.935

                      1                      2                      3
                      A                      A                      A
 Frequencies --     22.1262                24.3587                41.3634
 Red. masses --      3.4317                 4.3320                 4.8373
 Frc consts  --      0.0010                 0.0015                 0.0049
 IR Inten    --      1.4989                 1.1433                 1.3518

                      4                      5                      6
                      A                      A                      A
 Frequencies --     69.4126                82.5957               103.2980
 Red. masses --      3.5979                 3.7892                 3.1184
 Frc consts  --      0.0102                 0.0152                 0.0196
 IR Inten    --      3.0179                 1.5878                 1.7688

                      7                      8                      9
                      A                      A                      A
 Frequencies --    130.8166               150.7238               160.3667
 Red. masses --      5.9256                 2.3482                 3.6030
 Frc consts  --      0.0597                 0.0314                 0.0546
 IR Inten    --      3.2127                 1.7067                 2.7781

                     10                     11                     12
                      A                      A                      A
 Frequencies --    202.6406               210.2697               235.2945
 Red. masses --      1.1284                 2.6579                 2.5218
 Frc consts  --      0.0273                 0.0692                 0.0823
 IR Inten    --     39.9041                 6.8624                 2.4484

                     13                     14                     15
                      A                      A                      A
 Frequencies --    248.0670               274.3453               304.4337
 Red. masses --      1.3561                 2.9562                 2.7890
 Frc consts  --      0.0492                 0.1311                 0.1523
 IR Inten    --      3.4741                 7.3659                 4.6380

                     16                     17                     18
                      A                      A                      A
 Frequencies --    321.1558               340.3302               368.8160
 Red. masses --      3.4581                 3.5110                 3.7073
 Frc consts  --      0.2101                 0.2396                 0.2971
 IR Inten    --      3.2747                 6.6864                13.0030

                     19                     20                     21
                      A                      A                      A
 Frequencies --    384.4597               414.6895               423.4522
 Red. masses --      2.3796                 3.1287                 2.0364
 Frc consts  --      0.2072                 0.3170                 0.2151
 IR Inten    --      3.5040                 1.5426                 0.5441

                     22                     23                     24
                      A                      A                      A
 Frequencies --    453.1594               493.5786               509.8880
 Red. masses --      4.0016                 3.3109                 2.8131
 Frc consts  --      0.4842                 0.4752                 0.4309
 IR Inten    --     12.3187                 4.7537                 4.1693

                     25                     26                     27
                      A                      A                      A
 Frequencies --    526.9766               548.5939               597.5711
 Red. masses --      3.0099                 2.9556                 4.2063
 Frc consts  --      0.4925                 0.5241                 0.8850
 IR Inten    --     10.3185                 6.3325                 3.2357

                     28                     29                     30
                      A                      A                      A
 Frequencies --    602.4447               666.7213               713.3496
 Red. masses --      3.0396                 3.3651                 3.7470
 Frc consts  --      0.6500                 0.8813                 1.1234
 IR Inten    --      0.7074                 9.4777               109.6378

                     31                     32                     33
                      A                      A                      A
 Frequencies --    727.7632               757.1776               791.6117
 Red. masses --      2.9653                 1.7457                 2.0919
 Frc consts  --      0.9253                 0.5897                 0.7724
 IR Inten    --     46.1485               143.4295                 0.6008

                     34                     35                     36
                      A                      A                      A
 Frequencies --    823.3781               827.8929               834.9871
 Red. masses --      2.1602                 1.9983                 4.0054
 Frc consts  --      0.8629                 0.8070                 1.6453
 IR Inten    --      8.4059                25.3835                 1.7612

                     37                     38                     39
                      A                      A                      A
 Frequencies --    847.7166               888.0189               896.8051
 Red. masses --      1.8609                 2.5455                 2.3747
 Frc consts  --      0.7879                 1.1827                 1.1253
 IR Inten    --     66.4906                 8.1527                 6.0121

                     40                     41                     42
                      A                      A                      A
 Frequencies --    924.9478               929.7774               953.2565
 Red. masses --      2.6832                 2.2729                 1.9813
 Frc consts  --      1.3525                 1.1577                 1.0608
 IR Inten    --     11.1993                 0.7962                 2.3719

                     43                     44                     45
                      A                      A                      A
 Frequencies --    970.5230               985.9534               995.5514
 Red. masses --      3.0164                 1.2795                 1.4813
 Frc consts  --      1.6740                 0.7328                 0.8650
 IR Inten    --      2.9142                 0.2936                 3.9962

                     46                     47                     48
                      A                      A                      A
 Frequencies --   1002.6813              1049.7426              1073.0903
 Red. masses --      1.6800                 2.3912                 2.1786
 Frc consts  --      0.9951                 1.5525                 1.4781
 IR Inten    --      4.2430                 3.7770                18.6686

                     49                     50                     51
                      A                      A                      A
 Frequencies --   1125.3582              1134.2137              1142.0861
 Red. masses --      2.3125                 2.3638                 2.0929
 Frc consts  --      1.7255                 1.7917                 1.6084
 IR Inten    --     30.0040                19.2989                24.9605

                     52                     53                     54
                      A                      A                      A
 Frequencies --   1152.2853              1165.8705              1171.8588
 Red. masses --      1.8070                 2.0831                 1.7256
 Frc consts  --      1.4136                 1.6683                 1.3961
 IR Inten    --      6.2828                17.1303                34.8625

                     55                     56                     57
                      A                      A                      A
 Frequencies --   1182.0908              1190.0299              1201.5012
 Red. masses --      1.6140                 1.3415                 1.5420
 Frc consts  --      1.3288                 1.1194                 1.3116
 IR Inten    --     15.3576                 2.5271                17.3815

                     58                     59                     60
                      A                      A                      A
 Frequencies --   1219.3038              1234.0657              1245.6435
 Red. masses --      1.8569                 2.0316                 1.6308
 Frc consts  --      1.6265                 1.8229                 1.4909
 IR Inten    --     48.9848                31.1421                16.9365

                     61                     62                     63
                      A                      A                      A
 Frequencies --   1262.9737              1270.9651              1278.5117
 Red. masses --      1.3867                 1.4629                 1.6166
 Frc consts  --      1.3032                 1.3923                 1.5569
 IR Inten    --      2.4407                12.2664                38.6913

                     64                     65                     66
                      A                      A                      A
 Frequencies --   1315.8662              1322.2402              1331.9811
 Red. masses --      1.4007                 2.4519                 1.2814
 Frc consts  --      1.4289                 2.5256                 1.3395
 IR Inten    --      3.3400                60.0585                 1.0760

                     67                     68                     69
                      A                      A                      A
 Frequencies --   1346.0319              1368.6921              1383.2273
 Red. masses --      1.2665                 1.4282                 1.4917
 Frc consts  --      1.3520                 1.5764                 1.6816
 IR Inten    --     13.5266                 6.9987                14.9538

                     70                     71                     72
                      A                      A                      A
 Frequencies --   1398.9487              1399.3817              1408.5206
 Red. masses --      1.4874                 1.3536                 1.3877
 Frc consts  --      1.7151                 1.5618                 1.6221
 IR Inten    --      2.5357                 3.1230                48.3608

                     73                     74                     75
                      A                      A                      A
 Frequencies --   1422.2898              1428.2646              1443.0757
 Red. masses --      1.3093                 1.5377                 1.4526
 Frc consts  --      1.5605                 1.8482                 1.7822
 IR Inten    --      2.9703                13.7926                18.2423

                     76                     77                     78
                      A                      A                      A
 Frequencies --   1444.7165              1496.5166              1499.0889
 Red. masses --      1.6657                 1.1042                 1.1093
 Frc consts  --      2.0484                 1.4569                 1.4687
 IR Inten    --     22.7203                 3.3027                 0.3570

                     79                     80                     81
                      A                      A                      A
 Frequencies --   1504.1017              1512.5674              1513.5771
 Red. masses --      1.3959                 1.0744                 1.9307
 Frc consts  --      1.8607                 1.4483                 2.6060
 IR Inten    --     23.2675                 4.8474                 4.9046

                     82                     83                     84
                      A                      A                      A
 Frequencies --   1518.1928              1529.1712              1544.0803
 Red. masses --      1.1122                 1.1080                 1.0486
 Frc consts  --      1.5104                 1.5265                 1.4730
 IR Inten    --      0.6756                 0.9082                 6.5099

                     85                     86                     87
                      A                      A                      A
 Frequencies --   1552.5333              1573.5650              1599.1789
 Red. masses --      1.0942                 1.0886                 5.7712
 Frc consts  --      1.5540                 1.5881                 8.6959
 IR Inten    --      5.5174                 3.7931                52.0728

                     88                     89                     90
                      A                      A                      A
 Frequencies --   1680.9090              1698.5801              1756.5121
 Red. masses --      2.5286                 1.5220                 7.7395
 Frc consts  --      4.2093                 2.5872                14.0691
 IR Inten    --    123.5108               250.1892               147.5573

                     91                     92                     93
                      A                      A                      A
 Frequencies --   2980.9871              3000.5284              3007.8628
 Red. masses --      1.0692                 1.0404                 1.0611
 Frc consts  --      5.5981                 5.5189                 5.6560
 IR Inten    --     60.7775                55.4438                42.3985

                     94                     95                     96
                      A                      A                      A
 Frequencies --   3015.2715              3034.1923              3048.4226
 Red. masses --      1.0590                 1.0694                 1.1037
 Frc consts  --      5.6730                 5.8007                 6.0432
 IR Inten    --     66.7423                31.4371                50.4419

                     97                     98                     99
                      A                      A                      A
 Frequencies --   3050.9743              3058.5329              3058.9570
 Red. masses --      1.0828                 1.0995                 1.0986
 Frc consts  --      5.9385                 6.0598                 6.0568
 IR Inten    --      7.1956                49.9146                24.2000

                    100                    101                    102
                      A                      A                      A
 Frequencies --   3062.0010              3080.1807              3082.9457
 Red. masses --      1.0732                 1.0965                 1.0619
 Frc consts  --      5.9283                 6.1292                 5.9464
 IR Inten    --     67.3037                 5.1508                41.6405

                    103                    104                    105
                      A                      A                      A
 Frequencies --   3086.4393              3116.8954              3128.7724
 Red. masses --      1.0931                 1.0994                 1.1046
 Frc consts  --      6.1350                 6.2931                 6.3712
 IR Inten    --     64.8385                65.1157                25.8255

                    106                    107                    108
                      A                      A                      A
 Frequencies --   3174.8690              3182.2864              3207.6176
 Red. masses --      1.0931                 1.0898                 1.0913
 Frc consts  --      6.4920                 6.5024                 6.6157
 IR Inten    --      3.2342                13.5672                10.0725

                    109                    110                    111
                      A                      A                      A
 Frequencies --   3233.8384              3515.2510              3610.5308
 Red. masses --      1.0935                 1.0491                 1.0956
 Frc consts  --      6.7377                 7.6379                 8.4145
 IR Inten    --      2.7112                 3.8488                 4.9429

 - Thermochemistry -
 -------------------
 Temperature   298.150 Kelvin.  Pressure   1.00000 Atm.
 Atom     1 has atomic number  6 and mass  12.00000

 Molecular mass:   251.16338 amu.
 Principal axes and moments of inertia in atomic units:
                           1         2         3
     Eigenvalues --  2952.719426483.574107399.87449
           X            0.99994  -0.00548  -0.00952
           Y            0.00517   0.99944  -0.03293
           Z            0.00969   0.03288   0.99941
 This molecule is an asymmetric top.
 Rotational symmetry number  1.
 Warning -- assumption of classical behavior for rotation
           may cause significant error
 Rotational temperatures (Kelvin)      0.02933     0.01336     0.01170
 Rotational constants (GHZ):           0.61121     0.27836     0.24389
 Zero-point vibrational energy     894879.1 (Joules/Mol)
                                  213.88123 (Kcal/Mol)
 Warning -- explicit consideration of  28 degrees of freedom as
           vibrations may cause significant error
 Vibrational temperatures:     31.83    35.05    59.51    99.87   118.84
          (Kelvin)            148.62   188.22   216.86   230.73   291.55
                              302.53   338.54   356.91   394.72   438.01
                              462.07   489.66   530.64   553.15   596.65
                              609.25   652.00   710.15   733.62   758.20
                              789.30   859.77   866.78   959.26  1026.35
                             1047.09  1089.41  1138.95  1184.66  1191.15
                             1201.36  1219.68  1277.66  1290.30  1330.79
                             1337.74  1371.52  1396.37  1418.57  1432.38
                             1442.63  1510.35  1543.94  1619.14  1631.88
                             1643.21  1657.88  1677.43  1686.04  1700.77
                             1712.19  1728.69  1754.31  1775.55  1792.20
                             1817.14  1828.64  1839.49  1893.24  1902.41
                             1916.42  1936.64  1969.24  1990.16  2012.78
                             2013.40  2026.55  2046.36  2054.95  2076.26
                             2078.62  2153.15  2156.85  2164.07  2176.25
                             2177.70  2184.34  2200.14  2221.59  2233.75
                             2264.01  2300.86  2418.45  2443.88  2527.23
                             4288.98  4317.09  4327.64  4338.30  4365.53
                             4386.00  4389.67  4400.55  4401.16  4405.54
                             4431.69  4435.67  4440.70  4484.52  4501.61
                             4567.93  4578.60  4615.05  4652.77  5057.66
                             5194.75

 Zero-point correction=                           0.340841 (Hartree/Particle)
 Thermal correction to Energy=                    0.358618
 Thermal correction to Enthalpy=                  0.359562
 Thermal correction to Gibbs Free Energy=         0.293648
 Sum of electronic and zero-point Energies=           -822.427332
 Sum of electronic and thermal Energies=              -822.409555
 Sum of electronic and thermal Enthalpies=            -822.408611
 Sum of electronic and thermal Free Energies=         -822.474525

                     E (Thermal)             CV                S
                      KCal/Mol        Cal/Mol-Kelvin    Cal/Mol-Kelvin
 Total                  225.036             67.726            138.727
 Electronic               0.000              0.000              0.000
 Translational            0.889              2.981             42.463
 Rotational               0.889              2.981             33.315
 Vibrational            223.259             61.765             62.949
 Vibration     1          0.593              1.985              6.434
 Vibration     2          0.593              1.985              6.243
 Vibration     3          0.594              1.981              5.193
 Vibration     4          0.598              1.969              4.170
 Vibration     5          0.600              1.961              3.828
 Vibration     6          0.605              1.947              3.391
 Vibration     7          0.612              1.923              2.934
 Vibration     8          0.618              1.902              2.663
 Vibration     9          0.622              1.891              2.545
 Vibration    10          0.639              1.836              2.109
 Vibration    11          0.642              1.825              2.041
 Vibration    12          0.655              1.787              1.838
 Vibration    13          0.662              1.766              1.744
 Vibration    14          0.677              1.721              1.569
 Vibration    15          0.695              1.665              1.392
 Vibration    16          0.707              1.633              1.304
 Vibration    17          0.720              1.595              1.211
 Vibration    18          0.741              1.536              1.085
 Vibration    19          0.753              1.503              1.022
 Vibration    20          0.778              1.438              0.910
 Vibration    21          0.786              1.419              0.880
 Vibration    22          0.812              1.354              0.786
 Vibration    23          0.849              1.264              0.674
 Vibration    24          0.865              1.228              0.634
 Vibration    25          0.882              1.190              0.594
 Vibration    26          0.904              1.143              0.547
 Vibration    27          0.955              1.037              0.454
 Vibration    28          0.961              1.027              0.445

                           ! Non-Optimized Parameters !
 Normal termination of Gaussian 16 at Fri Dec 11 22:51:30 2020.

 ----------------------------------------------------------------------
 # B3LYP/6-311++G(d,p) empiricaldispersion=gd3bj scf=xqc pop=npa geom=c
 heck
 ----------------------------------------------------------------------

 --------------------------------------
 CID_64569023_JID_8850_Energie_neutraal
 --------------------------------------
 Structure from the checkpoint file:  "JID_8850.chk"
 Charge =  0 Multiplicity = 1

 SCF Done:  E(RB3LYP) =  -823.003855674     A.U. after   16 cycles
 Normal termination of Gaussian 16 at Fri Dec 11 23:02:16 2020.

 ----------------------------------------------------------------------
 # B3LYP/6-311++G(d,p) empiricaldispersion=gd3bj scf=xqc pop=npa geom=c
 heck
 ----------------------------------------------------------------------

 ------------------------------------
 CID_64569023_JID_8850_Energie_kation
 ------------------------------------
 Structure from the checkpoint file:  "JID_8850.chk"
 Charge =  1 Multiplicity = 2

 SCF Done:  E(UB3LYP) =  -822.750004645     A.U. after   25 cycles
 Normal termination of Gaussian 16 at Fri Dec 11 23:26:03 2020.
 Gaussian 16:  ES64L-G16RevA.03 25-Dec-2016

 ----------------------------------------------------------------------
 # B3LYP/6-311++G(d,p) empiricaldispersion=gd3bj scf=xqc pop=npa geom=c
 heck
 ----------------------------------------------------------------------

 -----------------------------------
 CID_64569023_JID_8850_Energie_anion
 -----------------------------------
 Structure from the checkpoint file:  "JID_8850.chk"
 Charge = -1 Multiplicity = 2

                         Standard orientation:
 ---------------------------------------------------------------------
 Center     Atomic      Atomic             Coordinates (Angstroms)
 Number     Number       Type             X           Y           Z
 ---------------------------------------------------------------------
      1          6           0       -4.476485   -1.384549   -0.770257
      2          8           0       -3.286666   -2.048607   -0.399756
      3          6           0       -2.640137   -1.553978    0.763934
      4          6           0       -1.867875   -0.238168    0.614845
      5          6           0       -2.660051    1.083846    0.663885
      6          6           0       -1.629064    2.080425    0.131145
      7          7           0       -0.981583    1.332992   -0.948823
      8          6           0       -1.058623   -0.116715   -0.689357
      9          6           0        0.216280    1.882527   -1.524894
     10          6           0        1.433720    2.101562   -0.592463
     11          7           0        1.960659    0.856890   -0.025474
     12          6           0        2.685631    0.019921   -0.841786
     13          6           0        3.093424   -1.221489   -0.438633
     14          6           0        2.752914   -1.615980    0.891307
     15          6           0        2.071855   -0.775894    1.719404
     16          6           0        1.616611    0.533699    1.299634
     17          8           0        0.962388    1.310133    2.006548
     18          7           0        3.758072   -2.130461   -1.288643
     19          1           0       -5.021699   -2.056842   -1.439977
     20          1           0       -4.284913   -0.443503   -1.303531
     21          1           0       -5.108316   -1.167145    0.105472
     22          1           0       -3.368837   -1.462133    1.587737
     23          1           0       -1.934476   -2.346827    1.035678
     24          1           0       -1.162845   -0.197709    1.455164
     25          1           0       -2.999491    1.328698    1.675253
     26          1           0       -3.533397    1.057815    0.005858
     27          1           0       -2.082914    3.000173   -0.262523
     28          1           0       -0.932901    2.352522    0.938583
     29          1           0       -0.075944   -0.589821   -0.586667
     30          1           0       -1.577683   -0.623883   -1.513552
     31          1           0        0.522227    1.240797   -2.362029
     32          1           0       -0.016968    2.867516   -1.957210
     33          1           0        2.236556    2.589152   -1.158302
     34          1           0        1.170156    2.735350    0.253231
     35          1           0        2.894158    0.404933   -1.834544
     36          1           0        3.047002   -2.605801    1.233431
     37          1           0        1.813660   -1.059780    2.733063
     38          1           0        4.533753   -2.600223   -0.831988
     39          1           0        4.087858   -1.702683   -2.147485
 ---------------------------------------------------------------------

 SCF Done:  E(UB3LYP) =  -823.002941374     A.U. after   33 cycles
 SCF Done:  E(UB3LYP) =  -823.002941375     a.u. after    1 cycles

 The electronic state is 2-A.
 Alpha  occ. eigenvalues --  -19.03776 -18.93704 -14.22309 -14.19812 -14.18483
 Alpha  occ. eigenvalues --  -10.13157 -10.12392 -10.12284 -10.08377 -10.07940
 Alpha  occ. eigenvalues --  -10.07773 -10.07710 -10.07529 -10.06830 -10.06598
 Alpha  occ. eigenvalues --  -10.06557 -10.04038 -10.02689  -0.94876  -0.89405
 Alpha  occ. eigenvalues --   -0.82594  -0.81386  -0.78852  -0.69953  -0.67377
 Alpha  occ. eigenvalues --   -0.64625  -0.61521  -0.60869  -0.59903  -0.55464
 Alpha  occ. eigenvalues --   -0.52881  -0.50369  -0.48233  -0.46710  -0.45388
 Alpha  occ. eigenvalues --   -0.40986  -0.40381  -0.39798  -0.39070  -0.38766
 Alpha  occ. eigenvalues --   -0.37713  -0.35632  -0.35033  -0.34033  -0.33667
 Alpha  occ. eigenvalues --   -0.33255  -0.31988  -0.30307  -0.29946  -0.29412
 Alpha  occ. eigenvalues --   -0.28908  -0.28198  -0.26492  -0.26310  -0.26171
 Alpha  occ. eigenvalues --   -0.25259  -0.24469  -0.23542  -0.22985  -0.22749
 Alpha  occ. eigenvalues --   -0.21644  -0.21489  -0.17650  -0.16960  -0.14814
 Alpha  occ. eigenvalues --   -0.12062  -0.08928  -0.06603   0.04577
 Alpha virt. eigenvalues --    0.06273   0.07151   0.07880   0.08368   0.08851
 Alpha virt. eigenvalues --    0.09160   0.10131   0.10468   0.10588   0.11659
 Alpha virt. eigenvalues --    0.11746   0.11894   0.12601   0.12793   0.13471

  Beta  occ. eigenvalues --  -19.03776 -18.93656 -14.22124 -14.19794 -14.18484
  Beta  occ. eigenvalues --  -10.13154 -10.12392 -10.12270 -10.08358 -10.07936
  Beta  occ. eigenvalues --  -10.07787 -10.07769 -10.07528 -10.06830 -10.06596
  Beta  occ. eigenvalues --  -10.06305 -10.03774 -10.02521  -0.94875  -0.89246
  Beta  occ. eigenvalues --   -0.82426  -0.81285  -0.78788  -0.69921  -0.67061
  Beta  occ. eigenvalues --   -0.64576  -0.61410  -0.60736  -0.59650  -0.55396
  Beta  occ. eigenvalues --   -0.52726  -0.50073  -0.48088  -0.46652  -0.45339
  Beta  occ. eigenvalues --   -0.40947  -0.40270  -0.39702  -0.39065  -0.38736
  Beta  occ. eigenvalues --   -0.37676  -0.35515  -0.34898  -0.33809  -0.33577
  Beta  occ. eigenvalues --   -0.33079  -0.31939  -0.30206  -0.29839  -0.29386
  Beta  occ. eigenvalues --   -0.28703  -0.28076  -0.26329  -0.26213  -0.26082
  Beta  occ. eigenvalues --   -0.25226  -0.24398  -0.23408  -0.22883  -0.22614
  Beta  occ. eigenvalues --   -0.21583  -0.21480  -0.17366  -0.16500  -0.13699
  Beta  occ. eigenvalues --   -0.11950  -0.08861  -0.05794
  Beta virt. eigenvalues --    0.06189   0.07523   0.07925   0.08279   0.08963
  Beta virt. eigenvalues --    0.09339   0.09807   0.10423   0.10437   0.10822
  Beta virt. eigenvalues --    0.11688   0.11782   0.12066   0.12548   0.12917

 Mulliken charges and spin densities:
               1          2
     1  C   -0.264873  -0.047123
     2  O   -0.110068   0.002446
     3  C   -0.766910   0.011504
     4  C    0.203218   0.017364
     5  C   -0.225621  -0.078541
     6  C   -0.279940  -0.099831
     7  N    0.154073  -0.004956
     8  C   -0.373195  -0.014429
     9  C    0.055692  -0.291469
    10  C    0.140657  -0.283415
    11  N    0.164545   0.078399
    12  C    0.574145  -0.411259
    13  C   -0.538800  -0.092782
    14  C    0.302339   0.023020
    15  C   -0.342947   0.276610
    16  C   -0.297050  -0.148393
    17  O   -0.356498   0.013647
    18  N   -0.324118   0.039404
    19  H    0.124618   0.014641
    20  H    0.112078   0.031898
    21  H    0.096047   0.016500
    22  H    0.110012  -0.002336
    23  H    0.192971   0.002296
    24  H    0.175533   0.002296
    25  H    0.151050   0.006708
    26  H    0.110393   0.008786
    27  H    0.061391   0.078411
    28  H    0.165342  -0.021402
    29  H    0.168779  -0.006905
    30  H    0.173311   0.031648
    31  H    0.217154  -0.061004
    32  H   -0.202167   0.350467
    33  H   -0.545982   0.733001
    34  H    0.264072  -0.079178
    35  H   -0.438871   0.544045
    36  H    0.141121  -0.011845
    37  H    0.140958  -0.006392
    38  H    0.091185   0.129364
    39  H   -0.023645   0.248807
 Sum of Mulliken charges =  -1.00000   1.00000

 Dipole moment (field-independent basis, Debye):
    X=             -7.9203    Y=             -2.0567    Z=              1.7200  Tot=              8.3618
 Quadrupole moment (field-independent basis, Debye-Ang):
   XX=           -156.6555   YY=           -144.7396   ZZ=           -143.4285
   XY=             -6.3232   XZ=              6.8125   YZ=             -2.3399

 Summary of Natural Population Analysis:

                                       Natural Population
                Natural  -----------------------------------------------
    Atom  No    Charge         Core      Valence    Rydberg      Total
 -----------------------------------------------------------------------
      C    1   -0.09826      0.99962     2.08997    0.00867     3.09826
      O    2   -0.29988      0.99989     3.29017    0.00983     4.29988
      C    3   -0.00082      0.99955     1.99033    0.01094     3.00082
      C    4   -0.14089      0.99959     2.13041    0.01089     3.14089
      C    5   -0.19033      0.99962     2.18327    0.00744     3.19033
      C    6   -0.08773      0.99963     2.07730    0.01081     3.08773
      N    7   -0.28918      0.99972     2.77738    0.01208     3.78918
      C    8   -0.08077      0.99960     2.06996    0.01121     3.08077
      C    9   -0.07989      0.99961     2.06844    0.01184     3.07989
      C   10   -0.09824      0.99961     2.08709    0.01155     3.09824
      N   11   -0.20310      0.99963     2.69229    0.01117     3.70310
      C   12    0.04402      0.99949     1.94398    0.01251     2.95598
      C   13    0.02300      0.99947     1.96641    0.01111     2.97700
      C   14   -0.04406      0.99953     2.03483    0.00970     3.04406
      C   15   -0.11832      0.99952     2.11000    0.00880     3.11832
      C   16    0.30549      0.99960     1.67126    0.02365     2.69451
      O   17   -0.35854      0.99988     3.35321    0.00545     4.35854
      N   18   -0.40742      0.99973     2.89715    0.01054     3.90742
      H   19    0.08533      0.00000     0.41359    0.00109     0.41467
      H   20    0.08078      0.00000     0.41766    0.00156     0.41922
      H   21    0.07467      0.00000     0.42356    0.00178     0.42533
      H   22    0.07487      0.00000     0.42409    0.00104     0.42513
      H   23    0.09391      0.00000     0.40517    0.00091     0.40609
      H   24    0.11571      0.00000     0.38277    0.00152     0.38429
      H   25    0.09772      0.00000     0.40135    0.00094     0.40228
      H   26    0.09050      0.00000     0.40800    0.00150     0.40950
      H   27    0.08648      0.00000     0.41255    0.00097     0.41352
      H   28    0.10108      0.00000     0.39739    0.00153     0.39892
      H   29    0.10178      0.00000     0.39694    0.00128     0.39822
      H   30    0.08857      0.00000     0.41006    0.00136     0.41143
      H   31    0.09460      0.00000     0.40430    0.00110     0.40540
      H   32    0.09160      0.00000     0.40725    0.00116     0.40840
      H   33    0.09799      0.00000     0.39924    0.00277     0.40201
      H   34    0.11210      0.00000     0.38656    0.00134     0.38790
      H   35    0.09380      0.00000     0.40443    0.00176     0.40620
      H   36    0.08877      0.00000     0.40993    0.00131     0.41123
      H   37    0.09646      0.00000     0.40242    0.00112     0.40354
      H   38    0.17628      0.00000     0.32218    0.00153     0.32372
      H   39    0.18192      0.00000     0.31613    0.00195     0.31808
 =======================================================================
   * Total *   -0.00000     17.99329    49.77899    0.22772    68.00000

 Normal termination of Gaussian 16 at Fri Dec 11 23:56:31 2020.
