 Gaussian 16, Revision A.03,

 -----------------------------------------------------------
 # opt freq B3LYP/6-31G(d) empiricaldispersion=gd3bj scf=xqc
 -----------------------------------------------------------

 -------------------------------
 CID_116217089_JID_1741_neutraal
 -------------------------------
 Symbolic Z-matrix:
 Charge =  0 Multiplicity = 1

 SCF Done:  E(RB3LYP) =  -481.982960178     A.U. after   14 cycles
 SCF Done:  E(RB3LYP) =  -481.985840939     A.U. after   11 cycles
 SCF Done:  E(RB3LYP) =  -481.986254860     A.U. after   11 cycles
 SCF Done:  E(RB3LYP) =  -481.986345381     A.U. after   11 cycles
 SCF Done:  E(RB3LYP) =  -481.986418778     A.U. after   11 cycles
 SCF Done:  E(RB3LYP) =  -481.986477272     A.U. after   11 cycles
 SCF Done:  E(RB3LYP) =  -481.986502039     A.U. after   11 cycles
 SCF Done:  E(RB3LYP) =  -481.986575700     A.U. after   10 cycles
 SCF Done:  E(RB3LYP) =  -481.986701003     A.U. after   11 cycles
 SCF Done:  E(RB3LYP) =  -481.986723762     A.U. after   10 cycles
 SCF Done:  E(RB3LYP) =  -481.986732901     A.U. after    9 cycles
 SCF Done:  E(RB3LYP) =  -481.986735369     A.U. after   10 cycles
 SCF Done:  E(RB3LYP) =  -481.986737209     A.U. after    9 cycles
 SCF Done:  E(RB3LYP) =  -481.986737829     A.U. after    9 cycles
 SCF Done:  E(RB3LYP) =  -481.986737968     A.U. after    8 cycles
 Optimization completed.
    -- Stationary point found.
 Normal termination of Gaussian 16 at Tue Dec  8 21:02:21 2020.

 --------------------------------------------------------------------
 #N Geom=AllCheck Guess=TCheck SCRF=Check GenChk RB3LYP/6-31G(d) Freq
 --------------------------------------------------------------------

 Structure from the checkpoint file:  "JID_1741.chk"
 -------------------------------
 CID_116217089_JID_1741_neutraal
 -------------------------------
 Charge =  0 Multiplicity = 1

 SCF Done:  E(RB3LYP) =  -481.986737968     A.U. after    1 cycles

  Exact polarizability: 113.133   0.244 104.096  12.564  -3.917  81.192
 Approx polarizability: 148.419   2.595 156.359  25.660  -3.648 124.098

                      1                      2                      3
                      A                      A                      A
 Frequencies --     21.2367                68.4216                73.1388
 Red. masses --      3.7550                 3.2210                 3.6424
 Frc consts  --      0.0010                 0.0089                 0.0115
 IR Inten    --      0.5130                 1.2406                 0.9675

                      4                      5                      6
                      A                      A                      A
 Frequencies --    100.4100               147.0744               199.1336
 Red. masses --      1.0423                 2.5549                 3.6594
 Frc consts  --      0.0062                 0.0326                 0.0855
 IR Inten    --      0.0050                 0.0919                 0.6990

                      7                      8                      9
                      A                      A                      A
 Frequencies --    249.0977               256.9194               274.6581
 Red. masses --      2.0167                 1.2465                 1.4595
 Frc consts  --      0.0737                 0.0485                 0.0649
 IR Inten    --      2.3765                 5.0630                29.1860

                     10                     11                     12
                      A                      A                      A
 Frequencies --    300.5520               346.3050               397.3505
 Red. masses --      1.8865                 2.8064                 2.3175
 Frc consts  --      0.1004                 0.1983                 0.2156
 IR Inten    --      5.5933                 2.8057                 5.5466

                     13                     14                     15
                      A                      A                      A
 Frequencies --    404.8956               447.0086               516.7356
 Red. masses --      2.1809                 2.1071                 2.9739
 Frc consts  --      0.2107                 0.2481                 0.4679
 IR Inten    --      6.1787                 5.6837                 8.1918

                     16                     17                     18
                      A                      A                      A
 Frequencies --    620.1283               627.4827               685.9619
 Red. masses --      4.1174                 4.1393                 3.9440
 Frc consts  --      0.9329                 0.9602                 1.0934
 IR Inten    --      2.5691                 3.1220                 3.4931

                     19                     20                     21
                      A                      A                      A
 Frequencies --    710.4891               734.5958               779.6992
 Red. masses --      2.0964                 1.5928                 2.6077
 Frc consts  --      0.6235                 0.5064                 0.9340
 IR Inten    --      8.4737                21.5505                 0.6304

                     22                     23                     24
                      A                      A                      A
 Frequencies --    838.3564               894.3030               907.8530
 Red. masses --      1.2509                 2.0171                 2.4114
 Frc consts  --      0.5180                 0.9505                 1.1710
 IR Inten    --      4.2983                27.8538                37.6446

                     25                     26                     27
                      A                      A                      A
 Frequencies --    916.5491               933.9912               977.1603
 Red. masses --      2.2471                 1.4936                 1.7639
 Frc consts  --      1.1122                 0.7676                 0.9923
 IR Inten    --     54.2514                52.2866                 4.4602

                     28                     29                     30
                      A                      A                      A
 Frequencies --    995.7123              1007.2753              1060.4532
 Red. masses --      1.6255                 1.7550                 1.9129
 Frc consts  --      0.9495                 1.0491                 1.2674
 IR Inten    --      0.9264                 3.4941                22.5249

                     31                     32                     33
                      A                      A                      A
 Frequencies --   1067.3493              1076.8794              1087.8979
 Red. masses --      1.7146                 1.4688                 1.7850
 Frc consts  --      1.1509                 1.0036                 1.2447
 IR Inten    --      3.2005                 0.5801                23.0301

                     34                     35                     36
                      A                      A                      A
 Frequencies --   1159.1380              1184.8283              1189.9416
 Red. masses --      2.4356                 1.4409                 2.2272
 Frc consts  --      1.9281                 1.1918                 1.8580
 IR Inten    --      9.5262                 5.8474                11.8186

                     37                     38                     39
                      A                      A                      A
 Frequencies --   1198.8714              1226.9155              1277.1469
 Red. masses --      1.7733                 2.2844                 1.6372
 Frc consts  --      1.5017                 2.0261                 1.5734
 IR Inten    --     19.7947                 3.1844                 7.7091

                     40                     41                     42
                      A                      A                      A
 Frequencies --   1293.5924              1318.4017              1375.3233
 Red. masses --      2.0742                 1.4033                 1.3415
 Frc consts  --      2.0450                 1.4372                 1.4950
 IR Inten    --      3.1604                 2.1737                 6.1058

                     43                     44                     45
                      A                      A                      A
 Frequencies --   1376.6095              1398.1866              1431.4361
 Red. masses --      1.4807                 1.3371                 1.3156
 Frc consts  --      1.6532                 1.5400                 1.5882
 IR Inten    --      7.0851                 8.8745                 9.9306

                     46                     47                     48
                      A                      A                      A
 Frequencies --   1439.5083              1443.4323              1461.6629
 Red. masses --      1.3704                 1.3927                 2.5356
 Frc consts  --      1.6731                 1.7096                 3.1917
 IR Inten    --      4.4062                 2.5186                 1.8045

                     49                     50                     51
                      A                      A                      A
 Frequencies --   1503.0907              1514.6275              1515.0683
 Red. masses --      1.0862                 1.0494                 1.0883
 Frc consts  --      1.4458                 1.4185                 1.4719
 IR Inten    --      6.0406                 2.1268                 3.0782

                     52                     53                     54
                      A                      A                      A
 Frequencies --   1525.5127              1527.7491              1540.0446
 Red. masses --      1.0822                 1.0797                 1.0530
 Frc consts  --      1.4838                 1.4848                 1.4715
 IR Inten    --      1.8653                 6.3697                 3.5340

                     55                     56                     57
                      A                      A                      A
 Frequencies --   1560.2392              1682.1652              1696.2017
 Red. masses --      4.8224                 6.9447                 1.0907
 Frc consts  --      6.9166                11.5783                 1.8488
 IR Inten    --     16.1523                 2.9100                21.8420

                     58                     59                     60
                      A                      A                      A
 Frequencies --   3018.6080              3032.8466              3041.7331
 Red. masses --      1.0682                 1.0409                 1.0375
 Frc consts  --      5.7349                 5.6412                 5.6556
 IR Inten    --     34.0224                22.2208                35.5931

                     61                     62                     63
                      A                      A                      A
 Frequencies --   3053.5129              3058.3824              3086.2981
 Red. masses --      1.0814                 1.0616                 1.0981
 Frc consts  --      5.9406                 5.8507                 6.1627
 IR Inten    --     26.8228                34.1574                 3.6134

                     64                     65                     66
                      A                      A                      A
 Frequencies --   3091.2762              3097.2910              3105.2181
 Red. masses --      1.1011                 1.1008                 1.0989
 Frc consts  --      6.1996                 6.2217                 6.2433
 IR Inten    --     22.6278                43.7051                47.5292

                     67                     68                     69
                      A                      A                      A
 Frequencies --   3121.2887              3126.1456              3257.6212
 Red. masses --      1.1000                 1.0990                 1.0923
 Frc consts  --      6.3144                 6.3281                 6.8293
 IR Inten    --     19.6925                29.8162                 4.5556

                     70                     71                     72
                      A                      A                      A
 Frequencies --   3298.7828              3438.4779              3524.7425
 Red. masses --      1.1035                 1.0499                 1.0910
 Frc consts  --      7.0748                 7.3137                 7.9859
 IR Inten    --      2.6845                 5.4134                 1.6822

 - Thermochemistry -
 -------------------
 Temperature   298.150 Kelvin.  Pressure   1.00000 Atm.
 Atom     1 has atomic number  6 and mass  12.00000

 Molecular mass:   153.11536 amu.
 Principal axes and moments of inertia in atomic units:
                           1         2         3
     Eigenvalues --  1031.811942583.185252994.12504
           X            0.99956   0.02842   0.00898
           Y           -0.02826   0.99944  -0.01774
           Z           -0.00948   0.01748   0.99980
 This molecule is an asymmetric top.
 Rotational symmetry number  1.
 Warning -- assumption of classical behavior for rotation
           may cause significant error
 Rotational temperatures (Kelvin)      0.08394     0.03353     0.02893
 Rotational constants (GHZ):           1.74910     0.69865     0.60276
 Zero-point vibrational energy     603617.7 (Joules/Mol)
                                  144.26809 (Kcal/Mol)
 Warning -- explicit consideration of  16 degrees of freedom as
           vibrations may cause significant error
 Vibrational temperatures:     30.55    98.44   105.23   144.47   211.61
          (Kelvin)            286.51   358.40   369.65   395.17   432.43
                              498.26   571.70   582.55   643.15   743.47
                              892.23   902.81   986.95  1022.24  1056.92
                             1121.81  1206.21  1286.70  1306.20  1318.71
                             1343.81  1405.92  1432.61  1449.24  1525.76
                             1535.68  1549.39  1565.24  1667.74  1704.70
                             1712.06  1724.91  1765.26  1837.53  1861.19
                             1896.89  1978.78  1980.63  2011.68  2059.52
                             2071.13  2076.78  2103.01  2162.61  2179.21
                             2179.85  2194.87  2198.09  2215.78  2244.84
                             2420.26  2440.46  4343.10  4363.59  4376.38
                             4393.32  4400.33  4440.49  4447.66  4456.31
                             4467.72  4490.84  4497.83  4686.99  4746.21
                             4947.20  5071.32

 Zero-point correction=                           0.229906 (Hartree/Particle)
 Thermal correction to Energy=                    0.241870
 Thermal correction to Enthalpy=                  0.242814
 Thermal correction to Gibbs Free Energy=         0.190952
 Sum of electronic and zero-point Energies=           -481.756832
 Sum of electronic and thermal Energies=              -481.744868
 Sum of electronic and thermal Enthalpies=            -481.743924
 Sum of electronic and thermal Free Energies=         -481.795786

                     E (Thermal)             CV                S
                      KCal/Mol        Cal/Mol-Kelvin    Cal/Mol-Kelvin
 Total                  151.776             44.314            109.152
 Electronic               0.000              0.000              0.000
 Translational            0.889              2.981             40.988
 Rotational               0.889              2.981             30.457
 Vibrational            149.998             38.352             37.707
 Vibration     1          0.593              1.985              6.515
 Vibration     2          0.598              1.969              4.198
 Vibration     3          0.599              1.967              4.067
 Vibration     4          0.604              1.949              3.446
 Vibration     5          0.617              1.906              2.710
 Vibration     6          0.637              1.841              2.141
 Vibration     7          0.662              1.764              1.737
 Vibration     8          0.667              1.751              1.683
 Vibration     9          0.677              1.720              1.567
 Vibration    10          0.693              1.673              1.414
 Vibration    11          0.724              1.583              1.183
 Vibration    12          0.764              1.476              0.972
 Vibration    13          0.770              1.460              0.945
 Vibration    14          0.806              1.367              0.805
 Vibration    15          0.872              1.213              0.618
 Vibration    16          0.980              0.989              0.416

 Optimization completed.
    -- Stationary point found.
 Normal termination of Gaussian 16 at Tue Dec  8 21:08:46 2020.

 ----------------------------------------------------------------------
 # B3LYP/6-311++G(d,p) empiricaldispersion=gd3bj scf=xqc pop=npa geom=c
 heck
 ----------------------------------------------------------------------

 ---------------------------------------
 CID_116217089_JID_1741_Energie_neutraal
 ---------------------------------------
 Structure from the checkpoint file:  "JID_1741.chk"
 Charge =  0 Multiplicity = 1

 SCF Done:  E(RB3LYP) =  -482.128629200     A.U. after   14 cycles
 Normal termination of Gaussian 16 at Tue Dec  8 21:11:58 2020.

 ----------------------------------------------------------------------
 # B3LYP/6-311++G(d,p) empiricaldispersion=gd3bj scf=xqc pop=npa geom=c
 heck
 ----------------------------------------------------------------------

 -------------------------------------
 CID_116217089_JID_1741_Energie_kation
 -------------------------------------
 Structure from the checkpoint file:  "JID_1741.chk"
 Charge =  1 Multiplicity = 2

 SCF Done:  E(UB3LYP) =  -481.837745212     A.U. after   27 cycles
 Normal termination of Gaussian 16 at Tue Dec  8 21:18:28 2020.
 Gaussian 16:  ES64L-G16RevA.03 25-Dec-2016

 ----------------------------------------------------------------------
 # B3LYP/6-311++G(d,p) empiricaldispersion=gd3bj scf=xqc pop=npa geom=c
 heck
 ----------------------------------------------------------------------

 ------------------------------------
 CID_116217089_JID_1741_Energie_anion
 ------------------------------------
 Structure from the checkpoint file:  "JID_1741.chk"
 Charge = -1 Multiplicity = 2

                         Standard orientation:
 ---------------------------------------------------------------------
 Center     Atomic      Atomic             Coordinates (Angstroms)
 Number     Number       Type             X           Y           Z
 ---------------------------------------------------------------------
      1          6           0       -2.356345   -1.918659   -0.257993
      2          6           0       -1.964323   -0.477624   -0.133808
      3          6           0       -0.902404    0.030909    0.560851
      4          8           0       -0.866407    1.399879    0.422671
      5          6           0       -1.922659    1.755295   -0.366250
      6          6           0       -2.626581    0.653011   -0.733266
      7          6           0        0.205872   -0.590406    1.343198
      8          6           0        1.388156   -1.068594    0.474655
      9          6           0        2.021472    0.008191   -0.415828
     10          6           0        2.563146    1.198560    0.388886
     11          7           0        3.033010   -0.649747   -1.260175
     12          1           0       -3.408585   -2.072368    0.010346
     13          1           0       -2.227031   -2.284397   -1.284385
     14          1           0       -1.749669   -2.554244    0.394848
     15          1           0       -2.032048    2.811982   -0.555899
     16          1           0       -3.514054    0.629766   -1.351339
     17          1           0        0.550241    0.129186    2.093927
     18          1           0       -0.188439   -1.450860    1.896799
     19          1           0        2.161487   -1.486040    1.137311
     20          1           0        1.055201   -1.884422   -0.176311
     21          1           0        1.245309    0.379275   -1.097290
     22          1           0        3.297718    0.861891    1.133318
     23          1           0        3.063021    1.913624   -0.275693
     24          1           0        1.764947    1.736196    0.910521
     25          1           0        3.441055    0.039207   -1.892012
     26          1           0        3.803027   -0.963694   -0.666956
 ---------------------------------------------------------------------

 SCF Done:  E(UB3LYP) =  -482.111230160     A.U. after   33 cycles
 SCF Done:  E(UB3LYP) =  -482.111230160     a.u. after    1 cycles

 The electronic state is 2-A.
 Alpha  occ. eigenvalues --  -19.08184 -14.18471 -10.11722 -10.11656 -10.08999
 Alpha  occ. eigenvalues --  -10.07634 -10.07227 -10.06926 -10.06772 -10.06105
 Alpha  occ. eigenvalues --  -10.04923  -1.00479  -0.78206  -0.71440  -0.69398
 Alpha  occ. eigenvalues --   -0.64192  -0.61317  -0.59237  -0.54402  -0.49028
 Alpha  occ. eigenvalues --   -0.47324  -0.43396  -0.40934  -0.38801  -0.36526
 Alpha  occ. eigenvalues --   -0.35655  -0.33572  -0.32974  -0.31294  -0.31087
 Alpha  occ. eigenvalues --   -0.30752  -0.29685  -0.28369  -0.27854  -0.27644
 Alpha  occ. eigenvalues --   -0.25571  -0.24772  -0.22876  -0.22111  -0.17060
 Alpha  occ. eigenvalues --   -0.13931  -0.11924   0.04661
 Alpha virt. eigenvalues --    0.06471   0.06946   0.08044   0.08945   0.09244
 Alpha virt. eigenvalues --    0.10059   0.10131   0.10404   0.10955   0.12132
 Alpha virt. eigenvalues --    0.12712   0.13096   0.13418   0.14089   0.14786

  Beta  occ. eigenvalues --  -19.08178 -14.18437 -10.11708 -10.11653 -10.08992
  Beta  occ. eigenvalues --  -10.07617 -10.07224 -10.06890 -10.06759 -10.06083
  Beta  occ. eigenvalues --  -10.04889  -1.00467  -0.78150  -0.71417  -0.69365
  Beta  occ. eigenvalues --   -0.64149  -0.61261  -0.59187  -0.54342  -0.48998
  Beta  occ. eigenvalues --   -0.47257  -0.43354  -0.40886  -0.38757  -0.36484
  Beta  occ. eigenvalues --   -0.35614  -0.33531  -0.32936  -0.31257  -0.31050
  Beta  occ. eigenvalues --   -0.30711  -0.29644  -0.28337  -0.27824  -0.27602
  Beta  occ. eigenvalues --   -0.25530  -0.24728  -0.22841  -0.22070  -0.17034
  Beta  occ. eigenvalues --   -0.13889  -0.11891
  Beta virt. eigenvalues --    0.06868   0.07554   0.07755   0.08680   0.09647
  Beta virt. eigenvalues --    0.09833   0.10281   0.10557   0.10763   0.11414
  Beta virt. eigenvalues --    0.12553   0.13066   0.13602   0.13663   0.14324

 Mulliken charges and spin densities:
               1          2
     1  C    1.991368  -2.786183
     2  C   -1.317998   1.411495
     3  C   -1.025593   1.222378
     4  O   -0.019731   0.027364
     5  C   -0.083279  -0.049478
     6  C    0.775046  -0.830608
     7  C    0.633733  -1.116536
     8  C    1.081236  -1.232964
     9  C   -1.033297   0.756567
    10  C    0.929387  -1.606923
    11  N   -0.319991   0.056913
    12  H   -0.204629   0.340570
    13  H   -0.113492   0.276008
    14  H   -0.067935   0.200895
    15  H   -0.505930   0.667911
    16  H   -0.594800   0.766209
    17  H    0.079975   0.086397
    18  H   -0.300994   0.507359
    19  H   -0.327606   0.466596
    20  H   -0.038294   0.227041
    21  H    0.122354   0.070813
    22  H   -0.323767   0.475451
    23  H   -0.265242   0.383985
    24  H    0.045798   0.124213
    25  H   -0.101876   0.324316
    26  H   -0.014444   0.230211
 Sum of Mulliken charges =  -1.00000   1.00000

 Dipole moment (field-independent basis, Debye):
    X=             -1.6246    Y=              1.1504    Z=              1.1412  Tot=              2.2945
 Quadrupole moment (field-independent basis, Debye-Ang):
   XX=           -139.4687   YY=           -110.3696   ZZ=           -102.2685
   XY=             -0.8492   XZ=             -1.6580   YZ=              2.0823

 Summary of Natural Population Analysis:

                                       Natural Population
                Natural  -----------------------------------------------
    Atom  No    Charge         Core      Valence    Rydberg      Total
 -----------------------------------------------------------------------
      C    1   -0.29124      0.99964     2.28607    0.00553     3.29124
      C    2   -0.06247      0.99945     2.05322    0.00979     3.06247
      C    3    0.15235      0.99938     1.83299    0.01527     2.84765
      O    4   -0.23999      0.99986     3.23214    0.00799     4.23999
      C    5    0.05852      0.99950     1.92758    0.01440     2.94148
      C    6   -0.14545      0.99952     2.13688    0.00905     3.14545
      C    7   -0.21334      0.99959     2.20444    0.00932     3.21334
      C    8   -0.18364      0.99960     2.17452    0.00953     3.18364
      C    9   -0.01942      0.99961     2.00850    0.01131     3.01942
      C   10   -0.29591      0.99964     2.29007    0.00619     3.29591
      N   11   -0.41898      0.99977     2.90885    0.01036     3.91898
      H   12    0.10289      0.00000     0.39594    0.00117     0.39711
      H   13    0.10458      0.00000     0.39427    0.00115     0.39542
      H   14    0.10518      0.00000     0.39366    0.00117     0.39482
      H   15    0.09408      0.00000     0.40483    0.00109     0.40592
      H   16    0.10790      0.00000     0.39090    0.00120     0.39210
      H   17    0.10728      0.00000     0.39126    0.00146     0.39272
      H   18    0.10885      0.00000     0.39001    0.00115     0.39115
      H   19    0.09494      0.00000     0.40351    0.00156     0.40506
      H   20    0.10345      0.00000     0.39492    0.00163     0.39655
      H   21    0.09070      0.00000     0.40704    0.00226     0.40930
      H   22    0.09480      0.00000     0.40351    0.00168     0.40520
      H   23    0.09844      0.00000     0.40004    0.00153     0.40156
      H   24    0.10303      0.00000     0.39537    0.00160     0.39697
      H   25    0.17327      0.00000     0.32487    0.00187     0.32673
      H   26    0.17020      0.00000     0.32750    0.00230     0.32980
 =======================================================================
   * Total *    0.00000     10.99557    30.87288    0.13155    42.00000

 Normal termination of Gaussian 16 at Tue Dec  8 21:28:18 2020.
