 Gaussian 16, Revision A.03,

 -----------------------------------------------------------
 # opt freq B3LYP/6-31G(d) empiricaldispersion=gd3bj scf=xqc
 -----------------------------------------------------------

 ------------------------------
 CID_11287443_JID_6769_neutraal
 ------------------------------
 Symbolic Z-matrix:
 Charge =  0 Multiplicity = 1

 SCF Done:  E(RB3LYP) =  -710.824380284     A.U. after   14 cycles
 SCF Done:  E(RB3LYP) =  -710.821289072     A.U. after   13 cycles
 SCF Done:  E(RB3LYP) =  -710.830041091     A.U. after   12 cycles
 SCF Done:  E(RB3LYP) =  -710.830274204     A.U. after   12 cycles
 SCF Done:  E(RB3LYP) =  -710.830734143     A.U. after   11 cycles
 SCF Done:  E(RB3LYP) =  -710.830880213     A.U. after   11 cycles
 SCF Done:  E(RB3LYP) =  -710.831038380     A.U. after   12 cycles
 SCF Done:  E(RB3LYP) =  -710.831080285     A.U. after   12 cycles
 SCF Done:  E(RB3LYP) =  -710.831158181     A.U. after   11 cycles
 SCF Done:  E(RB3LYP) =  -710.831237133     A.U. after   12 cycles
 SCF Done:  E(RB3LYP) =  -710.831258495     A.U. after    8 cycles
 SCF Done:  E(RB3LYP) =  -710.831259000     A.U. after    8 cycles
 SCF Done:  E(RB3LYP) =  -710.831259371     A.U. after    8 cycles
 SCF Done:  E(RB3LYP) =  -710.831259581     A.U. after    8 cycles
 SCF Done:  E(RB3LYP) =  -710.831259621     A.U. after    7 cycles
 Optimization completed.
    -- Stationary point found.
 Normal termination of Gaussian 16 at Fri Dec 11 00:34:29 2020.

 --------------------------------------------------------------------
 #N Geom=AllCheck Guess=TCheck SCRF=Check GenChk RB3LYP/6-31G(d) Freq
 --------------------------------------------------------------------

 Structure from the checkpoint file:  "JID_6769.chk"
 ------------------------------
 CID_11287443_JID_6769_neutraal
 ------------------------------
 Charge =  0 Multiplicity = 1

 SCF Done:  E(RB3LYP) =  -710.831259621     A.U. after    1 cycles

  Exact polarizability: 171.428  20.094 130.312 -15.533   6.606 121.019
 Approx polarizability: 230.987  38.263 195.163 -38.187  14.964 205.889

                      1                      2                      3
                      A                      A                      A
 Frequencies --     16.6475                26.4136                29.1343
 Red. masses --      4.5536                 4.1532                 4.4796
 Frc consts  --      0.0007                 0.0017                 0.0022
 IR Inten    --      0.6478                 0.2225                 1.4065

                      4                      5                      6
                      A                      A                      A
 Frequencies --     66.0308                82.0127               112.6883
 Red. masses --      3.4124                 4.4024                 3.5140
 Frc consts  --      0.0088                 0.0174                 0.0263
 IR Inten    --      0.5003                 2.4229                 0.2804

                      7                      8                      9
                      A                      A                      A
 Frequencies --    136.5188               215.2629               252.4620
 Red. masses --      2.3239                 2.4434                 4.3985
 Frc consts  --      0.0255                 0.0667                 0.1652
 IR Inten    --      0.3920                 1.0832                 1.3254

                     10                     11                     12
                      A                      A                      A
 Frequencies --    262.0867               304.6231               323.8624
 Red. masses --      2.9387                 3.0289                 3.2151
 Frc consts  --      0.1189                 0.1656                 0.1987
 IR Inten    --      2.4525                 0.3560                 0.5014

                     13                     14                     15
                      A                      A                      A
 Frequencies --    346.2653               413.9219               420.1887
 Red. masses --      1.9925                 2.8298                 3.2290
 Frc consts  --      0.1408                 0.2857                 0.3359
 IR Inten    --      2.4761                 1.3065                 4.7790

                     16                     17                     18
                      A                      A                      A
 Frequencies --    442.7619               456.8838               478.3374
 Red. masses --      3.7260                 4.8603                 3.6232
 Frc consts  --      0.4304                 0.5978                 0.4884
 IR Inten    --      2.8145                 1.3191                 0.9980

                     19                     20                     21
                      A                      A                      A
 Frequencies --    530.0540               603.8987               635.5311
 Red. masses --      2.6927                 5.2099                 3.3801
 Frc consts  --      0.4457                 1.1195                 0.8044
 IR Inten    --      1.1386                 3.2608                 8.7488

                     22                     23                     24
                      A                      A                      A
 Frequencies --    647.5423               705.3471               732.7890
 Red. masses --      5.1496                 3.6361                 2.1900
 Frc consts  --      1.2722                 1.0659                 0.6929
 IR Inten    --      3.1399                 7.8176                19.5519

                     25                     26                     27
                      A                      A                      A
 Frequencies --    760.6997               808.0564               808.8651
 Red. masses --      2.1187                 2.2474                 1.7238
 Frc consts  --      0.7223                 0.8646                 0.6645
 IR Inten    --     37.6275                 8.0444                 1.7977

                     28                     29                     30
                      A                      A                      A
 Frequencies --    837.1271               849.4455               872.3132
 Red. masses --      3.2638                 2.5112                 1.9643
 Frc consts  --      1.3476                 1.0676                 0.8806
 IR Inten    --      5.9249                10.2187                35.5576

                     31                     32                     33
                      A                      A                      A
 Frequencies --    898.0130               910.0786               932.5870
 Red. masses --      2.4674                 2.4405                 1.8381
 Frc consts  --      1.1723                 1.1909                 0.9419
 IR Inten    --     16.8833                20.4115                45.5813

                     34                     35                     36
                      A                      A                      A
 Frequencies --    952.6466               959.1860               973.1047
 Red. masses --      1.3180                 1.6124                 1.4824
 Frc consts  --      0.7048                 0.8741                 0.8271
 IR Inten    --      0.6312                21.3657                15.3210

                     37                     38                     39
                      A                      A                      A
 Frequencies --    985.8442               994.1391              1034.1476
 Red. masses --      1.1380                 1.3833                 2.3763
 Frc consts  --      0.6516                 0.8055                 1.4973
 IR Inten    --     23.4648                 0.1407                45.7488

                     40                     41                     42
                      A                      A                      A
 Frequencies --   1045.6992              1069.8259              1075.2568
 Red. masses --      4.2126                 2.1605                 2.7200
 Frc consts  --      2.7140                 1.4569                 1.8529
 IR Inten    --      7.1445                 8.1439                 1.1490

                     43                     44                     45
                      A                      A                      A
 Frequencies --   1088.5955              1115.2823              1135.8503
 Red. masses --      1.9470                 2.7174                 3.8531
 Frc consts  --      1.3594                 1.9915                 2.9289
 IR Inten    --     63.7991                 2.3306                88.4926

                     46                     47                     48
                      A                      A                      A
 Frequencies --   1148.3993              1153.2919              1190.8406
 Red. masses --      1.6336                 1.7541                 2.3045
 Frc consts  --      1.2694                 1.3746                 1.9254
 IR Inten    --     16.4295                 2.2879               172.1014

                     49                     50                     51
                      A                      A                      A
 Frequencies --   1221.1680              1224.0116              1235.2817
 Red. masses --      1.3567                 2.0497                 1.6068
 Frc consts  --      1.1920                 1.8093                 1.4446
 IR Inten    --     20.3269                19.8485                34.4216

                     52                     53                     54
                      A                      A                      A
 Frequencies --   1245.7923              1260.8083              1295.4414
 Red. masses --      1.4319                 1.9010                 2.2151
 Frc consts  --      1.3094                 1.7804                 2.1901
 IR Inten    --      9.4745                78.0568                 5.0046

                     55                     56                     57
                      A                      A                      A
 Frequencies --   1308.1886              1320.8825              1324.0362
 Red. masses --      1.2448                 1.3248                 1.6380
 Frc consts  --      1.2551                 1.3618                 1.6918
 IR Inten    --      7.1637                12.2040                31.2396

                     58                     59                     60
                      A                      A                      A
 Frequencies --   1358.1527              1378.8272              1388.1858
 Red. masses --      1.5928                 1.3320                 1.2516
 Frc consts  --      1.7311                 1.4921                 1.4210
 IR Inten    --      6.1335                 4.4981                 0.9180

                     61                     62                     63
                      A                      A                      A
 Frequencies --   1395.8627              1404.7409              1408.7347
 Red. masses --      1.2538                 1.5122                 1.1900
 Frc consts  --      1.4393                 1.7581                 1.3914
 IR Inten    --      1.7382                 1.7849                12.8560

                     64                     65                     66
                      A                      A                      A
 Frequencies --   1413.2068              1441.3223              1470.0889
 Red. masses --      1.3260                 1.3334                 1.1734
 Frc consts  --      1.5603                 1.6320                 1.4941
 IR Inten    --      4.7962                13.9289                 5.4866

                     67                     68                     69
                      A                      A                      A
 Frequencies --   1472.4355              1504.9155              1505.5204
 Red. masses --      2.2014                 1.0886                 1.1103
 Frc consts  --      2.8120                 1.4526                 1.4827
 IR Inten    --     29.0231                 2.5312                 4.6213

                     70                     71                     72
                      A                      A                      A
 Frequencies --   1513.4093              1526.7455              1538.1205
 Red. masses --      1.0872                 2.2001                 1.0909
 Frc consts  --      1.4671                 3.0215                 1.5206
 IR Inten    --      4.9173                14.4043                 5.5808

                     73                     74                     75
                      A                      A                      A
 Frequencies --   1551.3781              1632.5255              1651.2744
 Red. masses --      1.0913                 5.1549                 5.5480
 Frc consts  --      1.5475                 8.0944                 8.9131
 IR Inten    --      3.5004                16.4051                 2.0195

                     76                     77                     78
                      A                      A                      A
 Frequencies --   1741.3561              3019.7274              3045.3280
 Red. masses --      5.7724                 1.0603                 1.0634
 Frc consts  --     10.3130                 5.6968                 5.8106
 IR Inten    --    141.6929                38.7671                22.1752

                     79                     80                     81
                      A                      A                      A
 Frequencies --   3053.9265              3054.4277              3062.5203
 Red. masses --      1.0697                 1.1014                 1.0657
 Frc consts  --      5.8779                 6.0543                 5.8891
 IR Inten    --      8.3308                17.5408                16.5176

                     82                     83                     84
                      A                      A                      A
 Frequencies --   3063.1775              3089.2845              3100.5295
 Red. masses --      1.0613                 1.0983                 1.0987
 Frc consts  --      5.8675                 6.1759                 6.2228
 IR Inten    --     34.5642                27.4235                58.6312

                     85                     86                     87
                      A                      A                      A
 Frequencies --   3104.8278              3116.6350              3119.0317
 Red. masses --      1.0873                 1.1007                 1.1029
 Frc consts  --      6.1757                 6.2994                 6.3215
 IR Inten    --     31.9318                 7.9525                84.1779

                     88                     89                     90
                      A                      A                      A
 Frequencies --   3171.2289              3173.9211              3176.0986
 Red. masses --      1.0872                 1.0907                 1.0904
 Frc consts  --      6.4419                 6.4737                 6.4805
 IR Inten    --     22.4788                25.8177                11.5990

                     91                     92                     93
                      A                      A                      A
 Frequencies --   3178.8548              3208.4761              3264.6106
 Red. masses --      1.0905                 1.0961                 1.0859
 Frc consts  --      6.4924                 6.6483                 6.8187
 IR Inten    --     22.3993                26.5904                 5.1051

 - Thermochemistry -
 -------------------
 Temperature   298.150 Kelvin.  Pressure   1.00000 Atm.
 Atom     1 has atomic number  6 and mass  12.00000

 Molecular mass:   219.12593 amu.
 Principal axes and moments of inertia in atomic units:
                           1         2         3
     Eigenvalues --  1939.477136228.381616802.40947
           X            0.99994  -0.01005   0.00399
           Y            0.01008   0.99993  -0.00662
           Z           -0.00393   0.00666   0.99997
 This molecule is an asymmetric top.
 Rotational symmetry number  1.
 Warning -- assumption of classical behavior for rotation
           may cause significant error
 Rotational temperatures (Kelvin)      0.04466     0.01391     0.01273
 Rotational constants (GHZ):           0.93053     0.28976     0.26531
 Zero-point vibrational energy     745127.4 (Joules/Mol)
                                  178.08973 (Kcal/Mol)
 Warning -- explicit consideration of  20 degrees of freedom as
           vibrations may cause significant error
 Vibrational temperatures:     23.95    38.00    41.92    95.00   118.00
          (Kelvin)            162.13   196.42   309.72   363.24   377.08
                              438.28   465.97   498.20   595.54   604.56
                              637.04   657.35   688.22   762.63   868.88
                              914.39   931.67  1014.84  1054.32  1094.48
                             1162.61  1163.78  1204.44  1222.16  1255.06
                             1292.04  1309.40  1341.78  1370.65  1380.05
                             1400.08  1418.41  1430.34  1487.91  1504.53
                             1539.24  1547.05  1566.25  1604.64  1634.24
                             1652.29  1659.33  1713.35  1756.99  1761.08
                             1777.29  1792.42  1814.02  1863.85  1882.19
                             1900.46  1904.99  1954.08  1983.82  1997.29
                             2008.34  2021.11  2026.86  2033.29  2073.74
                             2115.13  2118.51  2165.24  2166.11  2177.46
                             2196.65  2213.01  2232.09  2348.84  2375.82
                             2505.42  4344.71  4381.55  4393.92  4394.64
                             4406.28  4407.23  4444.79  4460.97  4467.15
                             4484.14  4487.59  4562.69  4566.56  4569.70
                             4573.66  4616.28  4697.05

 Zero-point correction=                           0.283804 (Hartree/Particle)
 Thermal correction to Energy=                    0.298384
 Thermal correction to Enthalpy=                  0.299329
 Thermal correction to Gibbs Free Energy=         0.239030
 Sum of electronic and zero-point Energies=           -710.547456
 Sum of electronic and thermal Energies=              -710.532875
 Sum of electronic and thermal Enthalpies=            -710.531931
 Sum of electronic and thermal Free Energies=         -710.592230

                     E (Thermal)             CV                S
                      KCal/Mol        Cal/Mol-Kelvin    Cal/Mol-Kelvin
 Total                  187.239             55.463            126.910
 Electronic               0.000              0.000              0.000
 Translational            0.889              2.981             42.056
 Rotational               0.889              2.981             32.774
 Vibrational            185.462             49.502             52.080
 Vibration     1          0.593              1.986              6.999
 Vibration     2          0.593              1.985              6.082
 Vibration     3          0.593              1.984              5.888
 Vibration     4          0.597              1.970              4.268
 Vibration     5          0.600              1.961              3.842
 Vibration     6          0.607              1.939              3.222
 Vibration     7          0.614              1.917              2.852
 Vibration     8          0.645              1.818              1.999
 Vibration     9          0.664              1.759              1.713
 Vibration    10          0.669              1.742              1.648
 Vibration    11          0.696              1.665              1.391
 Vibration    12          0.708              1.628              1.291
 Vibration    13          0.724              1.583              1.183
 Vibration    14          0.778              1.440              0.913
 Vibration    15          0.783              1.426              0.891
 Vibration    16          0.802              1.377              0.818
 Vibration    17          0.815              1.346              0.775
 Vibration    18          0.835              1.298              0.715
 Vibration    19          0.885              1.184              0.587
 Vibration    20          0.962              1.024              0.443

 Optimization completed.
    -- Stationary point found.
 Normal termination of Gaussian 16 at Fri Dec 11 00:45:04 2020.

 ----------------------------------------------------------------------
 # B3LYP/6-311++G(d,p) empiricaldispersion=gd3bj scf=xqc pop=npa geom=c
 heck
 ----------------------------------------------------------------------

 --------------------------------------
 CID_11287443_JID_6769_Energie_neutraal
 --------------------------------------
 Structure from the checkpoint file:  "JID_6769.chk"
 Charge =  0 Multiplicity = 1

 SCF Done:  E(RB3LYP) =  -711.025047745     A.U. after   14 cycles
 Normal termination of Gaussian 16 at Fri Dec 11 00:49:54 2020.

 ----------------------------------------------------------------------
 # B3LYP/6-311++G(d,p) empiricaldispersion=gd3bj scf=xqc pop=npa geom=c
 heck
 ----------------------------------------------------------------------

 ------------------------------------
 CID_11287443_JID_6769_Energie_kation
 ------------------------------------
 Structure from the checkpoint file:  "JID_6769.chk"
 Charge =  1 Multiplicity = 2

 SCF Done:  E(UB3LYP) =  -710.729853552     A.U. after   24 cycles
 Normal termination of Gaussian 16 at Fri Dec 11 01:01:30 2020.
 Gaussian 16:  ES64L-G16RevA.03 25-Dec-2016

 ----------------------------------------------------------------------
 # B3LYP/6-311++G(d,p) empiricaldispersion=gd3bj scf=xqc pop=npa geom=c
 heck
 ----------------------------------------------------------------------

 -----------------------------------
 CID_11287443_JID_6769_Energie_anion
 -----------------------------------
 Structure from the checkpoint file:  "JID_6769.chk"
 Charge = -1 Multiplicity = 2

                         Standard orientation:
 ---------------------------------------------------------------------
 Center     Atomic      Atomic             Coordinates (Angstroms)
 Number     Number       Type             X           Y           Z
 ---------------------------------------------------------------------
      1          6           0        2.531475   -0.969837    1.601370
      2          6           0        2.290451   -2.142656    0.648772
      3          6           0        1.591425   -1.643712   -0.608489
      4          8           0        2.370454   -0.657605   -1.297026
      5          6           0        2.941119    0.413729   -0.603312
      6          6           0        3.287316    0.163193    0.886266
      7          8           0        2.251100    1.655239   -0.857266
      8          6           0        0.974590    1.933180   -0.491694
      9          6           0        0.152589    1.332030    0.372882
     10          6           0       -1.261115    1.797438    0.597311
     11          6           0       -2.288372    0.732850    0.253433
     12          6           0       -2.189038   -0.011837   -0.930421
     13          7           0       -3.054702   -0.961012   -1.302441
     14          6           0       -4.081147   -1.212563   -0.479583
     15          6           0       -4.279701   -0.540046    0.725310
     16          6           0       -3.365646    0.445664    1.093659
     17          1           0        1.570743   -0.618706    1.992571
     18          1           0        3.113656   -1.289556    2.473128
     19          1           0        3.245937   -2.603735    0.366028
     20          1           0        1.679430   -2.917450    1.126787
     21          1           0        1.466187   -2.447184   -1.339437
     22          1           0        0.595616   -1.250417   -0.372151
     23          1           0        3.872610    0.620306   -1.134049
     24          1           0        3.187170    1.109933    1.425458
     25          1           0        4.353729   -0.091459    0.901703
     26          1           0        0.646841    2.825404   -1.022808
     27          1           0        0.453586    0.448465    0.917780
     28          1           0       -1.408863    2.094436    1.645347
     29          1           0       -1.449704    2.698267   -0.003142
     30          1           0       -1.356112    0.169866   -1.607367
     31          1           0       -4.772984   -1.989716   -0.799702
     32          1           0       -5.126093   -0.786053    1.359698
     33          1           0       -3.484924    0.989019    2.028556
 ---------------------------------------------------------------------

 SCF Done:  E(UB3LYP) =  -711.015356266     A.U. after   33 cycles
 SCF Done:  E(UB3LYP) =  -711.015356266     a.u. after    1 cycles

 The electronic state is 2-A.
 Alpha  occ. eigenvalues --  -19.04859 -19.03564 -14.18899 -10.18132 -10.12549
 Alpha  occ. eigenvalues --  -10.11914 -10.09417 -10.08565 -10.08352 -10.07840
 Alpha  occ. eigenvalues --  -10.07629 -10.07218 -10.07192 -10.07073 -10.06986
 Alpha  occ. eigenvalues --  -10.06396  -0.98120  -0.92915  -0.82843  -0.71965
 Alpha  occ. eigenvalues --   -0.70647  -0.68904  -0.67311  -0.64570  -0.59245
 Alpha  occ. eigenvalues --   -0.55804  -0.55306  -0.52050  -0.50511  -0.49144
 Alpha  occ. eigenvalues --   -0.43880  -0.42852  -0.41100  -0.40264  -0.38565
 Alpha  occ. eigenvalues --   -0.38116  -0.36261  -0.35852  -0.34726  -0.34329
 Alpha  occ. eigenvalues --   -0.32310  -0.31526  -0.30082  -0.29524  -0.29132
 Alpha  occ. eigenvalues --   -0.28921  -0.28391  -0.27960  -0.26463  -0.25151
 Alpha  occ. eigenvalues --   -0.24559  -0.23390  -0.22792  -0.19815  -0.18220
 Alpha  occ. eigenvalues --   -0.17998  -0.15352  -0.14734  -0.12608   0.04384
 Alpha virt. eigenvalues --    0.05957   0.06736   0.07726   0.07789   0.08269
 Alpha virt. eigenvalues --    0.08723   0.09082   0.09770   0.10106   0.10788
 Alpha virt. eigenvalues --    0.10991   0.11316   0.11661   0.12202   0.12611

  Beta  occ. eigenvalues --  -19.04857 -19.03563 -14.18675 -10.18126 -10.12531
  Beta  occ. eigenvalues --  -10.11913 -10.09428 -10.08490 -10.08343 -10.07865
  Beta  occ. eigenvalues --  -10.07604 -10.07194 -10.07170 -10.06956 -10.06885
  Beta  occ. eigenvalues --  -10.06398  -0.98110  -0.92908  -0.82538  -0.71866
  Beta  occ. eigenvalues --   -0.70607  -0.68770  -0.67185  -0.64473  -0.59181
  Beta  occ. eigenvalues --   -0.55764  -0.55266  -0.51722  -0.50439  -0.49086
  Beta  occ. eigenvalues --   -0.43844  -0.42821  -0.40997  -0.40236  -0.38531
  Beta  occ. eigenvalues --   -0.38021  -0.36229  -0.35805  -0.34644  -0.34299
  Beta  occ. eigenvalues --   -0.32257  -0.31490  -0.30011  -0.29374  -0.28990
  Beta  occ. eigenvalues --   -0.28840  -0.28341  -0.27628  -0.26362  -0.25093
  Beta  occ. eigenvalues --   -0.24516  -0.23347  -0.22767  -0.19786  -0.18201
  Beta  occ. eigenvalues --   -0.17013  -0.15037  -0.14460  -0.12522
  Beta virt. eigenvalues --    0.06650   0.07094   0.07734   0.07881   0.08275
  Beta virt. eigenvalues --    0.08594   0.09089   0.09238   0.10060   0.10337
  Beta virt. eigenvalues --    0.10947   0.11074   0.11590   0.11994   0.12299

 Mulliken charges and spin densities:
               1          2
     1  C    0.192618  -0.288523
     2  C    0.364522  -0.781633
     3  C   -0.423230   0.139143
     4  O   -0.107694   0.002255
     5  C   -0.278317   0.013443
     6  C    0.824824  -1.224441
     7  O   -0.023726   0.001142
     8  C   -1.270867   0.498367
     9  C    0.682445   0.315304
    10  C    0.504587  -1.583625
    11  C    0.950966   0.167579
    12  C   -1.900916   1.027792
    13  N    0.041493   0.074062
    14  C    0.001327  -0.298660
    15  C    0.012994  -0.198911
    16  C   -0.070113  -0.059815
    17  H   -0.546471   0.735846
    18  H   -0.882599   1.082743
    19  H   -0.117897   0.277648
    20  H   -0.051705   0.202461
    21  H    0.061949   0.109797
    22  H    0.413856  -0.239695
    23  H   -0.062873   0.274853
    24  H    0.080669   0.113863
    25  H   -0.464094   0.642945
    26  H    0.037514   0.096060
    27  H    0.877500  -0.942213
    28  H   -0.111949   0.292999
    29  H    0.190699  -0.038472
    30  H    0.133510   0.097295
    31  H    0.106112   0.036655
    32  H   -0.081372   0.226094
    33  H   -0.083762   0.227647
 Sum of Mulliken charges =  -1.00000   1.00000

 Dipole moment (field-independent basis, Debye):
    X=             -3.4083    Y=              2.7131    Z=             -2.3042  Tot=              4.9281
 Quadrupole moment (field-independent basis, Debye-Ang):
   XX=           -178.5760   YY=           -122.8487   ZZ=           -139.4078
   XY=              5.0617   XZ=            -14.6166   YZ=              3.1699

 Summary of Natural Population Analysis:

                                       Natural Population
                Natural  -----------------------------------------------
    Atom  No    Charge         Core      Valence    Rydberg      Total
 -----------------------------------------------------------------------
      C    1   -0.19237      0.99962     2.18277    0.00999     3.19237
      C    2   -0.20509      0.99963     2.19682    0.00864     3.20509
      C    3   -0.01037      0.99956     1.99949    0.01132     3.01037
      O    4   -0.29885      0.99987     3.29071    0.00827     4.29885
      C    5    0.22458      0.99955     1.75537    0.02050     2.77542
      C    6   -0.21904      0.99960     2.21012    0.00932     3.21904
      O    7   -0.28895      0.99987     3.27945    0.00964     4.28895
      C    8    0.09196      0.99939     1.89550    0.01315     2.90804
      C    9   -0.15380      0.99952     2.14550    0.00878     3.15380
      C   10   -0.20401      0.99959     2.19456    0.00986     3.20401
      C   11   -0.03787      0.99950     2.02888    0.00950     3.03787
      C   12    0.03533      0.99953     1.95190    0.01323     2.96467
      N   13   -0.20814      0.99971     2.69613    0.01229     3.70814
      C   14    0.01341      0.99960     1.97208    0.01492     2.98659
      C   15   -0.11679      0.99956     2.10829    0.00894     3.11679
      C   16   -0.06179      0.99951     2.05222    0.01006     3.06179
      H   17    0.09381      0.00000     0.40442    0.00177     0.40619
      H   18    0.10640      0.00000     0.39024    0.00336     0.39360
      H   19    0.09766      0.00000     0.40093    0.00141     0.40234
      H   20    0.10319      0.00000     0.39590    0.00091     0.39681
      H   21    0.09018      0.00000     0.40869    0.00114     0.40982
      H   22    0.08696      0.00000     0.41115    0.00188     0.41304
      H   23    0.08524      0.00000     0.41323    0.00153     0.41476
      H   24    0.10991      0.00000     0.38906    0.00103     0.39009
      H   25    0.10630      0.00000     0.39191    0.00179     0.39370
      H   26    0.08240      0.00000     0.41637    0.00123     0.41760
      H   27    0.09606      0.00000     0.40141    0.00253     0.40394
      H   28    0.10211      0.00000     0.39656    0.00133     0.39789
      H   29    0.10165      0.00000     0.39725    0.00111     0.39835
      H   30    0.09126      0.00000     0.40680    0.00195     0.40874
      H   31    0.08460      0.00000     0.41420    0.00120     0.41540
      H   32    0.09800      0.00000     0.40102    0.00098     0.40200
      H   33    0.09607      0.00000     0.40276    0.00117     0.40393
 =======================================================================
   * Total *    0.00000     15.99361    42.80168    0.20470    59.00000

 Normal termination of Gaussian 16 at Fri Dec 11 01:17:51 2020.
