 Gaussian 16, Revision A.03,

 -----------------------------------------------------------
 # opt freq B3LYP/6-31G(d) empiricaldispersion=gd3bj scf=xqc
 -----------------------------------------------------------

 -------------------------------
 CID_129197313_JID_6470_neutraal
 -------------------------------
 Symbolic Z-matrix:
 Charge =  0 Multiplicity = 1

 SCF Done:  E(RB3LYP) =  -651.455301415     A.U. after   13 cycles
 SCF Done:  E(RB3LYP) =  -651.459537846     A.U. after   12 cycles
 SCF Done:  E(RB3LYP) =  -651.460132945     A.U. after   12 cycles
 SCF Done:  E(RB3LYP) =  -651.460546002     A.U. after   12 cycles
 SCF Done:  E(RB3LYP) =  -651.460865773     A.U. after   12 cycles
 SCF Done:  E(RB3LYP) =  -651.461314922     A.U. after   12 cycles
 SCF Done:  E(RB3LYP) =  -651.462040514     A.U. after   13 cycles
 SCF Done:  E(RB3LYP) =  -651.462390482     A.U. after   12 cycles
 SCF Done:  E(RB3LYP) =  -651.461952463     A.U. after   12 cycles
 SCF Done:  E(RB3LYP) =  -651.462774831     A.U. after   13 cycles
 SCF Done:  E(RB3LYP) =  -651.463704631     A.U. after   12 cycles
 SCF Done:  E(RB3LYP) =  -651.463787944     A.U. after   12 cycles
 SCF Done:  E(RB3LYP) =  -651.463814712     A.U. after   11 cycles
 SCF Done:  E(RB3LYP) =  -651.463816252     A.U. after    9 cycles
 SCF Done:  E(RB3LYP) =  -651.463816356     A.U. after    8 cycles
 Optimization completed.
    -- Stationary point found.
 Normal termination of Gaussian 16 at Thu Dec 10 23:13:24 2020.

 --------------------------------------------------------------------
 #N Geom=AllCheck Guess=TCheck SCRF=Check GenChk RB3LYP/6-31G(d) Freq
 --------------------------------------------------------------------

 Structure from the checkpoint file:  "JID_6470.chk"
 -------------------------------
 CID_129197313_JID_6470_neutraal
 -------------------------------
 Charge =  0 Multiplicity = 1

 SCF Done:  E(RB3LYP) =  -651.463816356     A.U. after    1 cycles

  Exact polarizability: 172.087  -8.520 156.923 -34.612 -10.432 121.634
 Approx polarizability: 250.198 -20.718 268.979 -74.118 -22.908 218.044

                      1                      2                      3
                      A                      A                      A
 Frequencies --     19.3106                34.5713                47.2831
 Red. masses --      4.4375                 5.2230                 4.2426
 Frc consts  --      0.0010                 0.0037                 0.0056
 IR Inten    --      0.1884                 0.8557                 0.0749

                      4                      5                      6
                      A                      A                      A
 Frequencies --    101.6168               123.1843               135.1785
 Red. masses --      4.2041                 3.8899                 4.5436
 Frc consts  --      0.0256                 0.0348                 0.0489
 IR Inten    --      0.8290                 0.6566                 0.1637

                      7                      8                      9
                      A                      A                      A
 Frequencies --    217.4019               227.5357               289.9564
 Red. masses --      3.8744                 3.5590                 2.7663
 Frc consts  --      0.1079                 0.1086                 0.1370
 IR Inten    --      0.7214                 0.7209                 2.7796

                     10                     11                     12
                      A                      A                      A
 Frequencies --    324.6115               362.6102               387.7064
 Red. masses --      3.0098                 3.8404                 2.5058
 Frc consts  --      0.1869                 0.2975                 0.2219
 IR Inten    --      1.1529                 4.0296                 1.3973

                     13                     14                     15
                      A                      A                      A
 Frequencies --    416.7866               450.5110               495.9775
 Red. masses --      2.9807                 2.9376                 4.2126
 Frc consts  --      0.3051                 0.3513                 0.6106
 IR Inten    --      0.0540                 1.8804                 2.2804

                     16                     17                     18
                      A                      A                      A
 Frequencies --    520.4180               532.3735               565.4790
 Red. masses --      4.3939                 4.2502                 3.8565
 Frc consts  --      0.7011                 0.7097                 0.7266
 IR Inten    --     13.4422                 4.1610                 4.6875

                     19                     20                     21
                      A                      A                      A
 Frequencies --    607.1289               630.1666               637.8517
 Red. masses --      3.3298                 4.4969                 6.1772
 Frc consts  --      0.7231                 1.0521                 1.4808
 IR Inten    --     18.1025                 1.3146                 0.2499

                     22                     23                     24
                      A                      A                      A
 Frequencies --    715.8602               727.5042               759.4749
 Red. masses --      1.7536                 2.3323                 2.3347
 Frc consts  --      0.5295                 0.7273                 0.7934
 IR Inten    --     27.9072                28.2936                12.0764

                     25                     26                     27
                      A                      A                      A
 Frequencies --    779.1719               784.5250               797.1020
 Red. masses --      1.7641                 1.9122                 2.7934
 Frc consts  --      0.6310                 0.6934                 1.0457
 IR Inten    --     30.9868                40.0824                24.3918

                     28                     29                     30
                      A                      A                      A
 Frequencies --    833.2956               849.9078               860.9896
 Red. masses --      4.0300                 1.7119                 1.2514
 Frc consts  --      1.6488                 0.7286                 0.5466
 IR Inten    --     22.2777                23.2360                 0.1170

                     31                     32                     33
                      A                      A                      A
 Frequencies --    872.6066               888.3633               928.5836
 Red. masses --      2.0862                 1.9683                 1.4705
 Frc consts  --      0.9359                 0.9152                 0.7471
 IR Inten    --     31.0047                21.5311                 5.2151

                     34                     35                     36
                      A                      A                      A
 Frequencies --    943.5989               967.2406               977.5645
 Red. masses --      1.3813                 1.3520                 1.2680
 Frc consts  --      0.7246                 0.7452                 0.7140
 IR Inten    --      1.0144                 0.1098                 0.4655

                     37                     38                     39
                      A                      A                      A
 Frequencies --    989.2608               996.7771              1022.5592
 Red. masses --      2.2764                 1.2572                 6.1806
 Frc consts  --      1.3126                 0.7360                 3.8077
 IR Inten    --      9.8465                 0.0513                 0.3298

                     40                     41                     42
                      A                      A                      A
 Frequencies --   1056.4319              1061.1831              1083.3933
 Red. masses --      2.9663                 2.3013                 2.1799
 Frc consts  --      1.9505                 1.5269                 1.5075
 IR Inten    --     16.1631                 1.6032                15.4043

                     43                     44                     45
                      A                      A                      A
 Frequencies --   1116.4344              1135.8559              1157.9069
 Red. masses --      1.7213                 1.8507                 1.0931
 Frc consts  --      1.2641                 1.4068                 0.8635
 IR Inten    --     10.0023                 2.2003                57.9514

                     46                     47                     48
                      A                      A                      A
 Frequencies --   1194.2437              1196.4278              1215.6857
 Red. masses --      1.0986                 1.0900                 1.2452
 Frc consts  --      0.9232                 0.9193                 1.0843
 IR Inten    --      0.0495                 6.6372                 4.3604

                     49                     50                     51
                      A                      A                      A
 Frequencies --   1216.5041              1233.6963              1248.0432
 Red. masses --      1.6639                 2.6728                 1.5329
 Frc consts  --      1.4508                 2.3968                 1.4068
 IR Inten    --      4.5131                 5.2995                25.5320

                     52                     53                     54
                      A                      A                      A
 Frequencies --   1257.8301              1283.7382              1325.6378
 Red. masses --      1.3933                 2.2539                 1.5970
 Frc consts  --      1.2988                 2.1884                 1.6535
 IR Inten    --     51.9567                86.0055                30.2805

                     55                     56                     57
                      A                      A                      A
 Frequencies --   1358.4070              1367.9540              1375.1526
 Red. masses --      4.7490                 2.8880                 1.4765
 Frc consts  --      5.1631                 3.1841                 1.6451
 IR Inten    --     22.1364                 1.9197                 4.3288

                     58                     59                     60
                      A                      A                      A
 Frequencies --   1390.1893              1438.4094              1481.3978
 Red. masses --      1.3241                 1.2743                 1.6235
 Frc consts  --      1.5077                 1.5534                 2.0992
 IR Inten    --      6.9184                16.1347                14.6450

                     61                     62                     63
                      A                      A                      A
 Frequencies --   1503.9189              1509.0549              1524.9753
 Red. masses --      2.0897                 1.5824                 1.4949
 Frc consts  --      2.7847                 2.1231                 2.0482
 IR Inten    --     27.2139                20.4223                61.5112

                     64                     65                     66
                      A                      A                      A
 Frequencies --   1547.9465              1551.6881              1639.2879
 Red. masses --      2.1618                 1.8737                 5.0469
 Frc consts  --      3.0519                 2.6580                 7.9908
 IR Inten    --      7.8103                 1.3743                 5.1462

                     67                     68                     69
                      A                      A                      A
 Frequencies --   1647.2095              1661.1247              1667.2465
 Red. masses --      5.5026                 5.4624                 5.5772
 Frc consts  --      8.7966                 8.8805                 9.1342
 IR Inten    --      0.6669                52.7590                 1.6745

                     70                     71                     72
                      A                      A                      A
 Frequencies --   1704.2498              3080.3987              3120.8590
 Red. masses --      7.9420                 1.0637                 1.0876
 Frc consts  --     13.5908                 5.9469                 6.2412
 IR Inten    --     88.1752                32.6767                18.0995

                     73                     74                     75
                      A                      A                      A
 Frequencies --   3137.0547              3169.5395              3179.7554
 Red. masses --      1.1022                 1.0875                 1.0865
 Frc consts  --      6.3906                 6.4368                 6.4723
 IR Inten    --      6.7633                11.0357                10.9022

                     76                     77                     78
                      A                      A                      A
 Frequencies --   3184.1219              3184.3681              3193.2393
 Red. masses --      1.0861                 1.0882                 1.0901
 Frc consts  --      6.4875                 6.5012                 6.5488
 IR Inten    --      0.8707                 1.9289                13.2382

                     79                     80                     81
                      A                      A                      A
 Frequencies --   3198.1913              3201.9266              3211.5013
 Red. masses --      1.0919                 1.0938                 1.0979
 Frc consts  --      6.5802                 6.6073                 6.6718
 IR Inten    --     17.8632                39.0643                15.8405

                     82                     83                     84
                      A                      A                      A
 Frequencies --   3213.7764              3376.5198              3512.1223
 Red. masses --      1.0971                 1.0732                 1.0740
 Frc consts  --      6.6760                 7.2086                 7.8057
 IR Inten    --     21.7937                10.4751                 1.4315

 - Thermochemistry -
 -------------------
 Temperature   298.150 Kelvin.  Pressure   1.00000 Atm.
 Atom     1 has atomic number  6 and mass  12.00000

 Molecular mass:   210.11570 amu.
 Principal axes and moments of inertia in atomic units:
                           1         2         3
     Eigenvalues --  2039.721694941.786945670.48585
           X            0.99996   0.00327  -0.00864
           Y           -0.00352   0.99958  -0.02891
           Z            0.00854   0.02894   0.99954
 This molecule is an asymmetric top.
 Rotational symmetry number  1.
 Warning -- assumption of classical behavior for rotation
           may cause significant error
 Rotational temperatures (Kelvin)      0.04246     0.01753     0.01527
 Rotational constants (GHZ):           0.88480     0.36520     0.31827
 Zero-point vibrational energy     657567.2 (Joules/Mol)
                                  157.16232 (Kcal/Mol)
 Warning -- explicit consideration of  19 degrees of freedom as
           vibrations may cause significant error
 Vibrational temperatures:     27.78    49.74    68.03   146.20   177.23
          (Kelvin)            194.49   312.79   327.37   417.18   467.04
                              521.72   557.82   599.66   648.18   713.60
                              748.77   765.97   813.60   873.52   906.67
                              917.73  1029.96  1046.72  1092.71  1121.05
                             1128.76  1146.85  1198.93  1222.83  1238.77
                             1255.49  1278.16  1336.02  1357.63  1391.64
                             1406.50  1423.33  1434.14  1471.23  1519.97
                             1526.81  1558.76  1606.30  1634.24  1665.97
                             1718.25  1721.39  1749.10  1750.28  1775.01
                             1795.66  1809.74  1847.01  1907.30  1954.44
                             1968.18  1978.54  2000.17  2069.55  2131.40
                             2163.80  2171.19  2194.10  2227.15  2232.53
                             2358.57  2369.97  2389.99  2398.80  2452.04
                             4432.01  4490.22  4513.52  4560.26  4574.96
                             4581.24  4581.60  4594.36  4601.48  4606.86
                             4620.63  4623.91  4858.06  5053.16

 Zero-point correction=                           0.250454 (Hartree/Particle)
 Thermal correction to Energy=                    0.263852
 Thermal correction to Enthalpy=                  0.264796
 Thermal correction to Gibbs Free Energy=         0.208343
 Sum of electronic and zero-point Energies=           -651.213362
 Sum of electronic and thermal Energies=              -651.199964
 Sum of electronic and thermal Enthalpies=            -651.199020
 Sum of electronic and thermal Free Energies=         -651.255473

                     E (Thermal)             CV                S
                      KCal/Mol        Cal/Mol-Kelvin    Cal/Mol-Kelvin
 Total                  165.570             52.596            118.815
 Electronic               0.000              0.000              0.000
 Translational            0.889              2.981             41.931
 Rotational               0.889              2.981             32.414
 Vibrational            163.792             46.634             44.471
 Vibration     1          0.593              1.986              6.704
 Vibration     2          0.594              1.983              5.548
 Vibration     3          0.595              1.979              4.928
 Vibration     4          0.604              1.948              3.423
 Vibration     5          0.610              1.930              3.050
 Vibration     6          0.613              1.918              2.871
 Vibration     7          0.646              1.815              1.981
 Vibration     8          0.651              1.799              1.898
 Vibration     9          0.686              1.692              1.474
 Vibration    10          0.709              1.626              1.287
 Vibration    11          0.736              1.549              1.111
 Vibration    12          0.756              1.496              1.009
 Vibration    13          0.780              1.434              0.903
 Vibration    14          0.809              1.360              0.794
 Vibration    15          0.852              1.259              0.668
 Vibration    16          0.875              1.205              0.609
 Vibration    17          0.887              1.178              0.582
 Vibration    18          0.921              1.106              0.513
 Vibration    19          0.966              1.017              0.438

 Optimization completed.
    -- Stationary point found.
 Normal termination of Gaussian 16 at Thu Dec 10 23:24:37 2020.

 ----------------------------------------------------------------------
 # B3LYP/6-311++G(d,p) empiricaldispersion=gd3bj scf=xqc pop=npa geom=c
 heck
 ----------------------------------------------------------------------

 ---------------------------------------
 CID_129197313_JID_6470_Energie_neutraal
 ---------------------------------------
 Structure from the checkpoint file:  "JID_6470.chk"
 Charge =  0 Multiplicity = 1

 SCF Done:  E(RB3LYP) =  -651.638665067     A.U. after   15 cycles
 Normal termination of Gaussian 16 at Thu Dec 10 23:29:38 2020.

 ----------------------------------------------------------------------
 # B3LYP/6-311++G(d,p) empiricaldispersion=gd3bj scf=xqc pop=npa geom=c
 heck
 ----------------------------------------------------------------------

 -------------------------------------
 CID_129197313_JID_6470_Energie_kation
 -------------------------------------
 Structure from the checkpoint file:  "JID_6470.chk"
 Charge =  1 Multiplicity = 2

 SCF Done:  E(UB3LYP) =  -651.350343115     A.U. after   25 cycles
 Normal termination of Gaussian 16 at Thu Dec 10 23:41:36 2020.
 Gaussian 16:  ES64L-G16RevA.03 25-Dec-2016

 ----------------------------------------------------------------------
 # B3LYP/6-311++G(d,p) empiricaldispersion=gd3bj scf=xqc pop=npa geom=c
 heck
 ----------------------------------------------------------------------

 ------------------------------------
 CID_129197313_JID_6470_Energie_anion
 ------------------------------------
 Structure from the checkpoint file:  "JID_6470.chk"
 Charge = -1 Multiplicity = 2

                         Standard orientation:
 ---------------------------------------------------------------------
 Center     Atomic      Atomic             Coordinates (Angstroms)
 Number     Number       Type             X           Y           Z
 ---------------------------------------------------------------------
      1          6           0        3.749222   -0.897820    0.854074
      2          6           0        2.513342   -0.876904    1.503592
      3          6           0        1.506059   -0.019046    1.064809
      4          6           0        1.718762    0.828918   -0.030316
      5          6           0        2.961300    0.800029   -0.673460
      6          6           0        3.972698   -0.055554   -0.235700
      7          6           0        0.598947    1.695168   -0.561433
      8          7           0       -0.310670    0.966353   -1.480997
      9          6           0       -1.090318   -0.067553   -0.915958
     10          6           0       -0.853442   -1.409638   -1.241949
     11          6           0       -1.619045   -2.427405   -0.680315
     12          6           0       -2.625138   -2.123703    0.239825
     13          6           0       -2.870612   -0.793469    0.564909
     14          6           0       -2.127742    0.247614   -0.008661
     15          6           0       -2.467989    1.660247    0.266367
     16          7           0       -3.001096    2.160101    1.316131
     17          1           0        4.535202   -1.563902    1.198691
     18          1           0        2.334907   -1.527707    2.355067
     19          1           0        0.545007   -0.006747    1.571102
     20          1           0        3.139093    1.458985   -1.521063
     21          1           0        4.934452   -0.060982   -0.741246
     22          1           0       -0.000628    2.099056    0.257303
     23          1           0        1.002018    2.546744   -1.118907
     24          1           0        0.241381    0.594376   -2.250133
     25          1           0       -0.041572   -1.650639   -1.923582
     26          1           0       -1.417404   -3.460696   -0.948257
     27          1           0       -3.222652   -2.914248    0.683189
     28          1           0       -3.684582   -0.544646    1.241064
     29          1           0       -2.239398    2.351285   -0.550165
     30          1           0       -3.139725    1.428637    2.026298
 ---------------------------------------------------------------------

 SCF Done:  E(UB3LYP) =  -651.639010080     A.U. after   33 cycles
 SCF Done:  E(UB3LYP) =  -651.639156928     a.u. after    4 cycles

 The electronic state is 2-A.
 Alpha  occ. eigenvalues --  -14.19611 -14.13550 -10.08659 -10.07296 -10.06962
 Alpha  occ. eigenvalues --  -10.06943 -10.06871 -10.06790 -10.06779 -10.06042
 Alpha  occ. eigenvalues --  -10.05202 -10.04063 -10.03956 -10.03683 -10.03392
 Alpha  occ. eigenvalues --  -10.03081  -0.81009  -0.75211  -0.74726  -0.71025
 Alpha  occ. eigenvalues --   -0.65692  -0.64083  -0.61718  -0.60787  -0.55735
 Alpha  occ. eigenvalues --   -0.50469  -0.50183  -0.48145  -0.46626  -0.43486
 Alpha  occ. eigenvalues --   -0.41089  -0.39904  -0.37138  -0.35643  -0.34826
 Alpha  occ. eigenvalues --   -0.33915  -0.32313  -0.31749  -0.31263  -0.30813
 Alpha  occ. eigenvalues --   -0.30047  -0.27132  -0.26809  -0.25859  -0.25113
 Alpha  occ. eigenvalues --   -0.24694  -0.23644  -0.22662  -0.21960  -0.18686
 Alpha  occ. eigenvalues --   -0.16651  -0.15202  -0.14443  -0.12186  -0.11735
 Alpha  occ. eigenvalues --   -0.09068   0.04771
 Alpha virt. eigenvalues --    0.06373   0.07836   0.08520   0.08661   0.08852
 Alpha virt. eigenvalues --    0.09314   0.09884   0.10597   0.11122   0.11501
 Alpha virt. eigenvalues --    0.11844   0.12605   0.13206   0.13832   0.14192

  Beta  occ. eigenvalues --  -14.19591 -14.13164 -10.08635 -10.07204 -10.06974
  Beta  occ. eigenvalues --  -10.06945 -10.06823 -10.06742 -10.06734 -10.05982
  Beta  occ. eigenvalues --  -10.05073 -10.04119 -10.03978 -10.03546 -10.03122
  Beta  occ. eigenvalues --  -10.02930  -0.80902  -0.74934  -0.74280  -0.70742
  Beta  occ. eigenvalues --   -0.65557  -0.63995  -0.61276  -0.60591  -0.55604
  Beta  occ. eigenvalues --   -0.50206  -0.49886  -0.48046  -0.46392  -0.43149
  Beta  occ. eigenvalues --   -0.41026  -0.39787  -0.37004  -0.35564  -0.34719
  Beta  occ. eigenvalues --   -0.33742  -0.32146  -0.31706  -0.31102  -0.30712
  Beta  occ. eigenvalues --   -0.29929  -0.26902  -0.26730  -0.25668  -0.24818
  Beta  occ. eigenvalues --   -0.24298  -0.23579  -0.22364  -0.21820  -0.17131
  Beta  occ. eigenvalues --   -0.16301  -0.15029  -0.14045  -0.11407  -0.10851
  Beta  occ. eigenvalues --   -0.08408
  Beta virt. eigenvalues --    0.06712   0.07993   0.08494   0.08817   0.08916
  Beta virt. eigenvalues --    0.09412   0.09785   0.10138   0.10664   0.11031
  Beta virt. eigenvalues --    0.11504   0.12010   0.12709   0.13181   0.13797

 Mulliken charges and spin densities:
               1          2
     1  C    0.041288  -0.378894
     2  C   -0.283572   0.043318
     3  C   -0.184970   0.264721
     4  C    0.213844   0.268961
     5  C   -0.174417  -0.086154
     6  C    0.078790  -0.319790
     7  C   -0.395447  -0.318619
     8  N    0.138013  -0.028358
     9  C   -0.495201   0.093897
    10  C    0.180034  -0.103936
    11  C   -0.617169   0.184428
    12  C   -0.279473  -0.033654
    13  C   -0.446255   0.143649
    14  C    0.956591   0.151327
    15  C   -0.675464   0.033112
    16  N   -0.231055   0.207290
    17  H   -0.064022   0.190756
    18  H    0.095850   0.067677
    19  H    0.196550  -0.019722
    20  H   -0.036976   0.176927
    21  H   -0.243133   0.395041
    22  H    0.172727   0.003900
    23  H    0.113270   0.039370
    24  H    0.188683   0.025687
    25  H    0.084428   0.018486
    26  H    0.107003  -0.012786
    27  H    0.118447   0.003954
    28  H    0.097680   0.013902
    29  H    0.185531  -0.010360
    30  H    0.158424  -0.014129
 Sum of Mulliken charges =  -1.00000   1.00000

 Dipole moment (field-independent basis, Debye):
    X=              2.9574    Y=             -2.5021    Z=             -0.9578  Tot=              3.9905
 Quadrupole moment (field-independent basis, Debye-Ang):
   XX=           -156.5934   YY=           -124.5881   ZZ=           -108.4945
   XY=             12.1441   XZ=              1.3618   YZ=             -7.0059

 Summary of Natural Population Analysis:

                                       Natural Population
                Natural  -----------------------------------------------
    Atom  No    Charge         Core      Valence    Rydberg      Total
 -----------------------------------------------------------------------
      C    1   -0.10349      0.99957     2.09374    0.01019     3.10349
      C    2   -0.10384      0.99957     2.09396    0.01032     3.10384
      C    3   -0.08478      0.99952     2.07619    0.00907     3.08478
      C    4   -0.01828      0.99950     2.00918    0.00960     3.01828
      C    5   -0.10826      0.99952     2.09851    0.01023     3.10826
      C    6   -0.09918      0.99957     2.08941    0.01020     3.09918
      C    7   -0.09315      0.99957     2.08129    0.01229     3.09315
      N    8   -0.32154      0.99971     2.81055    0.01127     3.82154
      C    9    0.10621      0.99945     1.88234    0.01200     2.89379
      C   10   -0.12852      0.99952     2.12102    0.00798     3.12852
      C   11   -0.05132      0.99958     2.04268    0.00906     3.05132
      C   12   -0.13212      0.99957     2.12326    0.00929     3.13212
      C   13   -0.06425      0.99954     2.05624    0.00847     3.06425
      C   14   -0.05010      0.99944     2.03941    0.01125     3.05010
      C   15    0.06865      0.99966     1.91548    0.01621     2.93135
      N   16   -0.27231      0.99974     2.76287    0.00969     3.77231
      H   17    0.09665      0.00000     0.40254    0.00081     0.40335
      H   18    0.09793      0.00000     0.40126    0.00081     0.40207
      H   19    0.10698      0.00000     0.39157    0.00144     0.39302
      H   20    0.09643      0.00000     0.40249    0.00108     0.40357
      H   21    0.09698      0.00000     0.40200    0.00101     0.40302
      H   22    0.10949      0.00000     0.38960    0.00090     0.39051
      H   23    0.09210      0.00000     0.40697    0.00094     0.40790
      H   24    0.17250      0.00000     0.32518    0.00233     0.32750
      H   25    0.09245      0.00000     0.40594    0.00161     0.40755
      H   26    0.08875      0.00000     0.41026    0.00099     0.41125
      H   27    0.09160      0.00000     0.40739    0.00101     0.40840
      H   28    0.09206      0.00000     0.40613    0.00181     0.40794
      H   29    0.07709      0.00000     0.42104    0.00187     0.42291
      H   30    0.14524      0.00000     0.35248    0.00227     0.35476
 =======================================================================
   * Total *   -0.00000     15.99303    39.82098    0.18599    56.00000

 Normal termination of Gaussian 16 at Fri Dec 11 00:43:56 2020.
