 Gaussian 16, Revision A.03,

 -----------------------------------------------------------
 # opt freq B3LYP/6-31G(d) empiricaldispersion=gd3bj scf=xqc
 -----------------------------------------------------------

 -------------------------------
 CID_139369214_JID_3215_neutraal
 -------------------------------
 Symbolic Z-matrix:
 Charge =  0 Multiplicity = 1

 SCF Done:  E(RB3LYP) =  -919.509738826     A.U. after   16 cycles
 SCF Done:  E(RB3LYP) =  -919.518068730     A.U. after   13 cycles
 SCF Done:  E(RB3LYP) =  -919.518244654     A.U. after   12 cycles
 SCF Done:  E(RB3LYP) =  -919.519872515     A.U. after   13 cycles
 SCF Done:  E(RB3LYP) =  -919.520358190     A.U. after   12 cycles
 SCF Done:  E(RB3LYP) =  -919.520872763     A.U. after   13 cycles
 SCF Done:  E(RB3LYP) =  -919.521103621     A.U. after   12 cycles
 SCF Done:  E(RB3LYP) =  -919.521126509     A.U. after   11 cycles
 SCF Done:  E(RB3LYP) =  -919.521147313     A.U. after   10 cycles
 SCF Done:  E(RB3LYP) =  -919.521150117     A.U. after    9 cycles
 SCF Done:  E(RB3LYP) =  -919.521153643     A.U. after    9 cycles
 SCF Done:  E(RB3LYP) =  -919.521154697     A.U. after    9 cycles
 SCF Done:  E(RB3LYP) =  -919.521155141     A.U. after    8 cycles
 SCF Done:  E(RB3LYP) =  -919.521155223     A.U. after    7 cycles
 SCF Done:  E(RB3LYP) =  -919.521155326     A.U. after    7 cycles
 Optimization completed.
    -- Stationary point found.
 Normal termination of Gaussian 16 at Wed Dec  9 22:34:11 2020.

 --------------------------------------------------------------------
 #N Geom=AllCheck Guess=TCheck SCRF=Check GenChk RB3LYP/6-31G(d) Freq
 --------------------------------------------------------------------

 Structure from the checkpoint file:  "JID_3215.chk"
 -------------------------------
 CID_139369214_JID_3215_neutraal
 -------------------------------
 Charge =  0 Multiplicity = 1

 SCF Done:  E(RB3LYP) =  -919.521155326     A.U. after    1 cycles

  Exact polarizability: 162.568 -24.093 124.025  -2.519  -0.124 103.485
 Approx polarizability: 216.083 -59.757 213.403  -1.108   1.633 151.508

                      1                      2                      3
                      A                      A                      A
 Frequencies --     20.6980                28.8977                35.0509
 Red. masses --      5.1977                 6.0536                 3.7197
 Frc consts  --      0.0013                 0.0030                 0.0027
 IR Inten    --      0.3703                 0.7364                 1.1959

                      4                      5                      6
                      A                      A                      A
 Frequencies --    102.1823               185.7368               219.2325
 Red. masses --      5.2216                 2.4400                 1.1239
 Frc consts  --      0.0321                 0.0496                 0.0318
 IR Inten    --      6.0694                 0.5697                 1.6767

                      7                      8                      9
                      A                      A                      A
 Frequencies --    232.4408               270.5900               271.8149
 Red. masses --      3.7110                 2.6054                 1.7553
 Frc consts  --      0.1181                 0.1124                 0.0764
 IR Inten    --      6.1232                 2.5690                 4.9161

                     10                     11                     12
                      A                      A                      A
 Frequencies --    297.8144               320.8441               328.5037
 Red. masses --      1.5072                 2.0283                 2.1451
 Frc consts  --      0.0788                 0.1230                 0.1364
 IR Inten    --     46.9623                 1.8223                 8.0582

                     13                     14                     15
                      A                      A                      A
 Frequencies --    356.5931               370.8695               415.1802
 Red. masses --      1.8304                 2.4393                 3.0030
 Frc consts  --      0.1371                 0.1977                 0.3050
 IR Inten    --     35.0248                 1.5103                11.2947

                     16                     17                     18
                      A                      A                      A
 Frequencies --    428.2592               431.9205               459.5157
 Red. masses --      2.9484                 2.5303                 2.5060
 Frc consts  --      0.3186                 0.2781                 0.3118
 IR Inten    --      6.7576                 6.6685                 8.4908

                     19                     20                     21
                      A                      A                      A
 Frequencies --    464.3287               474.0721               513.5496
 Red. masses --      3.5498                 3.6723                 3.2827
 Frc consts  --      0.4509                 0.4863                 0.5101
 IR Inten    --      2.4724                 8.9749                 4.9795

                     22                     23                     24
                      A                      A                      A
 Frequencies --    545.7438               645.7721               711.9443
 Red. masses --      6.2725                 2.8676                 4.1000
 Frc consts  --      1.1007                 0.7046                 1.2244
 IR Inten    --     30.7463                 3.9817                27.7718

                     25                     26                     27
                      A                      A                      A
 Frequencies --    776.8297               791.3236               829.9377
 Red. masses --      3.0682                 1.5030                 2.9225
 Frc consts  --      1.0909                 0.5545                 1.1860
 IR Inten    --     22.9801                 0.0781                 4.3238

                     28                     29                     30
                      A                      A                      A
 Frequencies --    863.8869               913.2812               926.3764
 Red. masses --      2.7030                 2.2685                 2.3871
 Frc consts  --      1.1885                 1.1148                 1.2070
 IR Inten    --      6.5514                 0.9698                23.1007

                     31                     32                     33
                      A                      A                      A
 Frequencies --    942.5046               957.7582               983.2640
 Red. masses --      1.5638                 1.4445                 2.0888
 Frc consts  --      0.8185                 0.7807                 1.1899
 IR Inten    --      4.7528                 4.1804                11.2721

                     34                     35                     36
                      A                      A                      A
 Frequencies --   1003.4820              1023.0671              1051.9811
 Red. masses --      2.0358                 1.4476                 1.7891
 Frc consts  --      1.2078                 0.8927                 1.1666
 IR Inten    --     20.1707                 2.0748                 3.1861

                     37                     38                     39
                      A                      A                      A
 Frequencies --   1092.5060              1101.1640              1130.1046
 Red. masses --      1.7325                 2.1497                 1.6148
 Frc consts  --      1.2183                 1.5358                 1.2151
 IR Inten    --      3.3822                 9.0433                 2.0998

                     40                     41                     42
                      A                      A                      A
 Frequencies --   1138.8356              1154.3234              1163.2624
 Red. masses --      2.3322                 2.2130                 1.9748
 Frc consts  --      1.7821                 1.7373                 1.5744
 IR Inten    --     34.6405                 9.1156                13.1111

                     43                     44                     45
                      A                      A                      A
 Frequencies --   1215.6334              1229.4540              1241.9772
 Red. masses --      1.8991                 1.6339                 2.0013
 Frc consts  --      1.6535                 1.4551                 1.8188
 IR Inten    --     39.5013                16.7155                24.3418

                     46                     47                     48
                      A                      A                      A
 Frequencies --   1293.7163              1319.4214              1348.1724
 Red. masses --      1.3564                 1.4730                 1.3792
 Frc consts  --      1.3376                 1.5109                 1.4770
 IR Inten    --      3.2999                 5.1081                24.5547

                     49                     50                     51
                      A                      A                      A
 Frequencies --   1349.6043              1357.6668              1377.9944
 Red. masses --      1.3138                 1.4685                 1.2747
 Frc consts  --      1.4099                 1.5948                 1.4261
 IR Inten    --     13.3378                 1.0153                 8.8476

                     52                     53                     54
                      A                      A                      A
 Frequencies --   1389.0715              1393.8525              1399.8704
 Red. masses --      1.3782                 1.3627                 1.3701
 Frc consts  --      1.5667                 1.5599                 1.5820
 IR Inten    --      0.7799                 8.7160                20.9006

                     55                     56                     57
                      A                      A                      A
 Frequencies --   1416.2098              1426.4769              1439.8446
 Red. masses --      1.3338                 1.3149                 1.4908
 Frc consts  --      1.5762                 1.5764                 1.8210
 IR Inten    --      2.9344                27.6395                 9.1730

                     58                     59                     60
                      A                      A                      A
 Frequencies --   1449.2846              1509.0667              1512.4411
 Red. masses --      1.2484                 1.0582                 1.0699
 Frc consts  --      1.5449                 1.4199                 1.4420
 IR Inten    --     10.4177                 1.1749                 0.7415

                     61                     62                     63
                      A                      A                      A
 Frequencies --   1516.4995              1521.8519              1528.0674
 Red. masses --      1.0863                 1.0645                 1.0730
 Frc consts  --      1.4720                 1.4526                 1.4762
 IR Inten    --      5.5199                 3.2258                 7.3466

                     64                     65                     66
                      A                      A                      A
 Frequencies --   1535.8310              1539.5945              1546.0762
 Red. masses --      1.0789                 1.0732                 1.0664
 Frc consts  --      1.4994                 1.4988                 1.5018
 IR Inten    --      9.4705                 4.6297                 8.0972

                     67                     68                     69
                      A                      A                      A
 Frequencies --   2166.3827              3029.3390              3034.2635
 Red. masses --     12.4426                 1.0763                 1.0709
 Frc consts  --     34.4059                 5.8194                 5.8093
 IR Inten    --   1198.1086                13.3372                11.0868

                     70                     71                     72
                      A                      A                      A
 Frequencies --   3049.5643              3051.1946              3058.2989
 Red. masses --      1.0808                 1.0785                 1.0419
 Frc consts  --      5.9219                 5.9157                 5.7415
 IR Inten    --      4.2551                71.3917                 2.7130

                     73                     74                     75
                      A                      A                      A
 Frequencies --   3064.9491              3067.5200              3072.2639
 Red. masses --      1.0497                 1.0455                 1.0627
 Frc consts  --      5.8098                 5.7960                 5.9099
 IR Inten    --     34.4691                 2.7887                19.8091

                     76                     77                     78
                      A                      A                      A
 Frequencies --   3093.5534              3100.3115              3105.3765
 Red. masses --      1.0915                 1.0910                 1.1037
 Frc consts  --      6.1545                 6.1785                 6.2707
 IR Inten    --     34.1229                29.3713                33.5452

                     79                     80                     81
                      A                      A                      A
 Frequencies --   3117.7464              3128.3061              3137.2373
 Red. masses --      1.1025                 1.1011                 1.1019
 Frc consts  --      6.3140                 6.3488                 6.3899
 IR Inten    --     57.0643                21.0299                21.1262

                     82                     83                     84
                      A                      A                      A
 Frequencies --   3137.8131              3143.8052              3747.8752
 Red. masses --      1.1020                 1.1013                 1.0661
 Frc consts  --      6.3926                 6.4133                 8.8230
 IR Inten    --      8.4989                44.8158                 6.2692

 - Thermochemistry -
 -------------------
 Temperature   298.150 Kelvin.  Pressure   1.00000 Atm.
 Atom     1 has atomic number  6 and mass  12.00000

 Molecular mass:   199.10309 amu.
 Principal axes and moments of inertia in atomic units:
                           1         2         3
     Eigenvalues --  1370.801635580.164355860.11674
           X            0.99991   0.01048  -0.00854
           Y           -0.01074   0.99946  -0.03107
           Z            0.00821   0.03116   0.99948
 This molecule is an asymmetric top.
 Rotational symmetry number  1.
 Warning -- assumption of classical behavior for rotation
           may cause significant error
 Rotational temperatures (Kelvin)      0.06318     0.01552     0.01478
 Rotational constants (GHZ):           1.31656     0.32342     0.30797
 Zero-point vibrational energy     688683.7 (Joules/Mol)
                                  164.59935 (Kcal/Mol)
 Warning -- explicit consideration of  22 degrees of freedom as
           vibrations may cause significant error
 Vibrational temperatures:     29.78    41.58    50.43   147.02   267.23
          (Kelvin)            315.43   334.43   389.32   391.08   428.49
                              461.62   472.64   513.06   533.60   597.35
                              616.17   621.44   661.14   668.07   682.08
                              738.88   785.20   929.12  1024.33  1117.68
                             1138.54  1194.10  1242.94  1314.01  1332.85
                             1356.05  1378.00  1414.70  1443.79  1471.97
                             1513.57  1571.87  1584.33  1625.97  1638.53
                             1660.81  1673.68  1749.03  1768.91  1786.93
                             1861.37  1898.35  1939.72  1941.78  1953.38
                             1982.63  1998.56  2005.44  2014.10  2037.61
                             2052.38  2071.62  2085.20  2171.21  2176.07
                             2181.90  2189.61  2198.55  2209.72  2215.13
                             2224.46  3116.94  4358.54  4365.63  4387.64
                             4389.99  4400.21  4409.78  4413.48  4420.30
                             4450.93  4460.66  4467.94  4485.74  4500.93
                             4513.78  4514.61  4523.23  5392.36

 Zero-point correction=                           0.262306 (Hartree/Particle)
 Thermal correction to Energy=                    0.276158
 Thermal correction to Enthalpy=                  0.277102
 Thermal correction to Gibbs Free Energy=         0.220102
 Sum of electronic and zero-point Energies=           -919.258850
 Sum of electronic and thermal Energies=              -919.244998
 Sum of electronic and thermal Enthalpies=            -919.244053
 Sum of electronic and thermal Free Energies=         -919.301053

                     E (Thermal)             CV                S
                      KCal/Mol        Cal/Mol-Kelvin    Cal/Mol-Kelvin
 Total                  173.292             53.039            119.966
 Electronic               0.000              0.000              0.000
 Translational            0.889              2.981             41.771
 Rotational               0.889              2.981             32.172
 Vibrational            171.514             47.077             46.023
 Vibration     1          0.593              1.986              6.566
 Vibration     2          0.593              1.984              5.904
 Vibration     3          0.594              1.982              5.521
 Vibration     4          0.604              1.947              3.412
 Vibration     5          0.632              1.859              2.270
 Vibration     6          0.647              1.812              1.965
 Vibration     7          0.653              1.791              1.860
 Vibration     8          0.674              1.727              1.592
 Vibration     9          0.675              1.725              1.585
 Vibration    10          0.691              1.678              1.429
 Vibration    11          0.706              1.634              1.306
 Vibration    12          0.712              1.619              1.267
 Vibration    13          0.732              1.562              1.137
 Vibration    14          0.743              1.532              1.076
 Vibration    15          0.779              1.437              0.908
 Vibration    16          0.790              1.409              0.864
 Vibration    17          0.793              1.401              0.852
 Vibration    18          0.817              1.340              0.768
 Vibration    19          0.822              1.329              0.754
 Vibration    20          0.831              1.308              0.726
 Vibration    21          0.869              1.220              0.625
 Vibration    22          0.901              1.149              0.553

                           ! Non-Optimized Parameters !
 Normal termination of Gaussian 16 at Wed Dec  9 22:43:44 2020.

 ----------------------------------------------------------------------
 # B3LYP/6-311++G(d,p) empiricaldispersion=gd3bj scf=xqc pop=npa geom=c
 heck
 ----------------------------------------------------------------------

 ---------------------------------------
 CID_139369214_JID_3215_Energie_neutraal
 ---------------------------------------
 Structure from the checkpoint file:  "JID_3215.chk"
 Charge =  0 Multiplicity = 1

 SCF Done:  E(RB3LYP) =  -919.699098785     A.U. after   15 cycles
 Normal termination of Gaussian 16 at Wed Dec  9 22:48:41 2020.

 ----------------------------------------------------------------------
 # B3LYP/6-311++G(d,p) empiricaldispersion=gd3bj scf=xqc pop=npa geom=c
 heck
 ----------------------------------------------------------------------

 -------------------------------------
 CID_139369214_JID_3215_Energie_kation
 -------------------------------------
 Structure from the checkpoint file:  "JID_3215.chk"
 Charge =  1 Multiplicity = 2

 SCF Done:  E(UB3LYP) =  -919.377788274     A.U. after   26 cycles
 Normal termination of Gaussian 16 at Wed Dec  9 23:00:27 2020.
 Gaussian 16:  ES64L-G16RevA.03 25-Dec-2016

 ----------------------------------------------------------------------
 # B3LYP/6-311++G(d,p) empiricaldispersion=gd3bj scf=xqc pop=npa geom=c
 heck
 ----------------------------------------------------------------------

 ------------------------------------
 CID_139369214_JID_3215_Energie_anion
 ------------------------------------
 Structure from the checkpoint file:  "JID_3215.chk"
 Charge = -1 Multiplicity = 2

                         Standard orientation:
 ---------------------------------------------------------------------
 Center     Atomic      Atomic             Coordinates (Angstroms)
 Number     Number       Type             X           Y           Z
 ---------------------------------------------------------------------
      1          6           0        3.644561    0.757111   -0.976325
      2          6           0        2.498499    0.649298    0.035660
      3          6           0        1.509531    1.799104   -0.193744
      4          6           0        1.893126   -0.793674   -0.013192
      5          6           0        1.087420   -1.222283    1.234450
      6          6           0       -0.388312   -0.802978    1.248488
      7          6           0       -1.089274   -1.285021   -0.028912
      8          6           0       -0.383025   -0.739007   -1.277702
      9          6           0        1.099950   -1.142280   -1.294834
     10          7           0       -2.480515   -0.904708   -0.024548
     11          6           0       -3.252923    0.007028   -0.011070
     12         16           0       -4.373295    1.139552    0.006063
     13          8           0        3.144489    0.835260    1.308713
     14          1           0        3.295711    0.603031   -2.001562
     15          1           0        4.414636    0.012130   -0.753074
     16          1           0        4.101924    1.748853   -0.912733
     17          1           0        1.076990    1.771477   -1.197812
     18          1           0        0.685017    1.786639    0.526884
     19          1           0        2.039820    2.750148   -0.081012
     20          1           0        2.784309   -1.433493   -0.011494
     21          1           0        1.121211   -2.319395    1.284251
     22          1           0        1.591506   -0.875414    2.141658
     23          1           0       -0.500852    0.285067    1.312812
     24          1           0       -0.892576   -1.225453    2.124613
     25          1           0       -1.056228   -2.381403   -0.053552
     26          1           0       -0.502304    0.348853   -1.285406
     27          1           0       -0.883171   -1.119557   -2.175018
     28          1           0        1.580035   -0.710273   -2.179205
     29          1           0        1.149478   -2.231344   -1.430998
     30          1           0        2.457589    1.044395    1.959863
 ---------------------------------------------------------------------

 SCF Done:  E(UB3LYP) =  -919.691073212     A.U. after   33 cycles
 SCF Done:  E(UB3LYP) =  -919.691073213     a.u. after    1 cycles

 The electronic state is 2-A.
 Alpha  occ. eigenvalues --  -88.73650 -19.01993 -14.24254 -10.16422 -10.13296
 Alpha  occ. eigenvalues --  -10.12914 -10.07423 -10.07378 -10.07363 -10.07061
 Alpha  occ. eigenvalues --  -10.06794 -10.06638 -10.05966  -7.82383  -5.78786
 Alpha  occ. eigenvalues --   -5.78107  -5.78033  -0.92444  -0.86330  -0.74451
 Alpha  occ. eigenvalues --   -0.69717  -0.66990  -0.65139  -0.63982  -0.59951
 Alpha  occ. eigenvalues --   -0.55463  -0.52283  -0.49619  -0.45118  -0.43300
 Alpha  occ. eigenvalues --   -0.40069  -0.38460  -0.36378  -0.35528  -0.34296
 Alpha  occ. eigenvalues --   -0.33821  -0.32982  -0.31994  -0.30506  -0.29623
 Alpha  occ. eigenvalues --   -0.29197  -0.28898  -0.28171  -0.27607  -0.26359
 Alpha  occ. eigenvalues --   -0.25590  -0.24684  -0.24005  -0.22266  -0.21547
 Alpha  occ. eigenvalues --   -0.20861  -0.17480  -0.15376  -0.14509   0.04168
 Alpha virt. eigenvalues --    0.06771   0.07021   0.07204   0.08423   0.09157
 Alpha virt. eigenvalues --    0.09432   0.09875   0.10124   0.10284   0.11219
 Alpha virt. eigenvalues --    0.11526   0.11826   0.12853   0.13189   0.13349

  Beta  occ. eigenvalues --  -88.73644 -19.01966 -14.24233 -10.16303 -10.13295
  Beta  occ. eigenvalues --  -10.12863 -10.07418 -10.07361 -10.07339 -10.07032
  Beta  occ. eigenvalues --  -10.06764 -10.06613 -10.05940  -7.82377  -5.78787
  Beta  occ. eigenvalues --   -5.78083  -5.78030  -0.92390  -0.86211  -0.74381
  Beta  occ. eigenvalues --   -0.69639  -0.66916  -0.65079  -0.63926  -0.59900
  Beta  occ. eigenvalues --   -0.55367  -0.52213  -0.49536  -0.45045  -0.43193
  Beta  occ. eigenvalues --   -0.40020  -0.38388  -0.36338  -0.35483  -0.34137
  Beta  occ. eigenvalues --   -0.33757  -0.32860  -0.31956  -0.30461  -0.29573
  Beta  occ. eigenvalues --   -0.29137  -0.28762  -0.28104  -0.27511  -0.26304
  Beta  occ. eigenvalues --   -0.25510  -0.24607  -0.23937  -0.22222  -0.21494
  Beta  occ. eigenvalues --   -0.20809  -0.17449  -0.15184  -0.14490
  Beta virt. eigenvalues --    0.06531   0.07499   0.07848   0.08161   0.08732
  Beta virt. eigenvalues --    0.09609   0.09786   0.10104   0.10318   0.10662
  Beta virt. eigenvalues --    0.11480   0.11783   0.12151   0.13047   0.13480

 Mulliken charges and spin densities:
               1          2
     1  C    0.772743  -1.216525
     2  C   -0.377596   0.074630
     3  C    0.119033  -0.614355
     4  C    0.325685   0.433811
     5  C   -0.047477  -0.755939
     6  C   -0.217969   0.346559
     7  C    0.789978  -1.815364
     8  C   -0.963058   1.166675
     9  C    1.012267  -1.924909
    10  N    0.190423   0.176679
    11  C    0.026763   0.194619
    12  S   -0.684768   0.210088
    13  O   -0.167617  -0.000439
    14  H   -0.117171   0.256159
    15  H   -0.065727   0.228399
    16  H    0.056231   0.085906
    17  H   -0.163346   0.323742
    18  H    0.071123   0.046279
    19  H    0.167745  -0.000894
    20  H   -0.054736   0.278775
    21  H   -0.245963   0.408728
    22  H   -0.312675   0.458679
    23  H   -0.085375   0.239144
    24  H   -0.283510   0.496560
    25  H   -0.128500   0.342518
    26  H    0.121339   0.013762
    27  H   -0.233533   0.448059
    28  H   -0.317643   0.479466
    29  H   -0.136180   0.303671
    30  H   -0.050484   0.315518
 Sum of Mulliken charges =  -1.00000   1.00000

 Dipole moment (field-independent basis, Debye):
    X=             -0.4265    Y=              1.9845    Z=             -0.3921  Tot=              2.0673
 Quadrupole moment (field-independent basis, Debye-Ang):
   XX=           -161.2630   YY=           -123.2835   ZZ=           -129.0188
   XY=              2.3419   XZ=             -1.3115   YZ=             -0.6312

 Summary of Natural Population Analysis:

                                       Natural Population
                Natural  -----------------------------------------------
    Atom  No    Charge         Core      Valence    Rydberg      Total
 -----------------------------------------------------------------------
      C    1   -0.28724      0.99961     2.28133    0.00630     3.28724
      C    2    0.13076      0.99953     1.85545    0.01426     2.86924
      C    3   -0.29971      0.99961     2.29441    0.00569     3.29971
      C    4   -0.11761      0.99954     2.10464    0.01343     3.11761
      C    5   -0.19305      0.99960     2.18291    0.01053     3.19305
      C    6   -0.18906      0.99960     2.18036    0.00910     3.18906
      C    7   -0.00756      0.99952     1.99620    0.01184     3.00756
      C    8   -0.18959      0.99960     2.18098    0.00901     3.18959
      C    9   -0.19269      0.99961     2.18306    0.01003     3.19269
      N   10   -0.21625      0.99949     2.70217    0.01459     3.71625
      C   11    0.13659      0.99949     1.85017    0.01375     2.86341
      S   12   -0.05686      4.99949     3.04097    0.01640     8.05686
      O   13   -0.37836      0.99989     3.37184    0.00663     4.37836
      H   14    0.10099      0.00000     0.39781    0.00120     0.39901
      H   15    0.10330      0.00000     0.39557    0.00114     0.39670
      H   16    0.10079      0.00000     0.39826    0.00096     0.39921
      H   17    0.10373      0.00000     0.39521    0.00105     0.39627
      H   18    0.09922      0.00000     0.39946    0.00132     0.40078
      H   19    0.10244      0.00000     0.39659    0.00096     0.39756
      H   20    0.10459      0.00000     0.39361    0.00181     0.39541
      H   21    0.10070      0.00000     0.39774    0.00156     0.39930
      H   22    0.10622      0.00000     0.39194    0.00184     0.39378
      H   23    0.09546      0.00000     0.40270    0.00184     0.40454
      H   24    0.10558      0.00000     0.39294    0.00148     0.39442
      H   25    0.09965      0.00000     0.39839    0.00196     0.40035
      H   26    0.09757      0.00000     0.40054    0.00189     0.40243
      H   27    0.10490      0.00000     0.39382    0.00128     0.39510
      H   28    0.10495      0.00000     0.39330    0.00175     0.39505
      H   29    0.10081      0.00000     0.39764    0.00154     0.39919
      H   30    0.22973      0.00000     0.26683    0.00344     0.27027
 =======================================================================
   * Total *    0.00000     16.99455    36.83686    0.16859    54.00000

 Normal termination of Gaussian 16 at Wed Dec  9 23:15:05 2020.
