 Gaussian 16, Revision A.03,

 -----------------------------------------------------------
 # opt freq B3LYP/6-31G(d) empiricaldispersion=gd3bj scf=xqc
 -----------------------------------------------------------

 -------------------------------
 CID_103355216_JID_9500_neutraal
 -------------------------------
 Symbolic Z-matrix:
 Charge =  0 Multiplicity = 1

 SCF Done:  E(RB3LYP) =  -862.111423642     A.U. after   14 cycles
 SCF Done:  E(RB3LYP) =  -862.118334902     A.U. after   12 cycles
 SCF Done:  E(RB3LYP) =  -862.119813540     A.U. after   12 cycles
 SCF Done:  E(RB3LYP) =  -862.120578792     A.U. after   12 cycles
 SCF Done:  E(RB3LYP) =  -862.120988949     A.U. after   12 cycles
 SCF Done:  E(RB3LYP) =  -862.121323924     A.U. after   12 cycles
 SCF Done:  E(RB3LYP) =  -862.121817445     A.U. after   12 cycles
 SCF Done:  E(RB3LYP) =  -862.121919292     A.U. after   11 cycles
 SCF Done:  E(RB3LYP) =  -862.121956781     A.U. after   10 cycles
 SCF Done:  E(RB3LYP) =  -862.121971527     A.U. after   10 cycles
 SCF Done:  E(RB3LYP) =  -862.121981764     A.U. after    9 cycles
 SCF Done:  E(RB3LYP) =  -862.121981973     A.U. after    8 cycles
 SCF Done:  E(RB3LYP) =  -862.121982083     A.U. after    7 cycles
 SCF Done:  E(RB3LYP) =  -862.121982169     A.U. after    7 cycles
 SCF Done:  E(RB3LYP) =  -862.121982199     A.U. after    7 cycles
 Optimization completed.
    -- Stationary point found.
 Normal termination of Gaussian 16 at Sat Dec 12 09:43:28 2020.

 --------------------------------------------------------------------
 #N Geom=AllCheck Guess=TCheck SCRF=Check GenChk RB3LYP/6-31G(d) Freq
 --------------------------------------------------------------------

 Structure from the checkpoint file:  "JID_9500.chk"
 -------------------------------
 CID_103355216_JID_9500_neutraal
 -------------------------------
 Charge =  0 Multiplicity = 1

 SCF Done:  E(RB3LYP) =  -862.121982199     A.U. after    1 cycles

  Exact polarizability: 237.743   8.450 190.825   0.019   5.517 114.671
 Approx polarizability: 320.050  11.560 278.475  -0.757   7.829 171.500

                      1                      2                      3
                      A                      A                      A
 Frequencies --     15.1513                30.2628                35.9367
 Red. masses --      4.3015                 3.3303                 2.7473
 Frc consts  --      0.0006                 0.0018                 0.0021
 IR Inten    --      0.3780                 0.3808                 0.6031

                      4                      5                      6
                      A                      A                      A
 Frequencies --     56.6088                66.0192               103.3477
 Red. masses --      4.0413                 3.6171                 3.1244
 Frc consts  --      0.0076                 0.0093                 0.0197
 IR Inten    --      0.1486                 0.8397                 4.8686

                      7                      8                      9
                      A                      A                      A
 Frequencies --    125.8044               135.7241               151.9988
 Red. masses --      3.5900                 3.8891                 3.0591
 Frc consts  --      0.0335                 0.0422                 0.0416
 IR Inten    --      1.7792                 1.2938                 2.3796

                     10                     11                     12
                      A                      A                      A
 Frequencies --    182.6571               206.0890               221.2071
 Red. masses --      2.1910                 2.7965                 1.0968
 Frc consts  --      0.0431                 0.0700                 0.0316
 IR Inten    --      0.5590                 0.2738                 1.7511

                     13                     14                     15
                      A                      A                      A
 Frequencies --    223.0932               240.7162               252.4388
 Red. masses --      1.1266                 1.7998                 1.1874
 Frc consts  --      0.0330                 0.0614                 0.0446
 IR Inten    --     38.7401                 1.5035                 0.3633

                     16                     17                     18
                      A                      A                      A
 Frequencies --    256.0120               259.4586               281.8971
 Red. masses --      2.6545                 2.2798                 2.8049
 Frc consts  --      0.1025                 0.0904                 0.1313
 IR Inten    --      0.2731                 0.3639                13.3738

                     19                     20                     21
                      A                      A                      A
 Frequencies --    300.0174               321.1459               356.3684
 Red. masses --      1.3497                 1.9969                 2.8503
 Frc consts  --      0.0716                 0.1213                 0.2133
 IR Inten    --     69.7502                40.3270                 3.5616

                     22                     23                     24
                      A                      A                      A
 Frequencies --    363.8847               378.2141               409.2632
 Red. masses --      3.6554                 2.5993                 2.6876
 Frc consts  --      0.2852                 0.2191                 0.2652
 IR Inten    --      6.4729                 0.6475                 3.0603

                     25                     26                     27
                      A                      A                      A
 Frequencies --    423.0617               443.9469               456.5714
 Red. masses --      2.8530                 2.4238                 3.1279
 Frc consts  --      0.3009                 0.2815                 0.3842
 IR Inten    --      3.7495                 6.3430                19.0840

                     28                     29                     30
                      A                      A                      A
 Frequencies --    461.3060               496.0941               583.5711
 Red. masses --      3.5203                 3.3098                 3.9752
 Frc consts  --      0.4414                 0.4799                 0.7976
 IR Inten    --      0.8087                 4.8081                 0.9859

                     31                     32                     33
                      A                      A                      A
 Frequencies --    590.3693               619.0280               637.7726
 Red. masses --      4.8398                 4.6237                 6.8965
 Frc consts  --      0.9939                 1.0439                 1.6528
 IR Inten    --     11.8828                 2.3061                 3.8769

                     34                     35                     36
                      A                      A                      A
 Frequencies --    665.0484               723.1789               745.8324
 Red. masses --      4.1253                 2.0258                 3.7838
 Frc consts  --      1.0750                 0.6242                 1.2401
 IR Inten    --      7.2600               240.3908                88.5193

                     37                     38                     39
                      A                      A                      A
 Frequencies --    759.0891               789.4823               794.5886
 Red. masses --      2.3469                 1.6245                 4.2636
 Frc consts  --      0.7968                 0.5966                 1.5860
 IR Inten    --     35.8292                65.4951                 5.5273

                     40                     41                     42
                      A                      A                      A
 Frequencies --    823.6527               857.3156               875.5707
 Red. masses --      3.2849                 3.1273                 1.6845
 Frc consts  --      1.3130                 1.3543                 0.7609
 IR Inten    --     19.4858                 2.6353                 7.7302

                     43                     44                     45
                      A                      A                      A
 Frequencies --    920.4498               927.8339               935.0526
 Red. masses --      1.3025                 1.4111                 2.8230
 Frc consts  --      0.6502                 0.7157                 1.4542
 IR Inten    --      7.1145                 6.6638                 2.6398

                     46                     47                     48
                      A                      A                      A
 Frequencies --    945.1006               955.2671               974.0367
 Red. masses --      1.2717                 1.8420                 1.4978
 Frc consts  --      0.6693                 0.9903                 0.8373
 IR Inten    --      0.7412                 8.0340                 1.9470

                     49                     50                     51
                      A                      A                      A
 Frequencies --    977.8825               985.9967               993.6703
 Red. masses --      1.5502                 1.7657                 1.8510
 Frc consts  --      0.8734                 1.0114                 1.0768
 IR Inten    --      1.2375                 8.2553                 2.5165

                     52                     53                     54
                      A                      A                      A
 Frequencies --   1009.0353              1036.9168              1058.2028
 Red. masses --      2.1568                 1.8091                 4.5971
 Frc consts  --      1.2938                 1.1460                 3.0330
 IR Inten    --     11.9575                10.5408                86.2204

                     55                     56                     57
                      A                      A                      A
 Frequencies --   1085.8208              1114.8508              1142.6406
 Red. masses --      2.5062                 1.8320                 1.6714
 Frc consts  --      1.7409                 1.3415                 1.2858
 IR Inten    --      4.6370                23.8594               104.5878

                     58                     59                     60
                      A                      A                      A
 Frequencies --   1164.0959              1176.5263              1183.0910
 Red. masses --      2.0968                 1.7157                 1.2593
 Frc consts  --      1.6741                 1.3992                 1.0385
 IR Inten    --     13.2337                 7.9780                33.5702

                     61                     62                     63
                      A                      A                      A
 Frequencies --   1188.5862              1201.0502              1213.6600
 Red. masses --      1.6694                 1.8181                 1.3865
 Frc consts  --      1.3896                 1.5452                 1.2033
 IR Inten    --     97.1771                 2.4287                 0.2168

                     64                     65                     66
                      A                      A                      A
 Frequencies --   1214.1843              1250.0172              1259.6953
 Red. masses --      1.4998                 1.6695                 3.7563
 Frc consts  --      1.3028                 1.5369                 3.5119
 IR Inten    --      8.7071                 6.4929                13.6079

                     67                     68                     69
                      A                      A                      A
 Frequencies --   1281.9341              1285.7361              1300.4870
 Red. masses --      2.3867                 1.4286                 1.9293
 Frc consts  --      2.3109                 1.3914                 1.9225
 IR Inten    --    270.2571                59.4451               127.8851

                     70                     71                     72
                      A                      A                      A
 Frequencies --   1309.2776              1334.8530              1346.7912
 Red. masses --      2.0542                 1.5424                 1.3633
 Frc consts  --      2.0747                 1.6193                 1.4569
 IR Inten    --     96.0601                57.0768                 3.5194

                     73                     74                     75
                      A                      A                      A
 Frequencies --   1361.1106              1367.7705              1391.3493
 Red. masses --      1.6326                 1.7555                 1.3822
 Frc consts  --      1.7821                 1.9349                 1.5764
 IR Inten    --     11.2343                 5.1853                 6.5968

                     76                     77                     78
                      A                      A                      A
 Frequencies --   1393.0987              1418.9784              1423.4713
 Red. masses --      2.2033                 1.7510                 1.5809
 Frc consts  --      2.5193                 2.0773                 1.8873
 IR Inten    --     27.9953                53.2289                23.9916

                     79                     80                     81
                      A                      A                      A
 Frequencies --   1429.3401              1436.5723              1448.5781
 Red. masses --      1.3301                 1.2941                 1.4849
 Frc consts  --      1.6011                 1.5735                 1.8359
 IR Inten    --      4.1525                11.9037                39.5041

                     82                     83                     84
                      A                      A                      A
 Frequencies --   1453.9612              1494.1723              1515.5805
 Red. masses --      2.7182                 4.2434                 1.0773
 Frc consts  --      3.3856                 5.5817                 1.4579
 IR Inten    --     57.7238               108.3547                 7.6184

                     85                     86                     87
                      A                      A                      A
 Frequencies --   1519.9180              1520.5081              1525.6797
 Red. masses --      1.0813                 1.0450                 1.0555
 Frc consts  --      1.4718                 1.4235                 1.4476
 IR Inten    --      1.7586                 0.9897                 1.9535

                     88                     89                     90
                      A                      A                      A
 Frequencies --   1527.2997              1533.4436              1534.1750
 Red. masses --      1.3248                 1.1167                 1.4180
 Frc consts  --      1.8207                 1.5472                 1.9664
 IR Inten    --    270.5354                33.6375               247.0296

                     91                     92                     93
                      A                      A                      A
 Frequencies --   1541.0805              1546.2739              1555.4349
 Red. masses --      1.1613                 1.2620                 1.1143
 Frc consts  --      1.6250                 1.7778                 1.5884
 IR Inten    --    115.8910               107.2987                16.0498

                     94                     95                     96
                      A                      A                      A
 Frequencies --   1568.0419              1641.0651              1667.7738
 Red. masses --      1.1780                 5.8354                 1.7282
 Frc consts  --      1.7065                 9.2592                 2.8322
 IR Inten    --      8.6680               135.0545               149.7602

                     97                     98                     99
                      A                      A                      A
 Frequencies --   1689.6719              2991.8807              3021.5723
 Red. masses --      2.2849                 1.0635                 1.0728
 Frc consts  --      3.8435                 5.6088                 5.7710
 IR Inten    --     11.0061                77.9376                41.0813

                    100                    101                    102
                      A                      A                      A
 Frequencies --   3033.3060              3037.5253              3040.2721
 Red. masses --      1.0824                 1.0831                 1.0374
 Frc consts  --      5.8677                 5.8879                 5.6495
 IR Inten    --      5.9583                 7.7467                15.8650

                    103                    104                    105
                      A                      A                      A
 Frequencies --   3043.0734              3043.3328              3050.4708
 Red. masses --      1.0548                 1.0441                 1.0514
 Frc consts  --      5.7551                 5.6978                 5.7641
 IR Inten    --     48.1478                26.3799                41.9638

                    106                    107                    108
                      A                      A                      A
 Frequencies --   3075.7788              3087.9818              3089.1178
 Red. masses --      1.0674                 1.0886                 1.1042
 Frc consts  --      5.9498                 6.1160                 6.2085
 IR Inten    --     13.1469                19.6076                36.4994

                    109                    110                    111
                      A                      A                      A
 Frequencies --   3103.3708              3108.6073              3109.8037
 Red. masses --      1.1007                 1.0960                 1.1009
 Frc consts  --      6.2455                 6.2401                 6.2731
 IR Inten    --     13.2388                23.4447                72.7921

                    112                    113                    114
                      A                      A                      A
 Frequencies --   3117.9318              3127.1452              3133.1742
 Red. masses --      1.1020                 1.1059                 1.1006
 Frc consts  --      6.3117                 6.3719                 6.3655
 IR Inten    --     42.8109                28.8699                34.4041

                    115                    116                    117
                      A                      A                      A
 Frequencies --   3135.6702              3181.0568              3228.6089
 Red. masses --      1.1034                 1.0895                 1.0919
 Frc consts  --      6.3919                 6.4956                 6.7059
 IR Inten    --     31.5414                24.8355                14.2160

                    118                    119                    120
                      A                      A                      A
 Frequencies --   3526.2871              3628.3370              3733.4296
 Red. masses --      1.0483                 1.0961                 1.0660
 Frc consts  --      7.6805                 8.5021                 8.7539
 IR Inten    --      6.0024                13.2774                 9.4453

 - Thermochemistry -
 -------------------
 Temperature   298.150 Kelvin.  Pressure   1.00000 Atm.
 Atom     1 has atomic number  6 and mass  12.00000

 Molecular mass:   265.17903 amu.
 Principal axes and moments of inertia in atomic units:
                           1         2         3
     Eigenvalues --  3093.177629804.44772**********
           X            0.99988  -0.01547  -0.00181
           Y            0.01547   0.99988   0.00250
           Z            0.00177  -0.00253   1.00000
 This molecule is an asymmetric top.
 Rotational symmetry number  1.
 Warning -- assumption of classical behavior for rotation
           may cause significant error
 Rotational temperatures (Kelvin)      0.02800     0.00883     0.00708
 Rotational constants (GHZ):           0.58346     0.18407     0.14749
 Zero-point vibrational energy     960862.2 (Joules/Mol)
                                  229.65159 (Kcal/Mol)
 Warning -- explicit consideration of  32 degrees of freedom as
           vibrations may cause significant error
 Vibrational temperatures:     21.80    43.54    51.70    81.45    94.99
          (Kelvin)            148.69   181.00   195.28   218.69   262.80
                              296.52   318.27   320.98   346.34   363.20
                              368.34   373.30   405.59   431.66   462.06
                              512.73   523.55   544.17   588.84   608.69
                              638.74   656.90   663.72   713.77   839.63
                              849.41   890.64   917.61   956.86  1040.49
                             1073.09  1092.16  1135.89  1143.24  1185.05
                             1233.49  1259.75  1324.32  1334.95  1345.33
                             1359.79  1374.42  1401.42  1406.95  1418.63
                             1429.67  1451.78  1491.89  1522.52  1562.25
                             1604.02  1644.00  1674.87  1692.76  1702.20
                             1710.11  1728.04  1746.19  1746.94  1798.50
                             1812.42  1844.42  1849.89  1871.11  1883.76
                             1920.56  1937.73  1958.33  1967.92  2001.84
                             2004.36  2041.59  2048.06  2056.50  2066.91
                             2084.18  2091.93  2149.78  2180.58  2186.82
                             2187.67  2195.11  2197.44  2206.28  2207.34
                             2217.27  2224.74  2237.92  2256.06  2361.13
                             2399.55  2431.06  4304.65  4347.37  4364.25
                             4370.32  4374.27  4378.30  4378.68  4388.95
                             4425.36  4442.92  4444.55  4465.06  4472.59
                             4474.31  4486.01  4499.26  4507.94  4511.53
                             4576.83  4645.25  5073.54  5220.37  5371.57

 Zero-point correction=                           0.365973 (Hartree/Particle)
 Thermal correction to Energy=                    0.386119
 Thermal correction to Enthalpy=                  0.387063
 Thermal correction to Gibbs Free Energy=         0.315941
 Sum of electronic and zero-point Energies=           -861.756009
 Sum of electronic and thermal Energies=              -861.735863
 Sum of electronic and thermal Enthalpies=            -861.734919
 Sum of electronic and thermal Free Energies=         -861.806042

                     E (Thermal)             CV                S
                      KCal/Mol        Cal/Mol-Kelvin    Cal/Mol-Kelvin
 Total                  242.294             76.276            149.691
 Electronic               0.000              0.000              0.000
 Translational            0.889              2.981             42.625
 Rotational               0.889              2.981             34.272
 Vibrational            240.516             70.314             72.794
 Vibration     1          0.593              1.986              7.186
 Vibration     2          0.594              1.984              5.812
 Vibration     3          0.594              1.982              5.471
 Vibration     4          0.596              1.975              4.572
 Vibration     5          0.597              1.970              4.269
 Vibration     6          0.605              1.947              3.390
 Vibration     7          0.611              1.927              3.009
 Vibration     8          0.614              1.918              2.863
 Vibration     9          0.619              1.900              2.647
 Vibration    10          0.630              1.863              2.301
 Vibration    11          0.641              1.831              2.078
 Vibration    12          0.648              1.809              1.949
 Vibration    13          0.649              1.806              1.934
 Vibration    14          0.658              1.778              1.798
 Vibration    15          0.664              1.759              1.713
 Vibration    16          0.666              1.753              1.689
 Vibration    17          0.668              1.747              1.665
 Vibration    18          0.681              1.707              1.522
 Vibration    19          0.693              1.674              1.417
 Vibration    20          0.707              1.633              1.304
 Vibration    21          0.732              1.562              1.138
 Vibration    22          0.737              1.547              1.105
 Vibration    23          0.748              1.517              1.046
 Vibration    24          0.774              1.450              0.929
 Vibration    25          0.785              1.420              0.882
 Vibration    26          0.803              1.374              0.814
 Vibration    27          0.815              1.346              0.776
 Vibration    28          0.819              1.336              0.762
 Vibration    29          0.852              1.259              0.668
 Vibration    30          0.940              1.067              0.479
 Vibration    31          0.948              1.052              0.467
 Vibration    32          0.979              0.992              0.418

                           ! Non-Optimized Parameters !
 Normal termination of Gaussian 16 at Sat Dec 12 10:01:31 2020.

 ----------------------------------------------------------------------
 # B3LYP/6-311++G(d,p) empiricaldispersion=gd3bj scf=xqc pop=npa geom=c
 heck
 ----------------------------------------------------------------------

 ---------------------------------------
 CID_103355216_JID_9500_Energie_neutraal
 ---------------------------------------
 Structure from the checkpoint file:  "JID_9500.chk"
 Charge =  0 Multiplicity = 1

 SCF Done:  E(RB3LYP) =  -862.374566907     A.U. after   14 cycles
 Normal termination of Gaussian 16 at Sat Dec 12 10:09:10 2020.

 ----------------------------------------------------------------------
 # B3LYP/6-311++G(d,p) empiricaldispersion=gd3bj scf=xqc pop=npa geom=c
 heck
 ----------------------------------------------------------------------

 -------------------------------------
 CID_103355216_JID_9500_Energie_kation
 -------------------------------------
 Structure from the checkpoint file:  "JID_9500.chk"
 Charge =  1 Multiplicity = 2

 SCF Done:  E(UB3LYP) =  -862.140458465     A.U. after   20 cycles
 Normal termination of Gaussian 16 at Sat Dec 12 10:23:46 2020.
 Gaussian 16:  ES64L-G16RevA.03 25-Dec-2016

 ----------------------------------------------------------------------
 # B3LYP/6-311++G(d,p) empiricaldispersion=gd3bj scf=xqc pop=npa geom=c
 heck
 ----------------------------------------------------------------------

 ------------------------------------
 CID_103355216_JID_9500_Energie_anion
 ------------------------------------
 Structure from the checkpoint file:  "JID_9500.chk"
 Charge = -1 Multiplicity = 2

                         Standard orientation:
 ---------------------------------------------------------------------
 Center     Atomic      Atomic             Coordinates (Angstroms)
 Number     Number       Type             X           Y           Z
 ---------------------------------------------------------------------
      1          6           0        4.832193   -1.145445    1.134180
      2          6           0        4.165849   -1.547829   -0.186184
      3          6           0        4.215750   -3.065628   -0.397888
      4          6           0        2.718448   -1.072118   -0.246785
      5          8           0        2.719122    0.358414   -0.181295
      6          6           0        1.509836    0.984235   -0.140998
      7          6           0        1.556351    2.391150   -0.058421
      8          6           0        0.319787    3.030271   -0.013596
      9          6           0       -0.868356    2.299320   -0.043652
     10          6           0       -0.788178    0.899404   -0.122110
     11          7           0        0.402472    0.264573   -0.171832
     12          7           0       -1.899769    0.091766   -0.146439
     13          6           0       -1.817976   -1.348510   -0.384171
     14          6           0       -3.275374   -1.743130   -0.649850
     15          6           0       -4.099093   -0.699841    0.119728
     16          6           0       -3.261053    0.582765   -0.093713
     17          6           0       -4.216031   -1.044776    1.606052
     18          8           0       -5.387931   -0.617242   -0.480802
     19          7           0        2.788965    3.071691   -0.093878
     20          1           0        5.883943   -1.452508    1.152991
     21          1           0        4.327445   -1.624914    1.983037
     22          1           0        4.786855   -0.062955    1.284551
     23          1           0        4.704286   -1.061432   -1.011555
     24          1           0        3.669596   -3.590050    0.396601
     25          1           0        3.771392   -3.353901   -1.357602
     26          1           0        5.249743   -3.426797   -0.382999
     27          1           0        2.229841   -1.390341   -1.175199
     28          1           0        2.132081   -1.477458    0.587124
     29          1           0        0.284189    4.116146    0.035794
     30          1           0       -1.824365    2.807960   -0.024202
     31          1           0       -1.154834   -1.568720   -1.226996
     32          1           0       -1.401062   -1.866682    0.491004
     33          1           0       -3.505368   -2.767598   -0.343502
     34          1           0       -3.517087   -1.641635   -1.713022
     35          1           0       -3.391383    1.303691    0.725195
     36          1           0       -3.574637    1.071466   -1.030147
     37          1           0       -4.780654   -0.269387    2.140581
     38          1           0       -4.734886   -2.000089    1.733842
     39          1           0       -3.228857   -1.113010    2.074856
     40          1           0       -5.933308   -0.034919    0.071270
     41          1           0        3.560495    2.458379    0.143381
     42          1           0        2.802461    3.899972    0.491282
 ---------------------------------------------------------------------

 SCF Done:  E(UB3LYP) =  -862.364941250     A.U. after   33 cycles
 SCF Done:  E(UB3LYP) =  -862.364941250     a.u. after    1 cycles

 The electronic state is 2-A.
 Alpha  occ. eigenvalues --  -19.06561 -19.03289 -14.23424 -14.22535 -14.20794
 Alpha  occ. eigenvalues --  -10.16661 -10.14575 -10.14418 -10.13224 -10.11324
 Alpha  occ. eigenvalues --  -10.10987 -10.10846 -10.09525 -10.09012 -10.08142
 Alpha  occ. eigenvalues --  -10.08104 -10.07498 -10.07492 -10.07240  -0.98831
 Alpha  occ. eigenvalues --   -0.93921  -0.88271  -0.83351  -0.81349  -0.72945
 Alpha  occ. eigenvalues --   -0.70917  -0.69723  -0.65414  -0.64581  -0.61157
 Alpha  occ. eigenvalues --   -0.60569  -0.59626  -0.55062  -0.52992  -0.50409
 Alpha  occ. eigenvalues --   -0.48681  -0.48071  -0.45667  -0.43904  -0.42236
 Alpha  occ. eigenvalues --   -0.41427  -0.40814  -0.40153  -0.37966  -0.37200
 Alpha  occ. eigenvalues --   -0.36508  -0.35836  -0.35176  -0.35044  -0.33331
 Alpha  occ. eigenvalues --   -0.32495  -0.32074  -0.31268  -0.30943  -0.30397
 Alpha  occ. eigenvalues --   -0.29981  -0.29195  -0.28566  -0.27930  -0.27677
 Alpha  occ. eigenvalues --   -0.26425  -0.26135  -0.25793  -0.24689  -0.24419
 Alpha  occ. eigenvalues --   -0.23337  -0.23046  -0.19105  -0.18303  -0.17244
 Alpha  occ. eigenvalues --   -0.16200  -0.08705   0.03664
 Alpha virt. eigenvalues --    0.04929   0.05559   0.06923   0.07225   0.07399
 Alpha virt. eigenvalues --    0.07735   0.08157   0.08390   0.08668   0.09649
 Alpha virt. eigenvalues --    0.10015   0.10137   0.10307   0.10847   0.11101

  Beta  occ. eigenvalues --  -19.06556 -19.03251 -14.23422 -14.22515 -14.20793
  Beta  occ. eigenvalues --  -10.16660 -10.14575 -10.14419 -10.13217 -10.11323
  Beta  occ. eigenvalues --  -10.10975 -10.10824 -10.09519 -10.09004 -10.08120
  Beta  occ. eigenvalues --  -10.08091 -10.07486 -10.07477 -10.07200  -0.98824
  Beta  occ. eigenvalues --   -0.93847  -0.88261  -0.83336  -0.81327  -0.72928
  Beta  occ. eigenvalues --   -0.70897  -0.69707  -0.65379  -0.64559  -0.61119
  Beta  occ. eigenvalues --   -0.60526  -0.59587  -0.55032  -0.52967  -0.50386
  Beta  occ. eigenvalues --   -0.48633  -0.48022  -0.45640  -0.43878  -0.42199
  Beta  occ. eigenvalues --   -0.41395  -0.40782  -0.40132  -0.37932  -0.37178
  Beta  occ. eigenvalues --   -0.36487  -0.35814  -0.35149  -0.35017  -0.33308
  Beta  occ. eigenvalues --   -0.32471  -0.32043  -0.31247  -0.30923  -0.30374
  Beta  occ. eigenvalues --   -0.29961  -0.29171  -0.28539  -0.27899  -0.27644
  Beta  occ. eigenvalues --   -0.26396  -0.26111  -0.25766  -0.24674  -0.24399
  Beta  occ. eigenvalues --   -0.23323  -0.23007  -0.19071  -0.18295  -0.17234
  Beta  occ. eigenvalues --   -0.16189  -0.08691
  Beta virt. eigenvalues --    0.05373   0.06069   0.06171   0.07290   0.07501
  Beta virt. eigenvalues --    0.07631   0.07855   0.08370   0.08800   0.08899
  Beta virt. eigenvalues --    0.09931   0.10192   0.10405   0.10549   0.10884

 Mulliken charges and spin densities:
               1          2
     1  C    0.267052  -0.792183
     2  C   -1.541703   1.752595
     3  C    0.279623  -0.919140
     4  C    0.612454  -1.144674
     5  O   -0.066305   0.004052
     6  C    0.181972  -0.257067
     7  C   -0.042552   0.108813
     8  C   -0.443547   0.237159
     9  C    0.255498  -0.184411
    10  C   -0.178916  -0.132414
    11  N   -0.187424   0.021574
    12  N    0.218060   0.009835
    13  C   -0.316904   0.245203
    14  C    1.038486  -1.489030
    15  C   -1.399485   1.196385
    16  C    0.599023  -0.837012
    17  C    0.873883  -1.406787
    18  O   -0.177353  -0.006817
    19  N   -0.391356  -0.008940
    20  H   -0.147031   0.292488
    21  H   -0.039514   0.170774
    22  H   -0.012423   0.146686
    23  H    0.065010   0.093380
    24  H    0.010312   0.123671
    25  H   -0.077657   0.202314
    26  H   -0.192728   0.355966
    27  H    0.183519   0.016614
    28  H    0.250120  -0.023662
    29  H   -0.133042   0.304836
    30  H   -0.141816   0.277474
    31  H    0.210686  -0.031973
    32  H   -0.018172   0.176889
    33  H   -0.059869   0.221383
    34  H    0.142720   0.045686
    35  H   -0.085466   0.261028
    36  H    0.041349   0.157170
    37  H   -0.437522   0.590683
    38  H    0.000406   0.169042
    39  H   -0.087392   0.250673
    40  H   -0.223895   0.485338
    41  H    0.186545   0.070207
    42  H   -0.014646   0.246192
 Sum of Mulliken charges =  -1.00000   1.00000

 Dipole moment (field-independent basis, Debye):
    X=              3.5043    Y=             -0.2557    Z=             -1.5310  Tot=              3.8327
 Quadrupole moment (field-independent basis, Debye-Ang):
   XX=           -244.7626   YY=           -165.0131   ZZ=           -148.6951
   XY=              7.5092   XZ=              5.3076   YZ=              1.0694

 Summary of Natural Population Analysis:

                                       Natural Population
                Natural  -----------------------------------------------
    Atom  No    Charge         Core      Valence    Rydberg      Total
 -----------------------------------------------------------------------
      C    1   -0.28481      0.99965     2.28001    0.00515     3.28481
      C    2   -0.12377      0.99961     2.11505    0.00911     3.12377
      C    3   -0.28373      0.99965     2.27923    0.00485     3.28373
      C    4   -0.00833      0.99952     1.99758    0.01123     3.00833
      O    5   -0.28494      0.99985     3.27683    0.00827     4.28494
      C    6    0.26479      0.99942     1.72093    0.01486     2.73521
      C    7    0.02442      0.99944     1.96475    0.01138     2.97558
      C    8   -0.09406      0.99954     2.08505    0.00946     3.09406
      C    9   -0.15421      0.99954     2.14640    0.00827     3.15421
      C   10    0.20437      0.99953     1.78308    0.01302     2.79563
      N   11   -0.28069      0.99963     2.77300    0.00807     3.78069
      N   12   -0.25202      0.99964     2.74289    0.00949     3.75202
      C   13   -0.07749      0.99963     2.06893    0.00893     3.07749
      C   14   -0.19681      0.99958     2.18875    0.00848     3.19681
      C   15    0.12581      0.99951     1.85794    0.01674     2.87419
      C   16   -0.08958      0.99957     2.07804    0.01197     3.08958
      C   17   -0.29823      0.99961     2.29141    0.00721     3.29823
      O   18   -0.37370      0.99988     3.36699    0.00682     4.37370
      N   19   -0.40443      0.99973     2.89367    0.01104     3.90443
      H   20    0.09788      0.00000     0.40098    0.00114     0.40212
      H   21    0.09577      0.00000     0.40307    0.00116     0.40423
      H   22    0.10394      0.00000     0.39459    0.00147     0.39606
      H   23    0.09530      0.00000     0.40309    0.00161     0.40470
      H   24    0.09712      0.00000     0.40163    0.00125     0.40288
      H   25    0.09904      0.00000     0.39972    0.00124     0.40096
      H   26    0.10062      0.00000     0.39828    0.00110     0.39938
      H   27    0.09073      0.00000     0.40750    0.00177     0.40927
      H   28    0.09093      0.00000     0.40726    0.00181     0.40907
      H   29    0.09966      0.00000     0.39944    0.00090     0.40034
      H   30    0.10669      0.00000     0.39219    0.00112     0.39331
      H   31    0.10043      0.00000     0.39791    0.00166     0.39957
      H   32    0.09276      0.00000     0.40550    0.00174     0.40724
      H   33    0.10353      0.00000     0.39555    0.00092     0.39647
      H   34    0.10449      0.00000     0.39421    0.00130     0.39551
      H   35    0.09925      0.00000     0.39886    0.00189     0.40075
      H   36    0.09528      0.00000     0.40327    0.00145     0.40472
      H   37    0.10284      0.00000     0.39523    0.00193     0.39716
      H   38    0.10272      0.00000     0.39626    0.00102     0.39728
      H   39    0.10501      0.00000     0.39362    0.00137     0.39499
      H   40    0.23239      0.00000     0.26188    0.00573     0.26761
      H   41    0.19003      0.00000     0.30789    0.00209     0.30997
      H   42    0.18100      0.00000     0.31731    0.00169     0.31900
 =======================================================================
   * Total *   -0.00000     18.99255    52.78577    0.22168    72.00000

 Normal termination of Gaussian 16 at Sat Dec 12 10:48:17 2020.
