 Gaussian 16, Revision A.03,

 -----------------------------------------------------------
 # opt freq B3LYP/6-31G(d) empiricaldispersion=gd3bj scf=xqc
 -----------------------------------------------------------

 -------------------------------
 CID_102422531_JID_1223_neutraal
 -------------------------------
 Symbolic Z-matrix:
 Charge =  0 Multiplicity = 1

 SCF Done:  E(RB3LYP) =  -822.196584917     A.U. after   16 cycles
 SCF Done:  E(RB3LYP) =  -822.206611545     A.U. after   13 cycles
 SCF Done:  E(RB3LYP) =  -822.207989308     A.U. after   13 cycles
 SCF Done:  E(RB3LYP) =  -822.210285788     A.U. after   13 cycles
 SCF Done:  E(RB3LYP) =  -822.211522582     A.U. after   13 cycles
 SCF Done:  E(RB3LYP) =  -822.212300781     A.U. after   12 cycles
 SCF Done:  E(RB3LYP) =  -822.212535040     A.U. after   13 cycles
 SCF Done:  E(RB3LYP) =  -822.212695157     A.U. after   12 cycles
 SCF Done:  E(RB3LYP) =  -822.212711262     A.U. after   11 cycles
 SCF Done:  E(RB3LYP) =  -822.212747840     A.U. after   11 cycles
 SCF Done:  E(RB3LYP) =  -822.212756043     A.U. after   11 cycles
 SCF Done:  E(RB3LYP) =  -822.212761044     A.U. after   10 cycles
 SCF Done:  E(RB3LYP) =  -822.212762126     A.U. after    9 cycles
 SCF Done:  E(RB3LYP) =  -822.212762231     A.U. after    7 cycles
 Optimization completed.
    -- Stationary point found.
 Normal termination of Gaussian 16 at Tue Dec  8 19:32:10 2020.

 --------------------------------------------------------------------
 #N Geom=AllCheck Guess=TCheck SCRF=Check GenChk RB3LYP/6-31G(d) Freq
 --------------------------------------------------------------------

 Structure from the checkpoint file:  "JID_1223.chk"
 -------------------------------
 CID_102422531_JID_1223_neutraal
 -------------------------------
 Charge =  0 Multiplicity = 1

 SCF Done:  E(RB3LYP) =  -822.212762231     A.U. after    1 cycles

  Exact polarizability: 128.144 -18.829 117.917   7.172  -7.565  97.236
 Approx polarizability: 182.004 -51.586 196.845  18.859 -29.614 145.409

                      1                      2                      3
                      A                      A                      A
 Frequencies --     39.8808                59.0020                77.3547
 Red. masses --      4.9651                 6.6592                 4.2978
 Frc consts  --      0.0047                 0.0137                 0.0152
 IR Inten    --      0.2243                 0.0248                 0.5478

                      4                      5                      6
                      A                      A                      A
 Frequencies --     95.8897               105.1109               147.8670
 Red. masses --      2.3966                 2.0524                 4.0431
 Frc consts  --      0.0130                 0.0134                 0.0521
 IR Inten    --      0.2344                 0.4891                 3.2247

                      7                      8                      9
                      A                      A                      A
 Frequencies --    185.5723               236.5684               240.7040
 Red. masses --      1.9857                 1.6958                 1.4918
 Frc consts  --      0.0403                 0.0559                 0.0509
 IR Inten    --      5.8400                 2.6456                 1.4110

                     10                     11                     12
                      A                      A                      A
 Frequencies --    250.1517               273.6656               302.2671
 Red. masses --      1.2008                 1.5618                 1.6155
 Frc consts  --      0.0443                 0.0689                 0.0870
 IR Inten    --      0.8953                 0.3017                 0.6032

                     13                     14                     15
                      A                      A                      A
 Frequencies --    331.6542               358.7089               402.2050
 Red. masses --      2.8055                 2.7938                 3.7681
 Frc consts  --      0.1818                 0.2118                 0.3591
 IR Inten    --      2.5840                 5.6185                 4.6776

                     16                     17                     18
                      A                      A                      A
 Frequencies --    445.0387               468.2249               510.4336
 Red. masses --      2.2074                11.6095                 3.2833
 Frc consts  --      0.2576                 1.4996                 0.5040
 IR Inten    --      0.6634                 3.6509                12.9320

                     19                     20                     21
                      A                      A                      A
 Frequencies --    552.0605               589.9922               711.8424
 Red. masses --      4.4519                 2.9911                 3.1615
 Frc consts  --      0.7994                 0.6134                 0.9439
 IR Inten    --     28.1147                19.5261                29.4853

                     22                     23                     24
                      A                      A                      A
 Frequencies --    742.0369               795.9559               812.2209
 Red. masses --      4.8856                 1.1315                 1.1532
 Frc consts  --      1.5850                 0.4224                 0.4482
 IR Inten    --     17.2308                 3.0374                 2.5009

                     25                     26                     27
                      A                      A                      A
 Frequencies --    883.2516               921.0725               933.1775
 Red. masses --      2.0027                 1.5814                 1.8603
 Frc consts  --      0.9205                 0.7905                 0.9545
 IR Inten    --      3.0607                 2.8004                 2.9761

                     28                     29                     30
                      A                      A                      A
 Frequencies --    951.3349              1047.4517              1083.0458
 Red. masses --      1.8135                 3.1218                 2.1636
 Frc consts  --      0.9670                 2.0180                 1.4953
 IR Inten    --      3.0856                11.4009                 2.5801

                     31                     32                     33
                      A                      A                      A
 Frequencies --   1096.8861              1119.1223              1125.9335
 Red. masses --      2.6194                 1.6912                 1.9960
 Frc consts  --      1.8568                 1.2480                 1.4909
 IR Inten    --      7.7236                 3.8172                18.9414

                     34                     35                     36
                      A                      A                      A
 Frequencies --   1133.3863              1149.3300              1172.6442
 Red. masses --      1.7878                 4.5872                 2.1172
 Frc consts  --      1.3530                 3.5702                 1.7153
 IR Inten    --     18.5624                 3.3830                25.1704

                     37                     38                     39
                      A                      A                      A
 Frequencies --   1236.6860              1255.9894              1290.7630
 Red. masses --      1.9665                 2.1138                 1.3098
 Frc consts  --      1.7720                 1.9647                 1.2857
 IR Inten    --     29.1615                26.5337                18.7334

                     40                     41                     42
                      A                      A                      A
 Frequencies --   1333.5706              1350.2706              1375.3116
 Red. masses --      1.1926                 1.1769                 1.2927
 Frc consts  --      1.2497                 1.2643                 1.4406
 IR Inten    --      7.7553                 2.0200                30.8771

                     43                     44                     45
                      A                      A                      A
 Frequencies --   1388.1791              1406.5420              1418.3473
 Red. masses --      1.3631                 1.2922                 1.2333
 Frc consts  --      1.5476                 1.5062                 1.4618
 IR Inten    --     17.2720                19.3446                 0.5515

                     46                     47                     48
                      A                      A                      A
 Frequencies --   1434.4568              1438.0048              1443.3306
 Red. masses --      1.2580                 1.2216                 1.2645
 Frc consts  --      1.5251                 1.4883                 1.5520
 IR Inten    --     11.7111                 8.4514                 8.0021

                     49                     50                     51
                      A                      A                      A
 Frequencies --   1459.5238              1513.0765              1516.0036
 Red. masses --      1.3266                 1.0680                 1.0587
 Frc consts  --      1.6650                 1.4406                 1.4335
 IR Inten    --     16.7789                 4.7201                 5.8521

                     52                     53                     54
                      A                      A                      A
 Frequencies --   1520.7059              1523.0264              1529.2751
 Red. masses --      1.0542                 1.0515                 1.0519
 Frc consts  --      1.4364                 1.4371                 1.4494
 IR Inten    --     13.1524                 6.7626                 0.8347

                     55                     56                     57
                      A                      A                      A
 Frequencies --   1531.6516              1535.8155              1540.5383
 Red. masses --      1.0502                 1.0549                 1.0573
 Frc consts  --      1.4516                 1.4660                 1.4784
 IR Inten    --      1.2855                 0.9066                 4.4683

                     58                     59                     60
                      A                      A                      A
 Frequencies --   1554.8333              2108.4435              2972.8772
 Red. masses --      1.0930                11.9263                 1.0728
 Frc consts  --      1.5568                31.2377                 5.5865
 IR Inten    --      2.1244               820.4026                68.6908

                     61                     62                     63
                      A                      A                      A
 Frequencies --   3047.9424              3053.4046              3056.5527
 Red. masses --      1.0356                 1.0650                 1.0405
 Frc consts  --      5.6685                 5.8502                 5.7272
 IR Inten    --     18.9385                16.5379                14.4733

                     64                     65                     66
                      A                      A                      A
 Frequencies --   3058.5712              3062.6544              3070.6704
 Red. masses --      1.0385                 1.0745                 1.0593
 Frc consts  --      5.7238                 5.9383                 5.8851
 IR Inten    --     12.4622                 2.2475                62.0626

                     67                     68                     69
                      A                      A                      A
 Frequencies --   3081.3353              3090.1434              3105.8051
 Red. masses --      1.0894                 1.1021                 1.1050
 Frc consts  --      6.0942                 6.2008                 6.2800
 IR Inten    --      9.9233                 3.6063                27.7069

                     70                     71                     72
                      A                      A                      A
 Frequencies --   3114.8720              3120.8325              3123.0952
 Red. masses --      1.1018                 1.1013                 1.1024
 Frc consts  --      6.2986                 6.3194                 6.3351
 IR Inten    --     44.3917                22.1100                91.4624

                     73                     74                     75
                      A                      A                      A
 Frequencies --   3125.9138              3138.6309              3140.4746
 Red. masses --      1.1006                 1.1027                 1.1028
 Frc consts  --      6.3360                 6.4000                 6.4084
 IR Inten    --      8.8817                20.9342                26.0101

 - Thermochemistry -
 -------------------
 Temperature   298.150 Kelvin.  Pressure   1.00000 Atm.
 Atom     1 has atomic number  6 and mass  12.00000

 Molecular mass:   172.10342 amu.
 Principal axes and moments of inertia in atomic units:
                           1         2         3
     Eigenvalues --  1611.987182626.192553005.80658
           X            0.99978   0.01803   0.01035
           Y           -0.01850   0.99870   0.04754
           Z           -0.00948  -0.04773   0.99882
 This molecule is an asymmetric top.
 Rotational symmetry number  1.
 Warning -- assumption of classical behavior for rotation
           may cause significant error
 Rotational temperatures (Kelvin)      0.05373     0.03298     0.02882
 Rotational constants (GHZ):           1.11958     0.68721     0.60042
 Zero-point vibrational energy     624565.3 (Joules/Mol)
                                  149.27469 (Kcal/Mol)
 Warning -- explicit consideration of  20 degrees of freedom as
           vibrations may cause significant error
 Vibrational temperatures:     57.38    84.89   111.30   137.96   151.23
          (Kelvin)            212.75   267.00   340.37   346.32   359.91
                              393.74   434.89   477.18   516.10   578.68
                              640.31   673.67   734.40   794.29   848.87
                             1024.18  1067.63  1145.20  1168.60  1270.80
                             1325.22  1342.63  1368.76  1507.05  1558.26
                             1578.17  1610.17  1619.97  1630.69  1653.63
                             1687.17  1779.32  1807.09  1857.12  1918.71
                             1942.74  1978.77  1997.28  2023.70  2040.69
                             2063.86  2068.97  2076.63  2099.93  2176.98
                             2181.19  2187.96  2191.30  2200.29  2203.71
                             2209.70  2216.49  2237.06  3033.58  4277.31
                             4385.31  4393.17  4397.70  4400.60  4406.48
                             4418.01  4433.35  4446.03  4468.56  4481.61
                             4490.18  4493.44  4497.49  4515.79  4518.44

 Zero-point correction=                           0.237884 (Hartree/Particle)
 Thermal correction to Energy=                    0.251258
 Thermal correction to Enthalpy=                  0.252203
 Thermal correction to Gibbs Free Energy=         0.197557
 Sum of electronic and zero-point Energies=           -821.974878
 Sum of electronic and thermal Energies=              -821.961504
 Sum of electronic and thermal Enthalpies=            -821.960560
 Sum of electronic and thermal Free Energies=         -822.015205

                     E (Thermal)             CV                S
                      KCal/Mol        Cal/Mol-Kelvin    Cal/Mol-Kelvin
 Total                  157.667             48.052            115.011
 Electronic               0.000              0.000              0.000
 Translational            0.889              2.981             41.336
 Rotational               0.889              2.981             30.921
 Vibrational            155.890             42.090             42.754
 Vibration     1          0.594              1.981              5.265
 Vibration     2          0.596              1.974              4.490
 Vibration     3          0.599              1.964              3.957
 Vibration     4          0.603              1.952              3.536
 Vibration     5          0.605              1.945              3.357
 Vibration     6          0.617              1.905              2.699
 Vibration     7          0.632              1.860              2.272
 Vibration     8          0.655              1.785              1.829
 Vibration     9          0.658              1.778              1.798
 Vibration    10          0.663              1.763              1.730
 Vibration    11          0.676              1.722              1.573
 Vibration    12          0.694              1.669              1.404
 Vibration    13          0.714              1.612              1.252
 Vibration    14          0.734              1.557              1.128
 Vibration    15          0.768              1.465              0.955
 Vibration    16          0.804              1.372              0.811
 Vibration    17          0.825              1.321              0.743
 Vibration    18          0.866              1.227              0.633
 Vibration    19          0.907              1.135              0.540
 Vibration    20          0.947              1.053              0.467

                           ! Non-Optimized Parameters !
 Normal termination of Gaussian 16 at Tue Dec  8 19:39:04 2020.

 ----------------------------------------------------------------------
 # B3LYP/6-311++G(d,p) empiricaldispersion=gd3bj scf=xqc pop=npa geom=c
 heck
 ----------------------------------------------------------------------

 ---------------------------------------
 CID_102422531_JID_1223_Energie_neutraal
 ---------------------------------------
 Structure from the checkpoint file:  "JID_1223.chk"
 Charge =  0 Multiplicity = 1

 SCF Done:  E(RB3LYP) =  -822.356094504     A.U. after   15 cycles
 Normal termination of Gaussian 16 at Tue Dec  8 19:42:26 2020.

 ----------------------------------------------------------------------
 # B3LYP/6-311++G(d,p) empiricaldispersion=gd3bj scf=xqc pop=npa geom=c
 heck
 ----------------------------------------------------------------------

 -------------------------------------
 CID_102422531_JID_1223_Energie_kation
 -------------------------------------
 Structure from the checkpoint file:  "JID_1223.chk"
 Charge =  1 Multiplicity = 2

 SCF Done:  E(UB3LYP) =  -822.071990015     A.U. after   24 cycles
 Normal termination of Gaussian 16 at Tue Dec  8 19:50:04 2020.
 Gaussian 16:  ES64L-G16RevA.03 25-Dec-2016

 ----------------------------------------------------------------------
 # B3LYP/6-311++G(d,p) empiricaldispersion=gd3bj scf=xqc pop=npa geom=c
 heck
 ----------------------------------------------------------------------

 ------------------------------------
 CID_102422531_JID_1223_Energie_anion
 ------------------------------------
 Structure from the checkpoint file:  "JID_1223.chk"
 Charge = -1 Multiplicity = 2

                         Standard orientation:
 ---------------------------------------------------------------------
 Center     Atomic      Atomic             Coordinates (Angstroms)
 Number     Number       Type             X           Y           Z
 ---------------------------------------------------------------------
      1          6           0       -0.406337    0.906809    2.307580
      2          6           0       -1.056296   -0.241053    1.531948
      3          7           0       -0.616635   -0.350063    0.142885
      4          6           0       -0.653133   -1.710561   -0.392000
      5          6           0       -2.049074   -2.313401   -0.602100
      6          6           0       -0.992127    0.697414   -0.798654
      7          6           0       -2.388229    1.310920   -0.611484
      8          6           0        0.066786    1.835301   -0.837148
      9          7           0        1.406626    1.322206   -0.881272
     10          6           0        1.999736    0.378234   -0.428100
     11         16           0        2.982154   -0.770979    0.073109
     12          1           0        0.682702    0.867524    2.208309
     13          1           0       -0.661605    0.827011    3.370243
     14          1           0       -0.750340    1.888447    1.966935
     15          1           0       -0.770760   -1.180742    2.016378
     16          1           0       -2.153710   -0.170317    1.625826
     17          1           0       -0.103437   -1.711076   -1.339893
     18          1           0       -0.073908   -2.344252    0.289610
     19          1           0       -2.625732   -1.739114   -1.336378
     20          1           0       -1.970699   -3.342576   -0.971261
     21          1           0       -2.619698   -2.335411    0.332964
     22          1           0       -0.962656    0.235211   -1.791583
     23          1           0       -2.480247    1.831824    0.346952
     24          1           0       -2.593921    2.037709   -1.405311
     25          1           0       -3.161018    0.537980   -0.651244
     26          1           0       -0.102542    2.458788   -1.721076
     27          1           0       -0.024786    2.487669    0.038239
 ---------------------------------------------------------------------

 SCF Done:  E(UB3LYP) =  -822.344075447     A.U. after   30 cycles

 The electronic state is 2-A.
 Alpha  occ. eigenvalues --  -88.73004 -14.23253 -14.20133 -10.15846 -10.11350
 Alpha  occ. eigenvalues --  -10.10548 -10.09346 -10.09156 -10.06020 -10.05607
 Alpha  occ. eigenvalues --  -10.05551  -7.81751  -5.78146  -5.77480  -5.77402
 Alpha  occ. eigenvalues --   -0.85743  -0.82058  -0.69514  -0.66329  -0.66044
 Alpha  occ. eigenvalues --   -0.61596  -0.60089  -0.53686  -0.52144  -0.46070
 Alpha  occ. eigenvalues --   -0.42613  -0.39352  -0.37823  -0.35294  -0.34750
 Alpha  occ. eigenvalues --   -0.33978  -0.32966  -0.31721  -0.30564  -0.29537
 Alpha  occ. eigenvalues --   -0.28818  -0.28490  -0.27509  -0.26370  -0.26029
 Alpha  occ. eigenvalues --   -0.25384  -0.23708  -0.23495  -0.22933  -0.15234
 Alpha  occ. eigenvalues --   -0.13956  -0.10944   0.04513
 Alpha virt. eigenvalues --    0.06885   0.07345   0.07696   0.08486   0.09514
 Alpha virt. eigenvalues --    0.09934   0.10275   0.10433   0.11027   0.11370
 Alpha virt. eigenvalues --    0.12340   0.13235   0.13306   0.13656   0.13928

  Beta  occ. eigenvalues --  -88.73000 -14.23246 -14.20131 -10.15740 -10.11291
  Beta  occ. eigenvalues --  -10.10531 -10.09327 -10.09148 -10.05994 -10.05549
  Beta  occ. eigenvalues --  -10.05512  -7.81747  -5.78148  -5.77464  -5.77400
  Beta  occ. eigenvalues --   -0.85659  -0.82024  -0.69418  -0.66295  -0.65979
  Beta  occ. eigenvalues --   -0.61538  -0.59985  -0.53607  -0.52070  -0.46004
  Beta  occ. eigenvalues --   -0.42532  -0.39304  -0.37762  -0.35216  -0.34692
  Beta  occ. eigenvalues --   -0.33926  -0.32857  -0.31662  -0.30512  -0.29478
  Beta  occ. eigenvalues --   -0.28751  -0.28424  -0.27453  -0.26253  -0.25977
  Beta  occ. eigenvalues --   -0.25273  -0.23663  -0.23413  -0.22874  -0.15108
  Beta  occ. eigenvalues --   -0.13939  -0.10911
  Beta virt. eigenvalues --    0.06953   0.07602   0.07967   0.08683   0.09010
  Beta virt. eigenvalues --    0.09989   0.10440   0.10517   0.10674   0.11528
  Beta virt. eigenvalues --    0.11798   0.12755   0.13511   0.13722   0.14041

 Mulliken charges and spin densities:
               1          2
     1  C    0.444687  -0.920843
     2  C   -0.091618  -0.208011
     3  N    0.292072  -0.041669
     4  C   -0.687325   0.685027
     5  C    0.892383  -1.481201
     6  C   -2.827320   2.581880
     7  C    2.210755  -2.766140
     8  C    1.758706  -2.208887
     9  N   -0.044121   0.141757
    10  C   -0.005575   0.135409
    11  S   -0.480550   0.166146
    12  H    0.105775   0.028218
    13  H   -0.101884   0.235037
    14  H   -0.029006   0.167576
    15  H    0.135266   0.018043
    16  H   -0.140143   0.280645
    17  H    0.031918   0.117466
    18  H    0.152872  -0.031495
    19  H   -0.275688   0.428501
    20  H   -0.261967   0.399838
    21  H   -0.288734   0.438529
    22  H   -0.301487   0.487682
    23  H   -0.314455   0.466268
    24  H   -0.601449   0.754547
    25  H   -0.186916   0.350750
    26  H   -0.277219   0.476002
    27  H   -0.108976   0.298923
 Sum of Mulliken charges =  -1.00000   1.00000

 Dipole moment (field-independent basis, Debye):
    X=              4.5343    Y=             -1.8796    Z=              2.6192  Tot=              5.5636
 Quadrupole moment (field-independent basis, Debye-Ang):
   XX=           -139.7598   YY=           -120.5452   ZZ=           -114.1155
   XY=              2.1121   XZ=             -4.1579   YZ=              2.3217

 Summary of Natural Population Analysis:

                                       Natural Population
                Natural  -----------------------------------------------
    Atom  No    Charge         Core      Valence    Rydberg      Total
 -----------------------------------------------------------------------
      C    1   -0.29034      0.99966     2.28542    0.00526     3.29034
      C    2   -0.08314      0.99961     2.07246    0.01108     3.08314
      N    3   -0.28741      0.99970     2.77179    0.01592     3.78741
      C    4   -0.07648      0.99962     2.06565    0.01121     3.07648
      C    5   -0.29681      0.99966     2.29237    0.00478     3.29681
      C    6   -0.00670      0.99958     1.99211    0.01501     3.00670
      C    7   -0.29556      0.99963     2.28968    0.00624     3.29556
      C    8   -0.09026      0.99954     2.07839    0.01233     3.09026
      N    9   -0.23005      0.99948     2.71710    0.01346     3.73005
      C   10    0.13443      0.99951     1.85038    0.01568     2.86557
      S   11   -0.04994      4.99944     3.03455    0.01595     8.04994
      H   12    0.10179      0.00000     0.39701    0.00121     0.39821
      H   13    0.09820      0.00000     0.40101    0.00079     0.40180
      H   14    0.09555      0.00000     0.40298    0.00147     0.40445
      H   15    0.09419      0.00000     0.40459    0.00122     0.40581
      H   16    0.08606      0.00000     0.41244    0.00149     0.41394
      H   17    0.09426      0.00000     0.40454    0.00120     0.40574
      H   18    0.09274      0.00000     0.40609    0.00117     0.40726
      H   19    0.09964      0.00000     0.39889    0.00148     0.40036
      H   20    0.09787      0.00000     0.40101    0.00111     0.40213
      H   21    0.09760      0.00000     0.40122    0.00118     0.40240
      H   22    0.09828      0.00000     0.39933    0.00239     0.40172
      H   23    0.09980      0.00000     0.39866    0.00155     0.40020
      H   24    0.10658      0.00000     0.39118    0.00224     0.39342
      H   25    0.10726      0.00000     0.39058    0.00217     0.39274
      H   26    0.10280      0.00000     0.39532    0.00188     0.39720
      H   27    0.09963      0.00000     0.39875    0.00163     0.40037
 =======================================================================
   * Total *    0.00000     14.99541    31.85347    0.15112    47.00000

 Normal termination of Gaussian 16 at Tue Dec  8 19:59:48 2020.
