 Gaussian 16, Revision A.03,

 -----------------------------------------------------------
 # opt freq B3LYP/6-31G(d) empiricaldispersion=gd3bj scf=xqc
 -----------------------------------------------------------

 -------------------------------
 CID_114179046_JID_7496_neutraal
 -------------------------------
 Symbolic Z-matrix:
 Charge =  0 Multiplicity = 1

 SCF Done:  E(RB3LYP) =  -1107.69045767     A.U. after   15 cycles
 SCF Done:  E(RB3LYP) =  -1107.69777968     A.U. after   13 cycles
 SCF Done:  E(RB3LYP) =  -1107.69883783     A.U. after   12 cycles
 SCF Done:  E(RB3LYP) =  -1107.69908417     A.U. after   12 cycles
 SCF Done:  E(RB3LYP) =  -1107.69925343     A.U. after   12 cycles
 SCF Done:  E(RB3LYP) =  -1107.69937498     A.U. after   11 cycles
 SCF Done:  E(RB3LYP) =  -1107.69940022     A.U. after   12 cycles
 SCF Done:  E(RB3LYP) =  -1107.69944708     A.U. after   10 cycles
 SCF Done:  E(RB3LYP) =  -1107.69946188     A.U. after   10 cycles
 SCF Done:  E(RB3LYP) =  -1107.69946829     A.U. after   10 cycles
 SCF Done:  E(RB3LYP) =  -1107.69947539     A.U. after    7 cycles
 SCF Done:  E(RB3LYP) =  -1107.69947541     A.U. after    7 cycles
 SCF Done:  E(RB3LYP) =  -1107.69947542     A.U. after    7 cycles
 SCF Done:  E(RB3LYP) =  -1107.69947544     A.U. after    7 cycles
 SCF Done:  E(RB3LYP) =  -1107.69947545     A.U. after    6 cycles
 Optimization completed.
    -- Stationary point found.
 Normal termination of Gaussian 16 at Mon Dec 14 16:47:53 2020.

 --------------------------------------------------------------------
 #N Geom=AllCheck Guess=TCheck SCRF=Check GenChk RB3LYP/6-31G(d) Freq
 --------------------------------------------------------------------

 Structure from the checkpoint file:  "JID_7496.chk"
 -------------------------------
 CID_114179046_JID_7496_neutraal
 -------------------------------
 Charge =  0 Multiplicity = 1

 SCF Done:  E(RB3LYP) =  -1107.69947545     A.U. after    1 cycles

  Exact polarizability: 225.068   7.593 156.299   4.973   5.891 116.583
 Approx polarizability: 271.729  15.860 247.723  15.810  17.257 189.945

                      1                      2                      3
                      A                      A                      A
 Frequencies --     24.8451                38.0995                44.8962
 Red. masses --      4.0672                 3.5975                 4.1729
 Frc consts  --      0.0015                 0.0031                 0.0050
 IR Inten    --      8.6825                 1.4335                 2.1726

                      4                      5                      6
                      A                      A                      A
 Frequencies --     57.7353                78.8208               114.3512
 Red. masses --      5.5401                 6.1928                 3.8132
 Frc consts  --      0.0109                 0.0227                 0.0294
 IR Inten    --      2.4439                 0.4266                 1.8307

                      7                      8                      9
                      A                      A                      A
 Frequencies --    131.2833               177.1613               185.2612
 Red. masses --      3.6359                 4.2031                 2.9992
 Frc consts  --      0.0369                 0.0777                 0.0606
 IR Inten    --      3.4387                 4.9985                 1.0853

                     10                     11                     12
                      A                      A                      A
 Frequencies --    189.1608               209.8002               247.7261
 Red. masses --      1.2647                 2.4628                 3.6351
 Frc consts  --      0.0267                 0.0639                 0.1314
 IR Inten    --    213.7652                 1.6453                 5.1261

                     13                     14                     15
                      A                      A                      A
 Frequencies --    252.5749               297.6270               318.3818
 Red. masses --      1.0842                 3.5794                 2.2373
 Frc consts  --      0.0408                 0.1868                 0.1336
 IR Inten    --      0.1871                 3.9964                 1.8937

                     16                     17                     18
                      A                      A                      A
 Frequencies --    345.4319               361.9784               373.5730
 Red. masses --      2.8108                 2.8801                 2.6831
 Frc consts  --      0.1976                 0.2223                 0.2206
 IR Inten    --      5.5596                 1.1895                 0.8376

                     19                     20                     21
                      A                      A                      A
 Frequencies --    386.3991               435.3354               451.3642
 Red. masses --      3.5472                 3.4562                 3.4018
 Frc consts  --      0.3120                 0.3859                 0.4083
 IR Inten    --      1.3090                 1.5700                 5.8325

                     22                     23                     24
                      A                      A                      A
 Frequencies --    456.7196               497.2565               516.3946
 Red. masses --      2.9783                 2.9046                 1.7670
 Frc consts  --      0.3660                 0.4231                 0.2776
 IR Inten    --      4.6305                 2.4378                10.5742

                     25                     26                     27
                      A                      A                      A
 Frequencies --    526.0411               554.7942               594.4960
 Red. masses --      2.4609                 2.8721                 4.3028
 Frc consts  --      0.4012                 0.5209                 0.8960
 IR Inten    --      3.2094                 6.0233                 5.0963

                     28                     29                     30
                      A                      A                      A
 Frequencies --    627.7105               648.3243               669.5619
 Red. masses --      4.6916                 1.9926                 2.6314
 Frc consts  --      1.0892                 0.4935                 0.6950
 IR Inten    --     28.9683                10.2868                28.6578

                     31                     32                     33
                      A                      A                      A
 Frequencies --    736.3589               751.0828               783.0853
 Red. masses --      3.0938                 5.5646                 1.7415
 Frc consts  --      0.9884                 1.8495                 0.6292
 IR Inten    --     15.8158                 4.6305                81.2372

                     34                     35                     36
                      A                      A                      A
 Frequencies --    798.7792               831.3693               850.4085
 Red. masses --      1.8553                 2.6247                 1.5612
 Frc consts  --      0.6974                 1.0688                 0.6652
 IR Inten    --     60.9843                11.7512                 1.0540

                     37                     38                     39
                      A                      A                      A
 Frequencies --    866.5523               888.1430               894.4623
 Red. masses --      2.2770                 2.0285                 1.7327
 Frc consts  --      1.0074                 0.9427                 0.8168
 IR Inten    --      2.1385                 8.1487                 7.1657

                     40                     41                     42
                      A                      A                      A
 Frequencies --    925.3254               941.1085               954.7229
 Red. masses --      1.9046                 1.7507                 1.7272
 Frc consts  --      0.9608                 0.9136                 0.9276
 IR Inten    --      7.7808                11.4353                 1.0869

                     43                     44                     45
                      A                      A                      A
 Frequencies --    970.0530               987.1742              1046.8246
 Red. masses --      2.1852                 1.7021                 2.6097
 Frc consts  --      1.2115                 0.9773                 1.6850
 IR Inten    --      6.0317                13.3795                18.9642

                     46                     47                     48
                      A                      A                      A
 Frequencies --   1068.6657              1077.8393              1092.9969
 Red. masses --      1.4675                 1.6909                 1.7786
 Frc consts  --      0.9875                 1.1574                 1.2519
 IR Inten    --      7.4257                 1.1387                23.9862

                     49                     50                     51
                      A                      A                      A
 Frequencies --   1102.8307              1110.4894              1116.6296
 Red. masses --      1.9426                 2.1870                 2.3447
 Frc consts  --      1.3920                 1.5890                 1.7225
 IR Inten    --      4.3919                11.6913                 7.7595

                     52                     53                     54
                      A                      A                      A
 Frequencies --   1129.0774              1136.7857              1154.6044
 Red. masses --      1.6593                 2.1535                 1.7268
 Frc consts  --      1.2463                 1.6396                 1.3563
 IR Inten    --      4.5254                38.2020                22.7507

                     55                     56                     57
                      A                      A                      A
 Frequencies --   1193.8520              1208.4531              1239.3152
 Red. masses --      2.2821                 1.5403                 1.4358
 Frc consts  --      1.9164                 1.3253                 1.2993
 IR Inten    --     21.8866                 0.5751                 0.7868

                     58                     59                     60
                      A                      A                      A
 Frequencies --   1276.8206              1281.0770              1283.7605
 Red. masses --      1.3682                 1.2763                 1.3106
 Frc consts  --      1.3142                 1.2341                 1.2726
 IR Inten    --    111.8892                 4.9602                 3.0890

                     61                     62                     63
                      A                      A                      A
 Frequencies --   1297.9187              1302.9085              1314.2703
 Red. masses --      1.5270                 2.1321                 1.9999
 Frc consts  --      1.5156                 2.1325                 2.0353
 IR Inten    --     73.1041               136.7595                 6.5996

                     64                     65                     66
                      A                      A                      A
 Frequencies --   1338.7886              1350.5946              1354.8635
 Red. masses --      1.3456                 1.2299                 1.5753
 Frc consts  --      1.4210                 1.3219                 1.7037
 IR Inten    --      3.9703                41.4816                33.1825

                     67                     68                     69
                      A                      A                      A
 Frequencies --   1371.1720              1377.2019              1388.3027
 Red. masses --      1.2708                 1.3354                 1.4164
 Frc consts  --      1.4077                 1.4923                 1.6084
 IR Inten    --      7.5922                 5.3796                 0.7298

                     70                     71                     72
                      A                      A                      A
 Frequencies --   1389.2401              1400.8021              1406.2023
 Red. masses --      1.4360                 1.4781                 1.5747
 Frc consts  --      1.6329                 1.7088                 1.8346
 IR Inten    --      6.5863                 7.1792                28.6276

                     73                     74                     75
                      A                      A                      A
 Frequencies --   1414.3620              1428.9370              1438.8713
 Red. masses --      1.4931                 1.5124                 1.5585
 Frc consts  --      1.7598                 1.8195                 1.9011
 IR Inten    --      3.5592                53.6669                63.7362

                     76                     77                     78
                      A                      A                      A
 Frequencies --   1484.9872              1500.8210              1507.3150
 Red. masses --      1.1292                 1.3020                 1.0947
 Frc consts  --      1.4671                 1.7279                 1.4654
 IR Inten    --     13.5687                77.3876                 1.4725

                     79                     80                     81
                      A                      A                      A
 Frequencies --   1515.7018              1516.2496              1520.7096
 Red. masses --      1.0948                 1.0912                 1.0831
 Frc consts  --      1.4818                 1.4781                 1.4758
 IR Inten    --      0.8137                 2.5497                10.0005

                     82                     83                     84
                      A                      A                      A
 Frequencies --   1528.0082              1533.4293              1534.6072
 Red. masses --      1.0896                 1.1001                 1.0702
 Frc consts  --      1.4989                 1.5241                 1.4850
 IR Inten    --     17.0542                 0.3601                 7.9501

                     85                     86                     87
                      A                      A                      A
 Frequencies --   1646.1079              1718.2508              1787.6067
 Red. masses --      1.2664                 8.8079                 7.7646
 Frc consts  --      2.0219                15.3214                14.6188
 IR Inten    --    121.2226               652.9216               204.3397

                     88                     89                     90
                      A                      A                      A
 Frequencies --   2954.1030              3017.4429              3023.0226
 Red. masses --      1.0811                 1.0658                 1.0703
 Frc consts  --      5.5584                 5.7172                 5.7627
 IR Inten    --     36.0733                18.2226                23.4820

                     91                     92                     93
                      A                      A                      A
 Frequencies --   3028.5695              3029.5628              3040.0674
 Red. masses --      1.0678                 1.0734                 1.0671
 Frc consts  --      5.7704                 5.8044                 5.8107
 IR Inten    --     12.2744                17.3388                33.3280

                     94                     95                     96
                      A                      A                      A
 Frequencies --   3050.1140              3054.7353              3063.1834
 Red. masses --      1.0439                 1.0557                 1.0959
 Frc consts  --      5.7220                 5.8041                 6.0584
 IR Inten    --     17.3973                30.1062                61.8445

                     97                     98                     99
                      A                      A                      A
 Frequencies --   3066.6284              3074.7708              3077.5614
 Red. masses --      1.0608                 1.0946                 1.0835
 Frc consts  --      5.8777                 6.0974                 6.0464
 IR Inten    --     23.2529                71.8376                14.9507

                    100                    101                    102
                      A                      A                      A
 Frequencies --   3079.5221              3097.6337              3097.9685
 Red. masses --      1.1013                 1.0987                 1.1032
 Frc consts  --      6.1535                 6.2112                 6.2383
 IR Inten    --     72.8437                35.9353                18.2420

                    103                    104                    105
                      A                      A                      A
 Frequencies --   3115.9264              3122.8485              3145.2865
 Red. masses --      1.1075                 1.0976                 1.1035
 Frc consts  --      6.3353                 6.3066                 6.4317
 IR Inten    --     16.0592                30.3723                17.5569

                    106                    107                    108
                      A                      A                      A
 Frequencies --   3517.9434              3593.4167              3721.8378
 Red. masses --      1.0747                 1.0454                 1.1049
 Frc consts  --      7.8362                 7.9531                 9.0174
 IR Inten    --    135.0615                45.7498                32.9828

 - Thermochemistry -
 -------------------
 Temperature   298.150 Kelvin.  Pressure   1.00000 Atm.
 Atom     1 has atomic number  6 and mass  12.00000

 Molecular mass:   255.14053 amu.
 Principal axes and moments of inertia in atomic units:
                           1         2         3
     Eigenvalues --  1837.517689599.42286**********
           X            0.99994   0.01094  -0.00070
           Y           -0.01095   0.99986  -0.01244
           Z            0.00056   0.01245   0.99992
 This molecule is an asymmetric top.
 Rotational symmetry number  1.
 Warning -- assumption of classical behavior for rotation
           may cause significant error
 Rotational temperatures (Kelvin)      0.04714     0.00902     0.00795
 Rotational constants (GHZ):           0.98216     0.18801     0.16563
 Zero-point vibrational energy     872389.5 (Joules/Mol)
                                  208.50609 (Kcal/Mol)
 Warning -- explicit consideration of  27 degrees of freedom as
           vibrations may cause significant error
 Vibrational temperatures:     35.75    54.82    64.60    83.07   113.41
          (Kelvin)            164.53   188.89   254.90   266.55   272.16
                              301.86   356.42   363.40   428.22   458.08
                              497.00   520.81   537.49   555.94   626.35
                              649.41   657.12   715.44   742.98   756.86
                              798.23   855.35   903.14   932.79   963.35
                             1059.46  1080.64  1126.69  1149.27  1196.16
                             1223.55  1246.78  1277.84  1286.93  1331.34
                             1354.05  1373.63  1395.69  1420.32  1506.15
                             1537.57  1550.77  1572.58  1586.73  1597.75
                             1606.58  1624.49  1635.58  1661.22  1717.69
                             1738.69  1783.10  1837.06  1843.18  1847.05
                             1867.42  1874.59  1890.94  1926.22  1943.20
                             1949.35  1972.81  1981.49  1997.46  1998.81
                             2015.44  2023.21  2034.95  2055.92  2070.21
                             2136.57  2159.35  2168.69  2180.76  2181.54
                             2187.96  2198.46  2206.26  2207.96  2368.38
                             2472.18  2571.97  4250.30  4341.43  4349.46
                             4357.44  4358.87  4373.98  4388.43  4395.08
                             4407.24  4412.19  4423.91  4427.92  4430.75
                             4456.80  4457.29  4483.12  4493.08  4525.37
                             5061.54  5170.13  5354.89

 Zero-point correction=                           0.332276 (Hartree/Particle)
 Thermal correction to Energy=                    0.349738
 Thermal correction to Enthalpy=                  0.350682
 Thermal correction to Gibbs Free Energy=         0.285706
 Sum of electronic and zero-point Energies=          -1107.367200
 Sum of electronic and thermal Energies=             -1107.349737
 Sum of electronic and thermal Enthalpies=           -1107.348793
 Sum of electronic and thermal Free Energies=        -1107.413770

                     E (Thermal)             CV                S
                      KCal/Mol        Cal/Mol-Kelvin    Cal/Mol-Kelvin
 Total                  219.464             66.913            136.755
 Electronic               0.000              0.000              0.000
 Translational            0.889              2.981             42.510
 Rotational               0.889              2.981             33.618
 Vibrational            217.687             60.951             60.626
 Vibration     1          0.593              1.985              6.204
 Vibration     2          0.594              1.982              5.356
 Vibration     3          0.595              1.979              5.030
 Vibration     4          0.596              1.974              4.533
 Vibration     5          0.600              1.963              3.920
 Vibration     6          0.607              1.938              3.194
 Vibration     7          0.612              1.922              2.927
 Vibration     8          0.628              1.870              2.358
 Vibration     9          0.631              1.860              2.275
 Vibration    10          0.633              1.855              2.236
 Vibration    11          0.642              1.826              2.045
 Vibration    12          0.661              1.767              1.747
 Vibration    13          0.664              1.758              1.713
 Vibration    14          0.691              1.678              1.430
 Vibration    15          0.705              1.638              1.318
 Vibration    16          0.724              1.585              1.187
 Vibration    17          0.736              1.551              1.114
 Vibration    18          0.745              1.526              1.065
 Vibration    19          0.755              1.499              1.014
 Vibration    20          0.796              1.393              0.841
 Vibration    21          0.810              1.358              0.792
 Vibration    22          0.815              1.346              0.776
 Vibration    23          0.853              1.256              0.665
 Vibration    24          0.871              1.214              0.618
 Vibration    25          0.881              1.192              0.596
 Vibration    26          0.910              1.129              0.534
 Vibration    27          0.952              1.043              0.459

 Optimization completed.
    -- Stationary point found.
 Normal termination of Gaussian 16 at Mon Dec 14 17:01:18 2020.

 ----------------------------------------------------------------------
 # B3LYP/6-311++G(d,p) empiricaldispersion=gd3bj scf=xqc pop=npa geom=c
 heck
 ----------------------------------------------------------------------

 ---------------------------------------
 CID_114179046_JID_7496_Energie_neutraal
 ---------------------------------------
 Structure from the checkpoint file:  "JID_7496.chk"
 Charge =  0 Multiplicity = 1

 SCF Done:  E(RB3LYP) =  -1107.93134631     A.U. after   16 cycles
 Normal termination of Gaussian 16 at Mon Dec 14 17:09:28 2020.

 ----------------------------------------------------------------------
 # B3LYP/6-311++G(d,p) empiricaldispersion=gd3bj scf=xqc pop=npa geom=c
 heck
 ----------------------------------------------------------------------

 -------------------------------------
 CID_114179046_JID_7496_Energie_kation
 -------------------------------------
 Structure from the checkpoint file:  "JID_7496.chk"
 Charge =  1 Multiplicity = 2

 SCF Done:  E(UB3LYP) =  -1107.65346518     A.U. after   28 cycles
 Normal termination of Gaussian 16 at Mon Dec 14 17:30:14 2020.
 Gaussian 16:  ES64L-G16RevA.03 25-Dec-2016

 ----------------------------------------------------------------------
 # B3LYP/6-311++G(d,p) empiricaldispersion=gd3bj scf=xqc pop=npa geom=c
 heck
 ----------------------------------------------------------------------

 ------------------------------------
 CID_114179046_JID_7496_Energie_anion
 ------------------------------------
 Structure from the checkpoint file:  "JID_7496.chk"
 Charge = -1 Multiplicity = 2

                         Standard orientation:
 ---------------------------------------------------------------------
 Center     Atomic      Atomic             Coordinates (Angstroms)
 Number     Number       Type             X           Y           Z
 ---------------------------------------------------------------------
      1          6           0       -2.760406   -1.083227    1.485521
      2          6           0       -2.522676   -0.876918   -0.017005
      3          6           0       -3.787574   -0.401430   -0.751744
      4          6           0       -4.336311    0.923384   -0.230491
      5          8           0       -3.619950    1.825405    0.193272
      6          7           0       -5.693145    1.049787   -0.277144
      7          7           0       -1.437632    0.062493   -0.300658
      8          6           0       -0.108209   -0.203315   -0.032702
      9          7           0        0.670247    0.749798    0.294656
     10          6           0        2.108604    0.618463    0.445128
     11          6           0        2.769482    1.933127    0.004651
     12          6           0        4.284590    1.911326    0.234056
     13          6           0        4.934964    0.707236   -0.459274
     14          6           0        4.265749   -0.605021   -0.031405
     15          6           0        2.749823   -0.573998   -0.283726
     16          6           0        2.096666   -1.881608    0.149517
     17         16           0        0.321982   -1.947327   -0.305237
     18          1           0       -3.012611   -0.133720    1.967047
     19          1           0       -1.855344   -1.480097    1.954476
     20          1           0       -3.576561   -1.794841    1.661332
     21          1           0       -2.255658   -1.840278   -0.463300
     22          1           0       -3.542973   -0.261595   -1.812137
     23          1           0       -4.556208   -1.180643   -0.690714
     24          1           0       -6.288354    0.344895   -0.683667
     25          1           0       -6.097228    1.943293   -0.032903
     26          1           0       -1.684000    1.020245   -0.057258
     27          1           0        2.320341    0.492873    1.522278
     28          1           0        2.551022    2.088035   -1.061170
     29          1           0        2.297147    2.760379    0.545203
     30          1           0        4.486853    1.856854    1.313892
     31          1           0        4.736450    2.845351   -0.121419
     32          1           0        6.009588    0.670842   -0.241660
     33          1           0        4.837170    0.820489   -1.548419
     34          1           0        4.712796   -1.454953   -0.563862
     35          1           0        4.448350   -0.775208    1.040186
     36          1           0        2.577336   -0.443887   -1.361859
     37          1           0        2.554572   -2.740089   -0.351657
     38          1           0        2.200704   -2.026622    1.230088
 ---------------------------------------------------------------------

 SCF Done:  E(UB3LYP) =  -1107.92425071     A.U. after   33 cycles
 SCF Done:  E(UB3LYP) =  -1107.92425071     a.u. after    1 cycles

 The electronic state is 2-A.
 Alpha  occ. eigenvalues --  -88.76390 -18.99799 -14.23507 -14.22332 -14.19191
 Alpha  occ. eigenvalues --  -10.18474 -10.17209 -10.12465 -10.12105 -10.11480
 Alpha  occ. eigenvalues --  -10.09726 -10.09052 -10.08842 -10.08823 -10.08687
 Alpha  occ. eigenvalues --  -10.07819 -10.06845  -7.85052  -5.81415  -5.81060
 Alpha  occ. eigenvalues --   -5.80461  -0.94831  -0.87063  -0.80984  -0.80645
 Alpha  occ. eigenvalues --   -0.75105  -0.71624  -0.69499  -0.65744  -0.65242
 Alpha  occ. eigenvalues --   -0.61966  -0.57281  -0.55018  -0.52347  -0.52126
 Alpha  occ. eigenvalues --   -0.48685  -0.48120  -0.46402  -0.43719  -0.41808
 Alpha  occ. eigenvalues --   -0.40323  -0.38641  -0.38290  -0.37203  -0.36914
 Alpha  occ. eigenvalues --   -0.35557  -0.34023  -0.33540  -0.33030  -0.32170
 Alpha  occ. eigenvalues --   -0.32042  -0.30952  -0.30644  -0.29594  -0.28824
 Alpha  occ. eigenvalues --   -0.28442  -0.27388  -0.26425  -0.26339  -0.25521
 Alpha  occ. eigenvalues --   -0.25090  -0.24249  -0.23343  -0.22654  -0.18146
 Alpha  occ. eigenvalues --   -0.17030  -0.15496  -0.15037  -0.13274   0.03711
 Alpha virt. eigenvalues --    0.04630   0.06171   0.06598   0.07274   0.07691
 Alpha virt. eigenvalues --    0.08335   0.08818   0.09045   0.09451   0.09897
 Alpha virt. eigenvalues --    0.10379   0.10465   0.10596   0.10978   0.11319

  Beta  occ. eigenvalues --  -88.76387 -18.99792 -14.23414 -14.22331 -14.19189
  Beta  occ. eigenvalues --  -10.18472 -10.17206 -10.12462 -10.12094 -10.11477
  Beta  occ. eigenvalues --  -10.09724 -10.09036 -10.08829 -10.08784 -10.08681
  Beta  occ. eigenvalues --  -10.07818 -10.06833  -7.85049  -5.81409  -5.81058
  Beta  occ. eigenvalues --   -5.80459  -0.94810  -0.87057  -0.80862  -0.80638
  Beta  occ. eigenvalues --   -0.75090  -0.71611  -0.69470  -0.65729  -0.65219
  Beta  occ. eigenvalues --   -0.61920  -0.57259  -0.54987  -0.52310  -0.52092
  Beta  occ. eigenvalues --   -0.48606  -0.48045  -0.46381  -0.43631  -0.41784
  Beta  occ. eigenvalues --   -0.40297  -0.38610  -0.38262  -0.37189  -0.36900
  Beta  occ. eigenvalues --   -0.35535  -0.33995  -0.33524  -0.33008  -0.32141
  Beta  occ. eigenvalues --   -0.32024  -0.30928  -0.30619  -0.29571  -0.28809
  Beta  occ. eigenvalues --   -0.28411  -0.27371  -0.26403  -0.26319  -0.25500
  Beta  occ. eigenvalues --   -0.25071  -0.24234  -0.23328  -0.22634  -0.18077
  Beta  occ. eigenvalues --   -0.17003  -0.15488  -0.15032  -0.13269
  Beta virt. eigenvalues --    0.05262   0.06330   0.06669   0.06831   0.07653
  Beta virt. eigenvalues --    0.08200   0.08517   0.08872   0.09408   0.09780
  Beta virt. eigenvalues --    0.10063   0.10525   0.10555   0.10832   0.11210

 Mulliken charges and spin densities:
               1          2
     1  C   -0.040645  -0.638038
     2  C   -0.572322   0.649344
     3  C    1.224568  -1.650500
     4  C    0.069471   0.012023
     5  O   -0.348310  -0.040796
     6  N   -0.312694   0.031954
     7  N    0.215157  -0.018188
     8  C   -0.315644  -0.091291
     9  N    0.135286  -0.006880
    10  C   -0.809194  -0.068258
    11  C    0.058372  -0.116996
    12  C   -0.335519  -0.131999
    13  C   -0.167868  -0.213669
    14  C    0.260576  -0.664125
    15  C   -0.096281   0.610040
    16  C    0.409903  -0.693278
    17  S   -0.344863   0.085616
    18  H    0.173031  -0.016224
    19  H    0.058570   0.079640
    20  H   -0.064962   0.208021
    21  H    0.120329   0.041481
    22  H   -0.045114   0.245742
    23  H   -0.333245   0.530401
    24  H   -0.576787   0.851095
    25  H   -0.242968   0.545950
    26  H    0.376796  -0.043971
    27  H    0.107825   0.118137
    28  H    0.110718   0.042677
    29  H    0.179249  -0.010703
    30  H    0.106734   0.001513
    31  H    0.035155   0.134258
    32  H   -0.345546   0.529823
    33  H    0.169428  -0.055326
    34  H   -0.145611   0.298898
    35  H    0.056878   0.090940
    36  H    0.097023   0.079501
    37  H    0.004149   0.201522
    38  H    0.128356   0.071664
 Sum of Mulliken charges =  -1.00000   1.00000

 Dipole moment (field-independent basis, Debye):
    X=             10.1944    Y=             -1.0526    Z=              1.4188  Tot=             10.3464
 Quadrupole moment (field-independent basis, Debye-Ang):
   XX=           -273.2779   YY=           -147.9343   ZZ=           -136.1744
   XY=              5.5465   XZ=             -8.1221   YZ=             -2.5408

 Summary of Natural Population Analysis:

                                       Natural Population
                Natural  -----------------------------------------------
    Atom  No    Charge         Core      Valence    Rydberg      Total
 -----------------------------------------------------------------------
      C    1   -0.29677      0.99964     2.29178    0.00536     3.29677
      C    2   -0.01035      0.99960     1.99801    0.01275     3.01035
      C    3   -0.23388      0.99956     2.22334    0.01098     3.23388
      C    4    0.33997      0.99969     1.63688    0.02346     2.66003
      O    5   -0.33509      0.99987     3.32936    0.00587     4.33509
      N    6   -0.39273      0.99971     2.88429    0.00873     3.89273
      N    7   -0.33461      0.99965     2.82271    0.01225     3.83461
      C    8    0.17458      0.99954     1.80822    0.01766     2.82542
      N    9   -0.28489      0.99960     2.77321    0.01207     3.78489
      C   10   -0.01250      0.99954     1.99973    0.01323     3.01250
      C   11   -0.18752      0.99961     2.17889    0.00902     3.18752
      C   12   -0.19178      0.99963     2.18321    0.00894     3.19178
      C   13   -0.18911      0.99963     2.18082    0.00866     3.18911
      C   14   -0.18775      0.99961     2.17812    0.01003     3.18775
      C   15   -0.12457      0.99956     2.11431    0.01071     3.12457
      C   16   -0.24182      0.99956     2.23130    0.01096     3.24182
      S   17    0.08617      4.99957     2.89809    0.01618     7.91383
      H   18    0.10560      0.00000     0.39345    0.00096     0.39440
      H   19    0.10281      0.00000     0.39636    0.00084     0.39719
      H   20    0.10033      0.00000     0.39879    0.00087     0.39967
      H   21    0.10008      0.00000     0.39785    0.00207     0.39992
      H   22    0.11696      0.00000     0.38173    0.00131     0.38304
      H   23    0.11077      0.00000     0.38748    0.00174     0.38923
      H   24    0.20441      0.00000     0.26482    0.03077     0.29559
      H   25    0.19727      0.00000     0.29979    0.00294     0.30273
      H   26    0.20953      0.00000     0.28700    0.00347     0.29047
      H   27    0.08805      0.00000     0.41029    0.00167     0.41195
      H   28    0.09545      0.00000     0.40318    0.00137     0.40455
      H   29    0.10434      0.00000     0.39442    0.00124     0.39566
      H   30    0.09277      0.00000     0.40617    0.00107     0.40723
      H   31    0.09841      0.00000     0.40082    0.00077     0.40159
      H   32    0.09979      0.00000     0.39910    0.00111     0.40021
      H   33    0.09293      0.00000     0.40599    0.00108     0.40707
      H   34    0.10054      0.00000     0.39829    0.00117     0.39946
      H   35    0.09457      0.00000     0.40417    0.00126     0.40543
      H   36    0.09964      0.00000     0.39858    0.00177     0.40036
      H   37    0.10792      0.00000     0.39093    0.00115     0.39208
      H   38    0.10050      0.00000     0.39810    0.00140     0.39950
 =======================================================================
   * Total *    0.00000     20.99356    47.74956    0.25688    69.00000

 Normal termination of Gaussian 16 at Mon Dec 14 17:54:55 2020.
