 Gaussian 16, Revision A.03,

 -----------------------------------------------------------
 # opt freq B3LYP/6-31G(d) empiricaldispersion=gd3bj scf=xqc
 -----------------------------------------------------------

 ------------------------------
 CID_151246383_JID_173_neutraal
 ------------------------------
 Symbolic Z-matrix:
 Charge =  0 Multiplicity = 1

 SCF Done:  E(RB3LYP) =  -793.969032128     A.U. after   20 cycles
 SCF Done:  E(RB3LYP) =  -793.975541435     A.U. after   15 cycles
 SCF Done:  E(RB3LYP) =  -793.975962595     A.U. after   15 cycles
 SCF Done:  E(RB3LYP) =  -793.976603327     A.U. after   13 cycles
 SCF Done:  E(RB3LYP) =  -793.976649216     A.U. after   12 cycles
 SCF Done:  E(RB3LYP) =  -793.976667221     A.U. after   13 cycles
 SCF Done:  E(RB3LYP) =  -793.976673601     A.U. after   13 cycles
 SCF Done:  E(RB3LYP) =  -793.976666442     A.U. after   10 cycles
 SCF Done:  E(RB3LYP) =  -793.976884907     A.U. after   17 cycles
 SCF Done:  E(RB3LYP) =  -793.940169012     A.U. after   18 cycles
 SCF Done:  E(RB3LYP) =  -793.979317225     A.U. after   12 cycles
 SCF Done:  E(RB3LYP) =  -793.979345515     A.U. after   13 cycles
 SCF Done:  E(RB3LYP) =  -793.979353808     A.U. after   13 cycles
 SCF Done:  E(RB3LYP) =  -793.979354835     A.U. after    9 cycles
 SCF Done:  E(RB3LYP) =  -793.979354997     A.U. after    8 cycles
 SCF Done:  E(RB3LYP) =  -793.979355007     A.U. after    7 cycles
 Optimization completed.
    -- Stationary point found.
 Normal termination of Gaussian 16 at Tue Dec  8 10:20:14 2020.

 --------------------------------------------------------------------
 #N Geom=AllCheck Guess=TCheck SCRF=Check GenChk RB3LYP/6-31G(d) Freq
 --------------------------------------------------------------------

 Structure from the checkpoint file:  "JID_173.chk"
 ------------------------------
 CID_151246383_JID_173_neutraal
 ------------------------------
 Charge =  0 Multiplicity = 1

 SCF Done:  E(RB3LYP) =  -793.979355007     A.U. after    1 cycles

  Exact polarizability: 140.873  13.438 114.511   4.656   2.229  51.321
 Approx polarizability: 210.461  36.966 232.049  15.753 -10.319 100.488

                      1                      2                      3
                      A                      A                      A
 Frequencies --     26.4063                43.5926               139.9279
 Red. masses --      9.6931                 4.9169                 4.8021
 Frc consts  --      0.0040                 0.0055                 0.0554
 IR Inten    --      0.0528                 0.0028                 1.5818

                      4                      5                      6
                      A                      A                      A
 Frequencies --    151.8295               204.1809               283.3451
 Red. masses --      6.4398                12.0382                 4.0007
 Frc consts  --      0.0875                 0.2957                 0.1892
 IR Inten    --      0.4194                 1.4172                 0.3251

                      7                      8                      9
                      A                      A                      A
 Frequencies --    305.2133               371.7512               470.9097
 Red. masses --      4.7564                 3.5020                 7.6611
 Frc consts  --      0.2611                 0.2852                 1.0010
 IR Inten    --      4.1870                 1.0350                 0.2800

                     10                     11                     12
                      A                      A                      A
 Frequencies --    559.9260               565.1852               575.7153
 Red. masses --      3.2243                15.4495                 5.1104
 Frc consts  --      0.5956                 2.9077                 0.9980
 IR Inten    --      6.4464                12.7877                11.8473

                     13                     14                     15
                      A                      A                      A
 Frequencies --    659.6871               676.0827               696.0267
 Red. masses --      2.8383                 1.2220                 4.6907
 Frc consts  --      0.7278                 0.3291                 1.3389
 IR Inten    --      7.8428                 0.0380                 0.5017

                     16                     17                     18
                      A                      A                      A
 Frequencies --    720.9031               774.7405               815.8817
 Red. masses --     14.3718                 1.2976                 1.5726
 Frc consts  --      4.4006                 0.4589                 0.6168
 IR Inten    --      3.7204                 3.2955                31.6054

                     19                     20                     21
                      A                      A                      A
 Frequencies --    888.7506               918.1446               938.8513
 Red. masses --      6.7337                 1.3086                 2.9608
 Frc consts  --      3.1337                 0.6499                 1.5376
 IR Inten    --      9.0280                 2.6668                 2.5021

                     22                     23                     24
                      A                      A                      A
 Frequencies --    949.8467               978.0446              1079.0430
 Red. masses --      1.3957                 1.5956                 2.3621
 Frc consts  --      0.7419                 0.8992                 1.6204
 IR Inten    --     40.0185                 4.2262                30.5230

                     25                     26                     27
                      A                      A                      A
 Frequencies --   1128.1877              1221.4172              1235.7013
 Red. masses --      1.2614                 9.9180                 1.4614
 Frc consts  --      0.9460                 8.7177                 1.3148
 IR Inten    --     11.5108               125.8966                 8.2186

                     28                     29                     30
                      A                      A                      A
 Frequencies --   1315.6609              1370.7372              1475.9124
 Red. masses --      3.6781                 1.8958                 1.2820
 Frc consts  --      3.7511                 2.0988                 1.6454
 IR Inten    --     64.9391                 7.4653                 1.1916

                     31                     32                     33
                      A                      A                      A
 Frequencies --   1554.9007              1624.2370              1715.8885
 Red. masses --      5.9049                 6.0514                 5.4703
 Frc consts  --      8.4113                 9.4060                 9.4894
 IR Inten    --      2.1138                38.3047                 0.6280

                     34                     35                     36
                      A                      A                      A
 Frequencies --   2236.8289              3170.9209              3232.0784
 Red. masses --     14.0009                 1.0589                 1.0875
 Frc consts  --     41.2736                 6.2728                 6.6936
 IR Inten    --    480.4049                 4.8325                 1.8692

                     37                     38                     39
                      A                      A                      A
 Frequencies --   3254.2359              3254.5158              3268.1087
 Red. masses --      1.1124                 1.1082                 1.0952
 Frc consts  --      6.9410                 6.9161                 6.8917
 IR Inten    --      0.1538                15.9766                 0.3530

 - Thermochemistry -
 -------------------
 Temperature   298.150 Kelvin.  Pressure   1.00000 Atm.
 Atom     1 has atomic number  6 and mass  12.00000

 Molecular mass:   151.02042 amu.
 Principal axes and moments of inertia in atomic units:
                           1         2         3
     Eigenvalues --   805.996522493.536953103.28551
           X            0.99988   0.01530  -0.00265
           Y           -0.01522   0.99949   0.02822
           Z            0.00308  -0.02818   0.99960
 This molecule is an asymmetric top.
 Rotational symmetry number  1.
 Warning -- assumption of classical behavior for rotation
           may cause significant error
 Rotational temperatures (Kelvin)      0.10746     0.03474     0.02791
 Rotational constants (GHZ):           2.23914     0.72377     0.58156
 Zero-point vibrational energy     268282.4 (Joules/Mol)
                                   64.12104 (Kcal/Mol)
 Warning -- explicit consideration of  12 degrees of freedom as
           vibrations may cause significant error
 Vibrational temperatures:     37.99    62.72   201.33   218.45   293.77
          (Kelvin)            407.67   439.13   534.87   677.53   805.61
                              813.18   828.33   949.14   972.73  1001.43
                             1037.22  1114.68  1173.87  1278.71  1321.01
                             1350.80  1366.62  1407.19  1552.50  1623.21
                             1757.35  1777.90  1892.94  1972.19  2123.51
                             2237.16  2336.91  2468.78  3218.30  4562.25
                             4650.24  4682.12  4682.52  4702.08

 Zero-point correction=                           0.102183 (Hartree/Particle)
 Thermal correction to Energy=                    0.111564
 Thermal correction to Enthalpy=                  0.112508
 Thermal correction to Gibbs Free Energy=         0.065603
 Sum of electronic and zero-point Energies=           -793.877172
 Sum of electronic and thermal Energies=              -793.867791
 Sum of electronic and thermal Enthalpies=            -793.866847
 Sum of electronic and thermal Free Energies=         -793.913752

                     E (Thermal)             CV                S
                      KCal/Mol        Cal/Mol-Kelvin    Cal/Mol-Kelvin
 Total                   70.007             33.520             98.719
 Electronic               0.000              0.000              0.000
 Translational            0.889              2.981             40.947
 Rotational               0.889              2.981             30.212
 Vibrational             68.230             27.558             27.560
 Vibration     1          0.593              1.985              6.083
 Vibration     2          0.595              1.980              5.089
 Vibration     3          0.615              1.913              2.805
 Vibration     4          0.619              1.901              2.649
 Vibration     5          0.640              1.834              2.095
 Vibration     6          0.682              1.705              1.513
 Vibration     7          0.696              1.664              1.388
 Vibration     8          0.743              1.530              1.073
 Vibration     9          0.828              1.315              0.735
 Vibration    10          0.916              1.118              0.524
 Vibration    11          0.921              1.107              0.514
 Vibration    12          0.932              1.084              0.493

 Optimization completed.
    -- Stationary point found.
 Normal termination of Gaussian 16 at Tue Dec  8 10:22:18 2020.

 ----------------------------------------------------------------------
 # B3LYP/6-311++G(d,p) empiricaldispersion=gd3bj scf=xqc pop=npa geom=c
 heck
 ----------------------------------------------------------------------

 --------------------------------------
 CID_151246383_JID_173_Energie_neutraal
 --------------------------------------
 Structure from the checkpoint file:  "JID_173.chk"
 Charge =  0 Multiplicity = 1

 SCF Done:  E(RB3LYP) =  -794.112974917     A.U. after   18 cycles
 Normal termination of Gaussian 16 at Tue Dec  8 10:23:09 2020.

 ----------------------------------------------------------------------
 # B3LYP/6-311++G(d,p) empiricaldispersion=gd3bj scf=xqc pop=npa geom=c
 heck
 ----------------------------------------------------------------------

 ------------------------------------
 CID_151246383_JID_173_Energie_kation
 ------------------------------------
 Structure from the checkpoint file:  "JID_173.chk"
 Charge =  1 Multiplicity = 2

 SCF Done:  E(UB3LYP) =  -793.820331833     A.U. after   24 cycles
 Normal termination of Gaussian 16 at Tue Dec  8 10:24:56 2020.
 Gaussian 16:  ES64L-G16RevA.03 25-Dec-2016

 ----------------------------------------------------------------------
 # B3LYP/6-311++G(d,p) empiricaldispersion=gd3bj scf=xqc pop=npa geom=c
 heck
 ----------------------------------------------------------------------

 -----------------------------------
 CID_151246383_JID_173_Energie_anion
 -----------------------------------
 Structure from the checkpoint file:  "JID_173.chk"
 Charge = -1 Multiplicity = 2

                         Standard orientation:
 ---------------------------------------------------------------------
 Center     Atomic      Atomic             Coordinates (Angstroms)
 Number     Number       Type             X           Y           Z
 ---------------------------------------------------------------------
      1          6           0       -3.084290   -1.674492   -0.198618
      2          6           0       -2.235915   -0.640375   -0.059110
      3          6           0       -2.587641    0.714898    0.404536
      4          6           0       -1.465756    1.467979    0.408194
      5          6           0       -0.343329    0.620770   -0.055199
      6          6           0       -0.794127   -0.628988   -0.333721
      7         16           0        1.275922    1.294262   -0.172379
      8          7           0        2.175907   -0.096925   -0.774243
      9          7           0        2.596648   -0.837250    0.141251
     10          7           0        3.044591   -1.595883    0.860789
     11          1           0       -4.140775   -1.574801    0.033173
     12          1           0       -2.746327   -2.645762   -0.548333
     13          1           0       -3.585569    1.023911    0.689515
     14          1           0       -1.373392    2.508619    0.695445
     15          1           0       -0.222361   -1.468510   -0.702810
 ---------------------------------------------------------------------

 SCF Done:  E(UB3LYP) =  -794.137407097     A.U. after   31 cycles

 The electronic state is 2-A.
 Alpha  occ. eigenvalues --  -88.73535 -14.33587 -14.24160 -14.23300 -10.04407
 Alpha  occ. eigenvalues --  -10.02318 -10.01992 -10.01153 -10.01102 -10.00339
 Alpha  occ. eigenvalues --   -7.81969  -5.78559  -5.77927  -5.77274  -1.00353
 Alpha  occ. eigenvalues --   -0.84113  -0.71735  -0.63816  -0.59064  -0.54954
 Alpha  occ. eigenvalues --   -0.48061  -0.40917  -0.38817  -0.37826  -0.37213
 Alpha  occ. eigenvalues --   -0.36747  -0.32727  -0.31203  -0.27807  -0.25287
 Alpha  occ. eigenvalues --   -0.24259  -0.23073  -0.22401  -0.19407  -0.18727
 Alpha  occ. eigenvalues --   -0.14538  -0.12950  -0.09909  -0.06160   0.03602
 Alpha virt. eigenvalues --    0.06271   0.09712   0.10608   0.11434   0.11754
 Alpha virt. eigenvalues --    0.12525   0.13406   0.15099   0.15383   0.15946
 Alpha virt. eigenvalues --    0.16138   0.17000   0.18382   0.19616   0.19648

  Beta  occ. eigenvalues --  -88.73450 -14.33378 -14.23833 -14.23256 -10.04319
  Beta  occ. eigenvalues --  -10.02344 -10.01891 -10.00975 -10.00638 -10.00219
  Beta  occ. eigenvalues --   -7.81884  -5.78361  -5.77867  -5.77191  -0.99903
  Beta  occ. eigenvalues --   -0.83834  -0.71375  -0.63322  -0.58456  -0.54573
  Beta  occ. eigenvalues --   -0.47278  -0.40438  -0.38588  -0.36929  -0.36785
  Beta  occ. eigenvalues --   -0.36513  -0.32114  -0.30745  -0.27505  -0.25130
  Beta  occ. eigenvalues --   -0.23963  -0.22263  -0.22100  -0.19116  -0.18158
  Beta  occ. eigenvalues --   -0.13628  -0.12705  -0.08402  -0.05180
  Beta virt. eigenvalues --    0.08496   0.09202   0.09691   0.10673   0.11512
  Beta virt. eigenvalues --    0.11935   0.12606   0.13483   0.15181   0.15384
  Beta virt. eigenvalues --    0.16171   0.16364   0.16988   0.18484   0.19702

 Mulliken charges and spin densities:
               1          2
     1  C   -0.268123   0.516918
     2  C    1.144347  -0.100032
     3  C   -1.299852   0.101919
     4  C    0.442587   0.194546
     5  C   -0.163014  -0.110431
     6  C   -0.481386  -0.005381
     7  S   -0.547964   0.195378
     8  N   -0.735712   0.014913
     9  N    0.630982   0.035425
    10  N   -0.203931   0.196338
    11  H    0.082471  -0.024863
    12  H    0.100722  -0.021561
    13  H    0.065299  -0.011618
    14  H    0.107083   0.022274
    15  H    0.126492  -0.003826
 Sum of Mulliken charges =  -1.00000   1.00000

 Dipole moment (field-independent basis, Debye):
    X=              0.5344    Y=              1.2571    Z=              0.0396  Tot=              1.3665
 Quadrupole moment (field-independent basis, Debye-Ang):
   XX=            -97.8801   YY=            -79.2019   ZZ=            -77.9825
   XY=              0.0128   XZ=             -2.6476   YZ=              4.0436

 Summary of Natural Population Analysis:

                                       Natural Population
                Natural  -----------------------------------------------
    Atom  No    Charge         Core      Valence    Rydberg      Total
 -----------------------------------------------------------------------
      C    1   -0.06111      0.99953     2.05410    0.00748     3.06111
      C    2   -0.05464      0.99956     2.04519    0.00990     3.05464
      C    3   -0.07836      0.99951     2.06890    0.00995     3.07836
      C    4   -0.10648      0.99951     2.09678    0.01019     3.10648
      C    5   -0.09805      0.99939     2.08730    0.01135     3.09805
      C    6   -0.12220      0.99941     2.11273    0.01006     3.12220
      S    7    0.23391      4.99940     2.74065    0.02603     7.76609
      N    8   -0.26682      0.99975     2.74832    0.01875     3.76682
      N    9    0.12406      0.99971     2.35944    0.01679     3.37594
      N   10   -0.00880      0.99982     2.49555    0.01343     3.50880
      H   11    0.07842      0.00000     0.42048    0.00110     0.42158
      H   12    0.08035      0.00000     0.41863    0.00102     0.41965
      H   13    0.08878      0.00000     0.41014    0.00108     0.41122
      H   14    0.09177      0.00000     0.40686    0.00137     0.40823
      H   15    0.09916      0.00000     0.39952    0.00131     0.40084
 =======================================================================
   * Total *   -0.00000     13.99558    24.86460    0.13983    39.00000

 Normal termination of Gaussian 16 at Tue Dec  8 10:27:18 2020.
