 Gaussian 16, Revision A.03,

 -----------------------------------------------------------
 # opt freq B3LYP/6-31G(d) empiricaldispersion=gd3bj scf=xqc
 -----------------------------------------------------------

 -------------------------------
 CID_131117247_JID_2593_neutraal
 -------------------------------
 Symbolic Z-matrix:
 Charge =  0 Multiplicity = 1

 SCF Done:  E(RB3LYP) =  -600.400389591     A.U. after   16 cycles
 SCF Done:  E(RB3LYP) =  -600.407576643     A.U. after   15 cycles
 SCF Done:  E(RB3LYP) =  -600.404233490     A.U. after   15 cycles
 SCF Done:  E(RB3LYP) =  -600.410219353     A.U. after   15 cycles
 SCF Done:  E(RB3LYP) =  -600.411362963     A.U. after   15 cycles
 SCF Done:  E(RB3LYP) =  -600.412185218     A.U. after   16 cycles
 SCF Done:  E(RB3LYP) =  -600.412421859     A.U. after   15 cycles
 SCF Done:  E(RB3LYP) =  -600.412510567     A.U. after   14 cycles
 SCF Done:  E(RB3LYP) =  -600.412525226     A.U. after   13 cycles
 SCF Done:  E(RB3LYP) =  -600.412529073     A.U. after   11 cycles
 SCF Done:  E(RB3LYP) =  -600.412531965     A.U. after   11 cycles
 SCF Done:  E(RB3LYP) =  -600.412533286     A.U. after   10 cycles
 SCF Done:  E(RB3LYP) =  -600.412534145     A.U. after   10 cycles
 SCF Done:  E(RB3LYP) =  -600.412534348     A.U. after    8 cycles
 SCF Done:  E(RB3LYP) =  -600.412534361     A.U. after    8 cycles
 Optimization completed.
    -- Stationary point found.
 Normal termination of Gaussian 16 at Wed Dec  9 17:45:59 2020.

 --------------------------------------------------------------------
 #N Geom=AllCheck Guess=TCheck SCRF=Check GenChk RB3LYP/6-31G(d) Freq
 --------------------------------------------------------------------

 Structure from the checkpoint file:  "JID_2593.chk"
 -------------------------------
 CID_131117247_JID_2593_neutraal
 -------------------------------
 Charge =  0 Multiplicity = 1

 SCF Done:  E(RB3LYP) =  -600.412534361     A.U. after    1 cycles

  Exact polarizability: 144.193 -15.250 104.048  -1.005   1.191  36.709
 Approx polarizability: 256.469 -49.260 188.023  -7.173   7.372  61.411

                      1                      2                      3
                      A                      A                      A
 Frequencies --     33.8718                84.6946               155.3882
 Red. masses --     14.8077                 5.5652                12.3361
 Frc consts  --      0.0100                 0.0235                 0.1755
 IR Inten    --      0.1480                 0.7742                 2.0640

                      4                      5                      6
                      A                      A                      A
 Frequencies --    162.2848               210.5728               248.7287
 Red. masses --      7.1328                 6.9143                 6.0911
 Frc consts  --      0.1107                 0.1806                 0.2220
 IR Inten    --      0.3969                 0.3515                14.1144

                      7                      8                      9
                      A                      A                      A
 Frequencies --    311.7578               353.4317               405.4323
 Red. masses --      1.2540                 8.2269                 4.5611
 Frc consts  --      0.0718                 0.6055                 0.4417
 IR Inten    --    316.6842                 6.9460                 2.2512

                     10                     11                     12
                      A                      A                      A
 Frequencies --    421.3871               437.6034               468.2288
 Red. masses --      4.9233                 4.7622                 3.9090
 Frc consts  --      0.5151                 0.5373                 0.5049
 IR Inten    --      4.2935                 1.0377                17.0899

                     13                     14                     15
                      A                      A                      A
 Frequencies --    494.3021               532.6743               594.6336
 Red. masses --      1.3692                10.6418                 5.0658
 Frc consts  --      0.1971                 1.7790                 1.0553
 IR Inten    --     38.5573                 0.1637                 3.2241

                     16                     17                     18
                      A                      A                      A
 Frequencies --    636.0085               693.3651               736.8835
 Red. masses --      5.4922                 8.2204                 5.3020
 Frc consts  --      1.3089                 2.3285                 1.6962
 IR Inten    --      3.9932                11.2000                 5.5496

                     19                     20                     21
                      A                      A                      A
 Frequencies --    761.8435               790.6168               831.6743
 Red. masses --      7.3265                12.0332                10.7402
 Frc consts  --      2.5054                 4.4316                 4.3769
 IR Inten    --      4.8883                 0.3132                42.2216

                     22                     23                     24
                      A                      A                      A
 Frequencies --    842.4496               961.3315               986.0053
 Red. masses --      1.6056                 4.2502                 1.3095
 Frc consts  --      0.6714                 2.3142                 0.7501
 IR Inten    --     32.2939                 9.1276                 0.8470

                     25                     26                     27
                      A                      A                      A
 Frequencies --   1088.0842              1107.1723              1194.5259
 Red. masses --      1.7309                 3.6781                 1.3367
 Frc consts  --      1.2074                 2.6565                 1.1238
 IR Inten    --      4.8886                 5.9464                 5.6767

                     28                     29                     30
                      A                      A                      A
 Frequencies --   1266.5924              1353.2767              1390.8332
 Red. masses --      3.0530                 5.4028                 2.7168
 Frc consts  --      2.8857                 5.8297                 3.0964
 IR Inten    --      9.3343                31.4786                26.0228

                     31                     32                     33
                      A                      A                      A
 Frequencies --   1402.3646              1464.7269              1543.9963
 Red. masses --     10.6251                 5.7422                 3.3617
 Frc consts  --     12.3113                 7.2584                 4.7217
 IR Inten    --    113.4001               117.7643                87.4423

                     34                     35                     36
                      A                      A                      A
 Frequencies --   1590.0374              1661.0626              1672.6907
 Red. masses --      5.4658                 2.3317                 3.8351
 Frc consts  --      8.1418                 3.7905                 6.3221
 IR Inten    --     25.3813                48.1666               380.2492

                     37                     38                     39
                      A                      A                      A
 Frequencies --   1693.0748              2351.9873              3211.5932
 Red. masses --      3.9294                12.6722                 1.0898
 Frc consts  --      6.6363                41.3021                 6.6225
 IR Inten    --    370.3660                24.3178                 4.9456

                     40                     41                     42
                      A                      A                      A
 Frequencies --   3231.6756              3599.5712              3719.7892
 Red. masses --      1.0956                 1.0463                 1.1036
 Frc consts  --      6.7416                 7.9873                 8.9971
 IR Inten    --      2.0685               118.4405                44.8436

 - Thermochemistry -
 -------------------
 Temperature   298.150 Kelvin.  Pressure   1.00000 Atm.
 Atom     1 has atomic number  6 and mass  12.00000

 Molecular mass:   164.03343 amu.
 Principal axes and moments of inertia in atomic units:
                           1         2         3
     Eigenvalues --  1254.060322115.791013318.80296
           X            0.99995   0.00969  -0.00108
           Y           -0.00969   0.99995  -0.00084
           Z            0.00107   0.00085   1.00000
 This molecule is an asymmetric top.
 Rotational symmetry number  1.
 Warning -- assumption of classical behavior for rotation
           may cause significant error
 Rotational temperatures (Kelvin)      0.06907     0.04094     0.02610
 Rotational constants (GHZ):           1.43912     0.85299     0.54379
 Zero-point vibrational energy     279317.4 (Joules/Mol)
                                   66.75846 (Kcal/Mol)
 Warning -- explicit consideration of  15 degrees of freedom as
           vibrations may cause significant error
 Vibrational temperatures:     48.73   121.86   223.57   233.49   302.97
          (Kelvin)            357.87   448.55   508.51   583.33   606.28
                              629.61   673.68   711.19   766.40   855.55
                              915.07   997.60  1060.21  1096.12  1137.52
                             1196.59  1212.10  1383.14  1418.64  1565.51
                             1592.97  1718.66  1822.34  1947.06  2001.10
                             2017.69  2107.42  2221.47  2287.71  2389.90
                             2406.63  2435.96  3383.99  4620.77  4649.66
                             5178.98  5351.95

 Zero-point correction=                           0.106386 (Hartree/Particle)
 Thermal correction to Energy=                    0.116483
 Thermal correction to Enthalpy=                  0.117427
 Thermal correction to Gibbs Free Energy=         0.069940
 Sum of electronic and zero-point Energies=           -600.306148
 Sum of electronic and thermal Energies=              -600.296051
 Sum of electronic and thermal Enthalpies=            -600.295107
 Sum of electronic and thermal Free Energies=         -600.342595

                     E (Thermal)             CV                S
                      KCal/Mol        Cal/Mol-Kelvin    Cal/Mol-Kelvin
 Total                   73.094             37.114             99.946
 Electronic               0.000              0.000              0.000
 Translational            0.889              2.981             41.193
 Rotational               0.889              2.981             30.555
 Vibrational             71.317             31.153             28.198
 Vibration     1          0.594              1.983              5.589
 Vibration     2          0.601              1.960              3.779
 Vibration     3          0.620              1.897              2.605
 Vibration     4          0.622              1.889              2.523
 Vibration     5          0.643              1.825              2.039
 Vibration     6          0.662              1.765              1.740
 Vibration     7          0.700              1.651              1.353
 Vibration     8          0.730              1.568              1.151
 Vibration     9          0.770              1.458              0.943
 Vibration    10          0.784              1.424              0.887
 Vibration    11          0.798              1.388              0.834
 Vibration    12          0.825              1.321              0.743
 Vibration    13          0.850              1.263              0.673
 Vibration    14          0.888              1.178              0.581
 Vibration    15          0.952              1.043              0.459

 Optimization completed.
    -- Stationary point found.
 Normal termination of Gaussian 16 at Wed Dec  9 17:49:29 2020.

 ----------------------------------------------------------------------
 # B3LYP/6-311++G(d,p) empiricaldispersion=gd3bj scf=xqc pop=npa geom=c
 heck
 ----------------------------------------------------------------------

 ---------------------------------------
 CID_131117247_JID_2593_Energie_neutraal
 ---------------------------------------
 Structure from the checkpoint file:  "JID_2593.chk"
 Charge =  0 Multiplicity = 1

 SCF Done:  E(RB3LYP) =  -600.587217350     A.U. after   16 cycles
 Normal termination of Gaussian 16 at Wed Dec  9 17:50:51 2020.

 ----------------------------------------------------------------------
 # B3LYP/6-311++G(d,p) empiricaldispersion=gd3bj scf=xqc pop=npa geom=c
 heck
 ----------------------------------------------------------------------

 -------------------------------------
 CID_131117247_JID_2593_Energie_kation
 -------------------------------------
 Structure from the checkpoint file:  "JID_2593.chk"
 Charge =  1 Multiplicity = 2

 SCF Done:  E(UB3LYP) =  -600.249484140     A.U. after   26 cycles
 Normal termination of Gaussian 16 at Wed Dec  9 17:54:28 2020.
 Gaussian 16:  ES64L-G16RevA.03 25-Dec-2016

 ----------------------------------------------------------------------
 # B3LYP/6-311++G(d,p) empiricaldispersion=gd3bj scf=xqc pop=npa geom=c
 heck
 ----------------------------------------------------------------------

 ------------------------------------
 CID_131117247_JID_2593_Energie_anion
 ------------------------------------
 Structure from the checkpoint file:  "JID_2593.chk"
 Charge = -1 Multiplicity = 2

                         Standard orientation:
 ---------------------------------------------------------------------
 Center     Atomic      Atomic             Coordinates (Angstroms)
 Number     Number       Type             X           Y           Z
 ---------------------------------------------------------------------
      1          6           0        0.546761    1.871434   -0.042213
      2          6           0        1.852823    1.435871   -0.011212
      3          6           0        2.099059    0.042372    0.036184
      4          7           0        1.095145   -0.849458    0.036983
      5          6           0       -0.139663   -0.401750    0.017247
      6          6           0       -0.521533    0.944931   -0.016336
      7          6           0       -1.859703    1.435747   -0.067977
      8          7           0       -2.896533    1.958780   -0.132923
      9          7           0       -1.179572   -1.474764    0.022683
     10          8           0       -2.276807   -1.166248    0.481232
     11          8           0       -0.862919   -2.567036   -0.423588
     12          7           0        3.358854   -0.467090    0.113387
     13          1           0        0.318240    2.930735   -0.086255
     14          1           0        2.676306    2.142309   -0.021620
     15          1           0        4.153548    0.112963   -0.107348
     16          1           0        3.458003   -1.463635   -0.021009
 ---------------------------------------------------------------------

 SCF Done:  E(UB3LYP) =  -600.637535100     A.U. after   23 cycles

 The electronic state is 2-A.
 Alpha  occ. eigenvalues --  -18.95410 -18.95387 -14.33406 -14.22641 -14.17364
 Alpha  occ. eigenvalues --  -14.16294 -10.13373 -10.09847 -10.07725 -10.07271
 Alpha  occ. eigenvalues --  -10.07046 -10.05338  -1.03604  -0.86727  -0.85760
 Alpha  occ. eigenvalues --   -0.79152  -0.76245  -0.69261  -0.65149  -0.57031
 Alpha  occ. eigenvalues --   -0.52902  -0.48184  -0.43837  -0.42205  -0.40282
 Alpha  occ. eigenvalues --   -0.36757  -0.35561  -0.34938  -0.31883  -0.30457
 Alpha  occ. eigenvalues --   -0.29957  -0.28903  -0.24461  -0.22770  -0.19896
 Alpha  occ. eigenvalues --   -0.19410  -0.17295  -0.15696  -0.13971  -0.12270
 Alpha  occ. eigenvalues --   -0.11173  -0.10415   0.01786
 Alpha virt. eigenvalues --    0.06618   0.08498   0.08891   0.10907   0.12190
 Alpha virt. eigenvalues --    0.12995   0.14774   0.15177   0.16006   0.16707
 Alpha virt. eigenvalues --    0.17656   0.17707   0.18107   0.18459   0.19189

  Beta  occ. eigenvalues --  -18.94965 -18.94944 -14.32983 -14.22643 -14.17182
  Beta  occ. eigenvalues --  -14.16186 -10.13377 -10.09503 -10.07760 -10.07186
  Beta  occ. eigenvalues --  -10.07064 -10.05124  -1.02753  -0.85977  -0.85459
  Beta  occ. eigenvalues --   -0.78896  -0.76077  -0.68981  -0.64589  -0.56174
  Beta  occ. eigenvalues --   -0.52807  -0.47774  -0.43679  -0.42040  -0.39808
  Beta  occ. eigenvalues --   -0.36154  -0.35076  -0.33055  -0.31321  -0.30024
  Beta  occ. eigenvalues --   -0.29378  -0.28697  -0.23968  -0.22598  -0.19695
  Beta  occ. eigenvalues --   -0.18836  -0.16169  -0.15343  -0.11826  -0.10978
  Beta  occ. eigenvalues --   -0.10529  -0.09526
  Beta virt. eigenvalues --    0.06583   0.08429   0.08842   0.08903   0.10884
  Beta virt. eigenvalues --    0.12773   0.14400   0.14786   0.15997   0.16121
  Beta virt. eigenvalues --    0.16767   0.17689   0.17791   0.18309   0.18596

 Mulliken charges and spin densities:
               1          2
     1  C   -0.771821  -0.028436
     2  C    0.225805   0.193745
     3  C   -0.025548  -0.015891
     4  N   -0.086307   0.075999
     5  C   -1.010174   0.202873
     6  C    2.392332   0.098446
     7  C   -1.280825  -0.037951
     8  N   -0.279226   0.052926
     9  N   -0.375834   0.138662
    10  O   -0.132656   0.160467
    11  O   -0.133302   0.163938
    12  N   -0.296320   0.007537
    13  H    0.152032   0.001712
    14  H    0.123538  -0.015277
    15  H    0.237123   0.001899
    16  H    0.261183  -0.000651
 Sum of Mulliken charges =  -1.00000   1.00000

 Dipole moment (field-independent basis, Debye):
    X=              9.8856    Y=              3.3686    Z=             -0.3965  Tot=             10.4513
 Quadrupole moment (field-independent basis, Debye-Ang):
   XX=            -91.8545   YY=            -92.8427   ZZ=            -74.4201
   XY=              2.3590   XZ=             -1.1941   YZ=             -0.6980

 Summary of Natural Population Analysis:

                                       Natural Population
                Natural  -----------------------------------------------
    Atom  No    Charge         Core      Valence    Rydberg      Total
 -----------------------------------------------------------------------
      C    1   -0.06406      0.99956     2.05663    0.00787     3.06406
      C    2   -0.11833      0.99952     2.11055    0.00825     3.11833
      C    3    0.19919      0.99957     1.78690    0.01434     2.80081
      N    4   -0.22014      0.99961     2.71126    0.00926     3.72014
      C    5    0.24884      0.99940     1.73170    0.02006     2.75116
      C    6   -0.11943      0.99937     2.10788    0.01218     3.11943
      C    7    0.15880      0.99963     1.82359    0.01798     2.84120
      N    8   -0.18334      0.99978     2.67258    0.01098     3.68334
      N    9    0.27816      0.99974     2.19461    0.02749     3.22184
      O   10   -0.18154      0.99990     3.17226    0.00938     4.18154
      O   11   -0.17326      0.99989     3.16541    0.00796     4.17326
      N   12   -0.39756      0.99970     2.88922    0.00864     3.89756
      H   13    0.10006      0.00000     0.39904    0.00090     0.39994
      H   14    0.09251      0.00000     0.40634    0.00115     0.40749
      H   15    0.18481      0.00000     0.31402    0.00117     0.31519
      H   16    0.19527      0.00000     0.30320    0.00153     0.30473
 =======================================================================
   * Total *   -0.00000     11.99569    29.84519    0.15912    42.00000

 Normal termination of Gaussian 16 at Wed Dec  9 17:57:26 2020.
