 Gaussian 16, Revision A.03,

 -----------------------------------------------------------
 # opt freq B3LYP/6-31G(d) empiricaldispersion=gd3bj scf=xqc
 -----------------------------------------------------------

 -------------------------------
 CID_110910246_JID_8096_neutraal
 -------------------------------
 Symbolic Z-matrix:
 Charge =  0 Multiplicity = 1

 SCF Done:  E(RB3LYP) =  -1182.89253626     A.U. after   15 cycles
 SCF Done:  E(RB3LYP) =  -1182.89992659     A.U. after   13 cycles
 SCF Done:  E(RB3LYP) =  -1182.89853012     A.U. after   13 cycles
 SCF Done:  E(RB3LYP) =  -1182.89967683     A.U. after   13 cycles
 SCF Done:  E(RB3LYP) =  -1182.90175444     A.U. after   11 cycles
 SCF Done:  E(RB3LYP) =  -1182.90308330     A.U. after   12 cycles
 SCF Done:  E(RB3LYP) =  -1182.90373682     A.U. after   12 cycles
 SCF Done:  E(RB3LYP) =  -1182.90411756     A.U. after   12 cycles
 SCF Done:  E(RB3LYP) =  -1182.90450366     A.U. after   12 cycles
 SCF Done:  E(RB3LYP) =  -1182.90513960     A.U. after   12 cycles
 SCF Done:  E(RB3LYP) =  -1182.90660217     A.U. after   10 cycles
 SCF Done:  E(RB3LYP) =  -1182.90660326     A.U. after    8 cycles
 SCF Done:  E(RB3LYP) =  -1182.90660428     A.U. after    8 cycles
 SCF Done:  E(RB3LYP) =  -1182.90660467     A.U. after    8 cycles
 SCF Done:  E(RB3LYP) =  -1182.90660484     A.U. after    8 cycles
 Optimization completed.
    -- Stationary point found.
 Normal termination of Gaussian 16 at Fri Dec 11 18:59:56 2020.

 --------------------------------------------------------------------
 #N Geom=AllCheck Guess=TCheck SCRF=Check GenChk RB3LYP/6-31G(d) Freq
 --------------------------------------------------------------------

 Structure from the checkpoint file:  "JID_8096.chk"
 -------------------------------
 CID_110910246_JID_8096_neutraal
 -------------------------------
 Charge =  0 Multiplicity = 1

 SCF Done:  E(RB3LYP) =  -1182.90660484     A.U. after    1 cycles

  Exact polarizability: 184.452  -8.455 181.027 -11.106  -3.277 128.314
 Approx polarizability: 242.687 -11.023 283.635 -23.323 -22.988 211.974

                      1                      2                      3
                      A                      A                      A
 Frequencies --     19.7321                34.0392                55.4777
 Red. masses --      4.9729                 4.1677                 5.3565
 Frc consts  --      0.0011                 0.0028                 0.0097
 IR Inten    --      0.0540                 0.3557                 1.3939

                      4                      5                      6
                      A                      A                      A
 Frequencies --     69.6414                73.1487                79.2007
 Red. masses --      4.0020                 1.4259                 2.5194
 Frc consts  --      0.0114                 0.0045                 0.0093
 IR Inten    --      3.8277                 0.1850                 1.4636

                      7                      8                      9
                      A                      A                      A
 Frequencies --     84.4104               103.6471               130.7738
 Red. masses --      3.8564                 2.6249                 2.5376
 Frc consts  --      0.0162                 0.0166                 0.0256
 IR Inten    --      0.2447                 0.0804                 2.1172

                     10                     11                     12
                      A                      A                      A
 Frequencies --    137.5693               179.0069               189.0672
 Red. masses --      2.9359                 4.0295                 3.4140
 Frc consts  --      0.0327                 0.0761                 0.0719
 IR Inten    --      9.2493                 2.5554                 3.3125

                     13                     14                     15
                      A                      A                      A
 Frequencies --    211.8327               234.3729               237.9518
 Red. masses --      2.5595                 2.1315                 1.3301
 Frc consts  --      0.0677                 0.0690                 0.0444
 IR Inten    --      3.6510                10.6368                 1.4603

                     16                     17                     18
                      A                      A                      A
 Frequencies --    247.9663               274.9425               289.9258
 Red. masses --      2.3191                 3.5830                 2.6595
 Frc consts  --      0.0840                 0.1596                 0.1317
 IR Inten    --      4.4613                 0.7850                 4.4587

                     19                     20                     21
                      A                      A                      A
 Frequencies --    318.5405               339.2753               346.6822
 Red. masses --      2.0016                 2.7940                 2.5081
 Frc consts  --      0.1197                 0.1895                 0.1776
 IR Inten    --      0.4368                 0.7966                 2.7324

                     22                     23                     24
                      A                      A                      A
 Frequencies --    368.7343               389.3731               440.5351
 Red. masses --      4.6619                 2.5205                 3.3065
 Frc consts  --      0.3735                 0.2251                 0.3781
 IR Inten    --      2.1220                 5.6244                22.0116

                     25                     26                     27
                      A                      A                      A
 Frequencies --    481.7898               501.6373               514.0904
 Red. masses --      2.9302                 3.6305                 1.3791
 Frc consts  --      0.4007                 0.5383                 0.2147
 IR Inten    --      4.8448                17.7380                71.3970

                     28                     29                     30
                      A                      A                      A
 Frequencies --    549.5138               567.8186               602.1826
 Red. masses --      2.7777                 2.7239                 2.8168
 Frc consts  --      0.4942                 0.5174                 0.6018
 IR Inten    --     33.8546                30.7622                23.5999

                     31                     32                     33
                      A                      A                      A
 Frequencies --    613.3002               626.4078               632.8422
 Red. masses --      3.3535                 3.2810                 4.3342
 Frc consts  --      0.7432                 0.7585                 1.0227
 IR Inten    --     14.8804                60.2082                32.6002

                     34                     35                     36
                      A                      A                      A
 Frequencies --    655.7141               695.5908               729.2329
 Red. masses --      4.2681                 2.7448                 3.2700
 Frc consts  --      1.0812                 0.7825                 1.0245
 IR Inten    --     24.8815                27.0633                 7.0630

                     37                     38                     39
                      A                      A                      A
 Frequencies --    763.1603               787.3357               789.8740
 Red. masses --      2.7429                 6.4150                 1.3100
 Frc consts  --      0.9412                 2.3430                 0.4815
 IR Inten    --      3.8160                 7.7419                 2.4929

                     40                     41                     42
                      A                      A                      A
 Frequencies --    816.9973               830.1017               854.4543
 Red. masses --      1.2146                 1.7921                 3.4128
 Frc consts  --      0.4777                 0.7276                 1.4681
 IR Inten    --      2.9089               104.1220                 9.3880

                     43                     44                     45
                      A                      A                      A
 Frequencies --    887.0330               913.3823               950.5145
 Red. masses --      1.4396                 2.0299                 1.6818
 Frc consts  --      0.6674                 0.9978                 0.8952
 IR Inten    --     28.4262                12.9976                 8.4149

                     46                     47                     48
                      A                      A                      A
 Frequencies --    990.4349              1001.3214              1004.2214
 Red. masses --      1.9779                 1.8820                 1.8596
 Frc consts  --      1.1432                 1.1118                 1.1049
 IR Inten    --     14.2804                42.9139                18.0776

                     49                     50                     51
                      A                      A                      A
 Frequencies --   1025.7187              1061.5175              1064.2967
 Red. masses --      1.7282                 2.0730                 1.4199
 Frc consts  --      1.0713                 1.3763                 0.9476
 IR Inten    --      7.0631                 8.9651                 1.4400

                     52                     53                     54
                      A                      A                      A
 Frequencies --   1066.7208              1091.4566              1111.7186
 Red. masses --      2.1153                 2.1633                 2.5771
 Frc consts  --      1.4182                 1.5184                 1.8766
 IR Inten    --     22.6815                 8.3656                 3.7648

                     55                     56                     57
                      A                      A                      A
 Frequencies --   1146.4679              1168.3531              1179.6150
 Red. masses --      3.4188                 1.7889                 2.5494
 Frc consts  --      2.6475                 1.4388                 2.0901
 IR Inten    --     55.9768                25.2610                24.7514

                     58                     59                     60
                      A                      A                      A
 Frequencies --   1191.0992              1206.0758              1215.8203
 Red. masses --      2.4433                 3.2061                 2.4417
 Frc consts  --      2.0423                 2.7478                 2.1266
 IR Inten    --    107.9180                18.9896                32.4393

                     61                     62                     63
                      A                      A                      A
 Frequencies --   1218.8410              1273.7272              1298.1642
 Red. masses --      3.1727                 1.4839                 1.2580
 Frc consts  --      2.7770                 1.4185                 1.2490
 IR Inten    --      4.8550                35.0019                11.8393

                     64                     65                     66
                      A                      A                      A
 Frequencies --   1314.1649              1329.6763              1340.1080
 Red. masses --      1.3289                 1.4031                 1.2952
 Frc consts  --      1.3522                 1.4616                 1.3704
 IR Inten    --     13.2964                16.7817                15.0365

                     67                     68                     69
                      A                      A                      A
 Frequencies --   1362.4397              1387.1180              1396.7712
 Red. masses --      1.3235                 1.5489                 1.4479
 Frc consts  --      1.4475                 1.7559                 1.6643
 IR Inten    --     35.1970                 7.5460               108.1477

                     70                     71                     72
                      A                      A                      A
 Frequencies --   1405.0735              1433.1527              1433.9529
 Red. masses --      1.4648                 1.3637                 1.2728
 Frc consts  --      1.7038                 1.6503                 1.5420
 IR Inten    --     14.2780                21.2420                 3.6346

                     73                     74                     75
                      A                      A                      A
 Frequencies --   1442.0117              1446.9534              1449.3266
 Red. masses --      1.4455                 1.8464                 1.4305
 Frc consts  --      1.7709                 2.2776                 1.7704
 IR Inten    --     69.4338                58.5436                42.5589

                     76                     77                     78
                      A                      A                      A
 Frequencies --   1481.6439              1485.3777              1503.9119
 Red. masses --      1.2566                 1.5221                 1.2154
 Frc consts  --      1.6254                 1.9787                 1.6196
 IR Inten    --     47.0360                 4.6190                22.4335

                     79                     80                     81
                      A                      A                      A
 Frequencies --   1507.5322              1509.7586              1516.0086
 Red. masses --      1.0450                 1.1477                 1.0622
 Frc consts  --      1.3992                 1.5413                 1.4383
 IR Inten    --     11.6310                45.2584                 2.1600

                     82                     83                     84
                      A                      A                      A
 Frequencies --   1525.3443              1534.1383              1535.5631
 Red. masses --      1.0566                 1.0743                 1.0777
 Frc consts  --      1.4485                 1.4897                 1.4972
 IR Inten    --      2.1944                 9.7116                 2.8328

                     85                     86                     87
                      A                      A                      A
 Frequencies --   1536.9989              1539.1965              1549.5931
 Red. masses --      1.0613                 1.0510                 1.0831
 Frc consts  --      1.4772                 1.4670                 1.5323
 IR Inten    --      6.3407                 4.2112                 3.1145

                     88                     89                     90
                      A                      A                      A
 Frequencies --   1552.9476              1599.6099              1807.9362
 Red. masses --      4.1732                 5.6566                 6.2059
 Frc consts  --      5.9297                 8.5278                11.9515
 IR Inten    --     17.0331                24.9532               541.9179

                     91                     92                     93
                      A                      A                      A
 Frequencies --   3028.7835              3044.1816              3048.1598
 Red. masses --      1.0638                 1.0716                 1.0656
 Frc consts  --      5.7497                 5.8509                 5.8334
 IR Inten    --     30.5516                37.1271                 5.0140

                     94                     95                     96
                      A                      A                      A
 Frequencies --   3055.3214              3056.3923              3058.9559
 Red. masses --      1.0457                 1.0372                 1.0367
 Frc consts  --      5.7513                 5.7087                 5.7154
 IR Inten    --     24.1356                19.8570                23.2335

                     97                     98                     99
                      A                      A                      A
 Frequencies --   3070.6246              3073.5504              3102.5771
 Red. masses --      1.0923                 1.0617                 1.1016
 Frc consts  --      6.0681                 5.9091                 6.2475
 IR Inten    --     41.9161                17.4652                 0.5157

                    100                    101                    102
                      A                      A                      A
 Frequencies --   3111.1970              3120.4949              3122.1110
 Red. masses --      1.1016                 1.1024                 1.1009
 Frc consts  --      6.2825                 6.3249                 6.3228
 IR Inten    --     11.1505                37.5109                51.5277

                    103                    104                    105
                      A                      A                      A
 Frequencies --   3126.9344              3138.2752              3148.4075
 Red. masses --      1.1027                 1.1023                 1.0914
 Frc consts  --      6.3526                 6.3961                 6.3738
 IR Inten    --     31.9035                23.7074                 0.9740

                    106                    107                    108
                      A                      A                      A
 Frequencies --   3159.0973              3166.7836              3241.9579
 Red. masses --      1.1008                 1.0925                 1.0939
 Frc consts  --      6.4729                 6.4550                 6.7742
 IR Inten    --      4.3698                 1.2607                 2.0907

                    109                    110                    111
                      A                      A                      A
 Frequencies --   3569.5046              3608.1999              3670.8301
 Red. masses --      1.0743                 1.0759                 1.0648
 Frc consts  --      8.0650                 8.2528                 8.4536
 IR Inten    --     18.0231                31.1492                27.1440

 - Thermochemistry -
 -------------------
 Temperature   298.150 Kelvin.  Pressure   1.00000 Atm.
 Atom     1 has atomic number  6 and mass  12.00000

 Molecular mass:   271.13545 amu.
 Principal axes and moments of inertia in atomic units:
                           1         2         3
     Eigenvalues --  3864.786096682.510249180.35507
           X            0.99974   0.02256  -0.00268
           Y           -0.02248   0.99938   0.02719
           Z            0.00329  -0.02712   0.99963
 This molecule is an asymmetric top.
 Rotational symmetry number  1.
 Warning -- assumption of classical behavior for rotation
           may cause significant error
 Rotational temperatures (Kelvin)      0.02241     0.01296     0.00943
 Rotational constants (GHZ):           0.46697     0.27007     0.19659
 Zero-point vibrational energy     876761.3 (Joules/Mol)
                                  209.55098 (Kcal/Mol)
 Warning -- explicit consideration of  31 degrees of freedom as
           vibrations may cause significant error
 Vibrational temperatures:     28.39    48.97    79.82   100.20   105.24
          (Kelvin)            113.95   121.45   149.13   188.15   197.93
                              257.55   272.03   304.78   337.21   342.36
                              356.77   395.58   417.14   458.31   488.14
                              498.80   530.53   560.22   633.83   693.19
                              721.74   739.66   790.63   816.96   866.41
                              882.40   901.26   910.52   943.43  1000.80
                             1049.20  1098.02  1132.80  1136.45  1175.48
                             1194.33  1229.37  1276.24  1314.15  1367.58
                             1425.01  1440.68  1444.85  1475.78  1527.29
                             1531.29  1534.77  1570.36  1599.52  1649.51
                             1681.00  1697.20  1713.73  1735.27  1749.29
                             1753.64  1832.61  1867.77  1890.79  1913.11
                             1928.12  1960.25  1995.75  2009.64  2021.59
                             2061.99  2063.14  2074.73  2081.84  2085.26
                             2131.76  2137.13  2163.79  2169.00  2172.21
                             2181.20  2194.63  2207.28  2209.33  2211.40
                             2214.56  2229.52  2234.35  2301.48  2601.22
                             4357.74  4379.90  4385.62  4395.93  4397.47
                             4401.16  4417.94  4422.15  4463.92  4476.32
                             4489.70  4492.02  4498.96  4515.28  4529.86
                             4545.24  4556.30  4664.45  5135.72  5191.39
                             5281.51

 Zero-point correction=                           0.333941 (Hartree/Particle)
 Thermal correction to Energy=                    0.353916
 Thermal correction to Enthalpy=                  0.354860
 Thermal correction to Gibbs Free Energy=         0.284138
 Sum of electronic and zero-point Energies=          -1182.572664
 Sum of electronic and thermal Energies=             -1182.552689
 Sum of electronic and thermal Enthalpies=           -1182.551745
 Sum of electronic and thermal Free Energies=        -1182.622467

                     E (Thermal)             CV                S
                      KCal/Mol        Cal/Mol-Kelvin    Cal/Mol-Kelvin
 Total                  222.086             73.915            148.848
 Electronic               0.000              0.000              0.000
 Translational            0.889              2.981             42.691
 Rotational               0.889              2.981             33.827
 Vibrational            220.308             67.953             72.330
 Vibration     1          0.593              1.986              6.661
 Vibration     2          0.594              1.983              5.579
 Vibration     3          0.596              1.975              4.612
 Vibration     4          0.598              1.969              4.163
 Vibration     5          0.599              1.967              4.067
 Vibration     6          0.600              1.963              3.911
 Vibration     7          0.601              1.960              3.786
 Vibration     8          0.605              1.946              3.385
 Vibration     9          0.612              1.923              2.935
 Vibration    10          0.614              1.916              2.837
 Vibration    11          0.629              1.868              2.339
 Vibration    12          0.633              1.855              2.237
 Vibration    13          0.643              1.823              2.028
 Vibration    14          0.654              1.788              1.845
 Vibration    15          0.656              1.783              1.818
 Vibration    16          0.662              1.766              1.745
 Vibration    17          0.677              1.720              1.565
 Vibration    18          0.686              1.692              1.474
 Vibration    19          0.705              1.638              1.318
 Vibration    20          0.719              1.597              1.216
 Vibration    21          0.725              1.582              1.181
 Vibration    22          0.741              1.536              1.085
 Vibration    23          0.757              1.493              1.003
 Vibration    24          0.800              1.382              0.825
 Vibration    25          0.838              1.290              0.705
 Vibration    26          0.857              1.246              0.654
 Vibration    27          0.869              1.219              0.624
 Vibration    28          0.905              1.141              0.545
 Vibration    29          0.924              1.101              0.508
 Vibration    30          0.960              1.027              0.446
 Vibration    31          0.973              1.004              0.427

                           ! Non-Optimized Parameters !
 Normal termination of Gaussian 16 at Fri Dec 11 19:21:13 2020.

 ----------------------------------------------------------------------
 # B3LYP/6-311++G(d,p) empiricaldispersion=gd3bj scf=xqc pop=npa geom=c
 heck
 ----------------------------------------------------------------------

 ---------------------------------------
 CID_110910246_JID_8096_Energie_neutraal
 ---------------------------------------
 Structure from the checkpoint file:  "JID_8096.chk"
 Charge =  0 Multiplicity = 1

 SCF Done:  E(RB3LYP) =  -1183.16823739     A.U. after   15 cycles
 Normal termination of Gaussian 16 at Fri Dec 11 19:31:28 2020.

 ----------------------------------------------------------------------
 # B3LYP/6-311++G(d,p) empiricaldispersion=gd3bj scf=xqc pop=npa geom=c
 heck
 ----------------------------------------------------------------------

 -------------------------------------
 CID_110910246_JID_8096_Energie_kation
 -------------------------------------
 Structure from the checkpoint file:  "JID_8096.chk"
 Charge =  1 Multiplicity = 2

 SCF Done:  E(UB3LYP) =  -1182.85824906     A.U. after   31 cycles
 Normal termination of Gaussian 16 at Fri Dec 11 20:02:40 2020.
 Gaussian 16:  ES64L-G16RevA.03 25-Dec-2016

 ----------------------------------------------------------------------
 # B3LYP/6-311++G(d,p) empiricaldispersion=gd3bj scf=xqc pop=npa geom=c
 heck
 ----------------------------------------------------------------------

 ------------------------------------
 CID_110910246_JID_8096_Energie_anion
 ------------------------------------
 Structure from the checkpoint file:  "JID_8096.chk"
 Charge = -1 Multiplicity = 2

                         Standard orientation:
 ---------------------------------------------------------------------
 Center     Atomic      Atomic             Coordinates (Angstroms)
 Number     Number       Type             X           Y           Z
 ---------------------------------------------------------------------
      1          6           0       -4.408126   -1.582654    0.653947
      2          6           0       -3.582539   -0.592938   -0.169867
      3          6           0       -2.060989   -0.675912    0.078975
      4          6           0       -1.487036   -2.078250   -0.169177
      5          6           0       -1.734862   -2.650630   -1.567814
      6          6           0       -1.318438    0.370329   -0.779060
      7          7           0       -1.633590    1.738420   -0.333105
      8          6           0       -0.710171    2.786952   -0.428869
      9          8           0       -1.027466    3.880803   -0.876951
     10          7           0        0.573473    2.533942    0.024781
     11          6           0        0.923578    1.663031    1.149337
     12          6           0        1.746049    0.460909    0.783096
     13          6           0        1.620358   -0.812122    1.261278
     14          7           0        2.527726   -1.738171    0.791808
     15          6           0        3.362292   -1.199792   -0.049649
     16         16           0        3.085403    0.522363   -0.335635
     17          6           0        4.458547   -1.941837   -0.747342
     18          8           0       -1.792302   -0.389908    1.461662
     19          1           0       -4.234128   -2.616678    0.338025
     20          1           0       -5.478961   -1.379867    0.546954
     21          1           0       -4.145600   -1.505214    1.713159
     22          1           0       -3.783011   -0.729346   -1.240284
     23          1           0       -3.908443    0.428160    0.074227
     24          1           0       -0.410140   -2.038779    0.024891
     25          1           0       -1.908691   -2.749401    0.586670
     26          1           0       -1.309257   -2.016119   -2.353219
     27          1           0       -1.267976   -3.636850   -1.658278
     28          1           0       -2.802918   -2.771451   -1.778824
     29          1           0       -0.244818    0.212943   -0.682051
     30          1           0       -1.576116    0.250931   -1.839022
     31          1           0       -2.507253    2.085442   -0.714162
     32          1           0        1.132829    3.372145   -0.064308
     33          1           0        1.458849    2.271575    1.889503
     34          1           0        0.012606    1.300409    1.628537
     35          1           0        0.842512   -1.122866    1.948663
     36          1           0        4.342294   -1.901012   -1.836337
     37          1           0        5.443528   -1.528506   -0.502385
     38          1           0        4.425164   -2.985714   -0.427675
     39          1           0       -2.014011    0.553381    1.564884
 ---------------------------------------------------------------------

 SCF Done:  E(UB3LYP) =  -1183.16216976     A.U. after   33 cycles
 SCF Done:  E(UB3LYP) =  -1183.16216976     a.u. after    1 cycles

 The electronic state is 2-A.
 Alpha  occ. eigenvalues --  -88.76085 -19.02816 -18.99267 -14.24164 -14.23555
 Alpha  occ. eigenvalues --  -14.19555 -10.20304 -10.13848 -10.11843 -10.11590
 Alpha  occ. eigenvalues --  -10.11224 -10.08477 -10.08078 -10.08016 -10.07984
 Alpha  occ. eigenvalues --  -10.07612 -10.07473 -10.07116  -7.84735  -5.81002
 Alpha  occ. eigenvalues --   -5.80666  -5.80343  -0.95804  -0.93517  -0.84746
 Alpha  occ. eigenvalues --   -0.83740  -0.81267  -0.71679  -0.69412  -0.66826
 Alpha  occ. eigenvalues --   -0.66459  -0.63096  -0.61853  -0.57246  -0.56330
 Alpha  occ. eigenvalues --   -0.54322  -0.51201  -0.46218  -0.46037  -0.43696
 Alpha  occ. eigenvalues --   -0.41893  -0.41126  -0.39950  -0.39255  -0.38319
 Alpha  occ. eigenvalues --   -0.37907  -0.36924  -0.34434  -0.34366  -0.34076
 Alpha  occ. eigenvalues --   -0.33200  -0.32364  -0.32128  -0.31878  -0.30345
 Alpha  occ. eigenvalues --   -0.29361  -0.28979  -0.28592  -0.27650  -0.27433
 Alpha  occ. eigenvalues --   -0.27201  -0.26637  -0.25254  -0.24804  -0.24452
 Alpha  occ. eigenvalues --   -0.22707  -0.19549  -0.18734  -0.17621  -0.16977
 Alpha  occ. eigenvalues --   -0.16297  -0.15307  -0.12973   0.04088
 Alpha virt. eigenvalues --    0.05464   0.06769   0.07307   0.07430   0.07740
 Alpha virt. eigenvalues --    0.08902   0.09603   0.09907   0.10194   0.10375
 Alpha virt. eigenvalues --    0.10796   0.11352   0.11530   0.11779   0.12285

  Beta  occ. eigenvalues --  -88.76066 -19.02809 -18.99264 -14.24151 -14.23521
  Beta  occ. eigenvalues --  -14.19555 -10.20302 -10.13847 -10.11832 -10.11336
  Beta  occ. eigenvalues --  -10.11212 -10.08310 -10.08090 -10.07986 -10.07963
  Beta  occ. eigenvalues --  -10.07598 -10.07471 -10.07099  -7.84717  -5.80998
  Beta  occ. eigenvalues --   -5.80661  -5.80279  -0.95795  -0.93502  -0.84577
  Beta  occ. eigenvalues --   -0.83700  -0.81220  -0.71661  -0.69204  -0.66619
  Beta  occ. eigenvalues --   -0.66424  -0.63067  -0.61767  -0.57172  -0.56298
  Beta  occ. eigenvalues --   -0.54275  -0.51132  -0.46187  -0.45820  -0.43510
  Beta  occ. eigenvalues --   -0.41858  -0.41057  -0.39855  -0.39227  -0.38253
  Beta  occ. eigenvalues --   -0.37796  -0.36901  -0.34400  -0.34273  -0.33780
  Beta  occ. eigenvalues --   -0.33097  -0.32325  -0.32103  -0.31818  -0.30279
  Beta  occ. eigenvalues --   -0.29273  -0.28940  -0.28565  -0.27617  -0.27246
  Beta  occ. eigenvalues --   -0.27009  -0.26591  -0.25224  -0.24768  -0.24311
  Beta  occ. eigenvalues --   -0.22689  -0.19534  -0.18710  -0.17528  -0.16653
  Beta  occ. eigenvalues --   -0.16242  -0.15237  -0.12073
  Beta virt. eigenvalues --    0.05999   0.06816   0.07153   0.07649   0.07881
  Beta virt. eigenvalues --    0.08530   0.09299   0.09823   0.10030   0.10296
  Beta virt. eigenvalues --    0.10462   0.10873   0.11480   0.11694   0.11902

 Mulliken charges and spin densities:
               1          2
     1  C   -0.067675  -0.573894
     2  C   -0.115063   0.042338
     3  C    0.042354   0.358017
     4  C   -0.257978  -0.026961
     5  C   -0.202422  -0.461310
     6  C   -0.320994  -0.715544
     7  N   -0.276591   0.069896
     8  C    0.304583  -0.096682
     9  O   -0.355440   0.007562
    10  N   -0.124908  -0.096653
    11  C    0.232662  -0.679934
    12  C    1.510257  -0.167707
    13  C   -2.135154   0.508685
    14  N    0.200457  -0.025652
    15  C   -0.166786   0.254221
    16  S   -0.089578   0.004461
    17  C   -0.104610  -0.345451
    18  O   -0.085746  -0.001870
    19  H    0.090619   0.040486
    20  H   -0.289472   0.436556
    21  H    0.077584   0.094517
    22  H   -0.285120   0.459759
    23  H    0.094685   0.002965
    24  H    0.357714  -0.117589
    25  H    0.152704   0.026178
    26  H    0.000159   0.138684
    27  H    0.135358   0.011738
    28  H   -0.036274   0.186814
    29  H    0.325214  -0.087111
    30  H    0.137103   0.070100
    31  H    0.191875   0.110550
    32  H    0.170726   0.168087
    33  H   -0.740154   0.977781
    34  H    0.243532  -0.101267
    35  H    0.040151   0.134052
    36  H    0.147906   0.009413
    37  H   -0.068914   0.228908
    38  H    0.120929   0.030139
    39  H    0.146310   0.125720
 Sum of Mulliken charges =  -1.00000   1.00000

 Dipole moment (field-independent basis, Debye):
    X=             -0.2664    Y=             -3.1944    Z=             -1.5010  Tot=              3.5395
 Quadrupole moment (field-independent basis, Debye-Ang):
   XX=           -191.6444   YY=           -174.1373   ZZ=           -146.5832
   XY=             -2.6669   XZ=            -12.1779   YZ=              2.3275

 Summary of Natural Population Analysis:

                                       Natural Population
                Natural  -----------------------------------------------
    Atom  No    Charge         Core      Valence    Rydberg      Total
 -----------------------------------------------------------------------
      C    1   -0.28936      0.99966     2.28362    0.00608     3.28936
      C    2   -0.20506      0.99959     2.19550    0.00997     3.20506
      C    3    0.13130      0.99951     1.85332    0.01586     2.86870
      C    4   -0.20215      0.99958     2.19341    0.00917     3.20215
      C    5   -0.28768      0.99966     2.28308    0.00494     3.28768
      C    6   -0.10343      0.99954     2.09291    0.01098     3.10343
      N    7   -0.35137      0.99968     2.84189    0.00980     3.85137
      C    8    0.41234      0.99969     1.56575    0.02222     2.58766
      O    9   -0.33517      0.99987     3.32984    0.00546     4.33517
      N   10   -0.32883      0.99966     2.81949    0.00967     3.82883
      C   11   -0.10766      0.99953     2.09499    0.01314     3.10766
      C   12   -0.09892      0.99948     2.08697    0.01247     3.09892
      C   13   -0.02424      0.99944     2.01000    0.01480     3.02424
      N   14   -0.25427      0.99965     2.74359    0.01104     3.75427
      C   15    0.07627      0.99963     1.90632    0.01777     2.92373
      S   16    0.17781      4.99939     2.80498    0.01782     7.82219
      C   17   -0.30719      0.99961     2.30237    0.00521     3.30719
      O   18   -0.38083      0.99989     3.37459    0.00635     4.38083
      H   19    0.09574      0.00000     0.40348    0.00078     0.40426
      H   20    0.09921      0.00000     0.39995    0.00084     0.40079
      H   21    0.10402      0.00000     0.39497    0.00101     0.39598
      H   22    0.10030      0.00000     0.39832    0.00139     0.39970
      H   23    0.09532      0.00000     0.40326    0.00142     0.40468
      H   24    0.11117      0.00000     0.38716    0.00166     0.38883
      H   25    0.10128      0.00000     0.39762    0.00109     0.39872
      H   26    0.09699      0.00000     0.40222    0.00079     0.40301
      H   27    0.10004      0.00000     0.39931    0.00065     0.39996
      H   28    0.09713      0.00000     0.40199    0.00088     0.40287
      H   29    0.11528      0.00000     0.38273    0.00199     0.38472
      H   30    0.09407      0.00000     0.40490    0.00103     0.40593
      H   31    0.19371      0.00000     0.30388    0.00241     0.30629
      H   32    0.19779      0.00000     0.29982    0.00239     0.30221
      H   33    0.10823      0.00000     0.38728    0.00449     0.39177
      H   34    0.10973      0.00000     0.38812    0.00215     0.39027
      H   35    0.10517      0.00000     0.39334    0.00148     0.39483
      H   36    0.10370      0.00000     0.39541    0.00088     0.39630
      H   37    0.10669      0.00000     0.39174    0.00157     0.39331
      H   38    0.11072      0.00000     0.38804    0.00125     0.38928
      H   39    0.23214      0.00000     0.26485    0.00301     0.26786
 =======================================================================
   * Total *   -0.00000     21.99306    50.77102    0.23593    73.00000

 Normal termination of Gaussian 16 at Fri Dec 11 20:35:26 2020.
