 Gaussian 16, Revision A.03,

 -----------------------------------------------------------
 # opt freq B3LYP/6-31G(d) empiricaldispersion=gd3bj scf=xqc
 -----------------------------------------------------------

 ------------------------------
 CID_89813911_JID_6686_neutraal
 ------------------------------
 Symbolic Z-matrix:
 Charge =  0 Multiplicity = 1

 SCF Done:  E(RB3LYP) =  -748.021943237     A.U. after   14 cycles
 SCF Done:  E(RB3LYP) =  -748.023652546     A.U. after   13 cycles
 SCF Done:  E(RB3LYP) =  -748.025605343     A.U. after   12 cycles
 SCF Done:  E(RB3LYP) =  -748.026558704     A.U. after   12 cycles
 SCF Done:  E(RB3LYP) =  -748.027048011     A.U. after   12 cycles
 SCF Done:  E(RB3LYP) =  -748.027277032     A.U. after   11 cycles
 SCF Done:  E(RB3LYP) =  -748.027387328     A.U. after   11 cycles
 SCF Done:  E(RB3LYP) =  -748.027466927     A.U. after   10 cycles
 SCF Done:  E(RB3LYP) =  -748.027537444     A.U. after   11 cycles
 SCF Done:  E(RB3LYP) =  -748.027585780     A.U. after   11 cycles
 SCF Done:  E(RB3LYP) =  -748.027618812     A.U. after    9 cycles
 SCF Done:  E(RB3LYP) =  -748.027620598     A.U. after    8 cycles
 SCF Done:  E(RB3LYP) =  -748.027621004     A.U. after    7 cycles
 SCF Done:  E(RB3LYP) =  -748.027621097     A.U. after    7 cycles
 SCF Done:  E(RB3LYP) =  -748.027621132     A.U. after    6 cycles
 Optimization completed.
    -- Stationary point found.
 Normal termination of Gaussian 16 at Thu Dec 10 23:04:35 2020.

 --------------------------------------------------------------------
 #N Geom=AllCheck Guess=TCheck SCRF=Check GenChk RB3LYP/6-31G(d) Freq
 --------------------------------------------------------------------

 Structure from the checkpoint file:  "JID_6686.chk"
 ------------------------------
 CID_89813911_JID_6686_neutraal
 ------------------------------
 Charge =  0 Multiplicity = 1

 SCF Done:  E(RB3LYP) =  -748.027621132     A.U. after    1 cycles

  Exact polarizability: 167.722   9.188 145.972  -7.631   8.895  94.803
 Approx polarizability: 226.182  18.432 234.036 -15.832  19.527 151.164

                      1                      2                      3
                      A                      A                      A
 Frequencies --     25.1460                42.7995                71.3125
 Red. masses --      5.0997                 5.3304                 7.9841
 Frc consts  --      0.0019                 0.0058                 0.0239
 IR Inten    --      0.2383                 0.5317                 2.3658

                      4                      5                      6
                      A                      A                      A
 Frequencies --     81.6462               115.6795               138.2534
 Red. masses --      4.7252                 3.6555                 4.6203
 Frc consts  --      0.0186                 0.0288                 0.0520
 IR Inten    --      1.3732                 0.4211                 1.9661

                      7                      8                      9
                      A                      A                      A
 Frequencies --    165.8671               193.7438               206.2235
 Red. masses --      1.0839                 5.8064                 2.8041
 Frc consts  --      0.0176                 0.1284                 0.0703
 IR Inten    --      0.6101                 3.6969                 2.5231

                     10                     11                     12
                      A                      A                      A
 Frequencies --    234.4922               276.4250               283.3448
 Red. masses --      1.6160                 2.9256                 4.3903
 Frc consts  --      0.0524                 0.1317                 0.2077
 IR Inten    --      1.3048                 2.3954                 2.9266

                     13                     14                     15
                      A                      A                      A
 Frequencies --    291.5907               348.9019               359.9300
 Red. masses --      1.8376                 2.2748                 3.2323
 Frc consts  --      0.0921                 0.1632                 0.2467
 IR Inten    --      3.1964                17.5838                 9.6753

                     16                     17                     18
                      A                      A                      A
 Frequencies --    382.5299               407.7743               422.8032
 Red. masses --      1.3197                 2.1770                 2.1936
 Frc consts  --      0.1138                 0.2133                 0.2310
 IR Inten    --    104.6960                19.2448                 9.4731

                     19                     20                     21
                      A                      A                      A
 Frequencies --    453.5071               480.1624               506.5183
 Red. masses --      2.5257                 2.9589                 1.8732
 Frc consts  --      0.3061                 0.4019                 0.2832
 IR Inten    --      8.3052                 5.0729                18.9078

                     22                     23                     24
                      A                      A                      A
 Frequencies --    519.1646               529.7657               560.0416
 Red. masses --      2.6439                 2.6445                 1.8651
 Frc consts  --      0.4199                 0.4373                 0.3447
 IR Inten    --     17.0083                 8.9855               100.2874

                     25                     26                     27
                      A                      A                      A
 Frequencies --    574.1552               595.2191               639.6413
 Red. masses --      2.2647                 3.2197                 2.7465
 Frc consts  --      0.4399                 0.6721                 0.6621
 IR Inten    --     40.1772                67.3035                49.1962

                     28                     29                     30
                      A                      A                      A
 Frequencies --    658.9567               726.5433               755.4229
 Red. masses --      3.4456                 4.2623                 1.3546
 Frc consts  --      0.8815                 1.3256                 0.4555
 IR Inten    --     22.4748                 1.0888                38.0992

                     31                     32                     33
                      A                      A                      A
 Frequencies --    764.4033               782.0427               802.5952
 Red. masses --      9.4370                 4.0779                 2.7569
 Frc consts  --      3.2488                 1.4694                 1.0463
 IR Inten    --     58.2092                 5.3415                 7.3029

                     34                     35                     36
                      A                      A                      A
 Frequencies --    853.0410               879.4721               884.3730
 Red. masses --      3.6141                 2.4392                 1.6170
 Frc consts  --      1.5495                 1.1116                 0.7451
 IR Inten    --      3.7213                 1.2596                 1.1324

                     37                     38                     39
                      A                      A                      A
 Frequencies --    913.9472               927.3637               942.7006
 Red. masses --      1.9177                 2.5700                 1.4724
 Frc consts  --      0.9438                 1.3022                 0.7709
 IR Inten    --      4.3443                 9.8420                 1.9431

                     40                     41                     42
                      A                      A                      A
 Frequencies --    954.6764               979.7525              1011.4566
 Red. masses --      1.9417                 1.2489                 1.6810
 Frc consts  --      1.0426                 0.7063                 1.0133
 IR Inten    --      3.9840                 0.0332                36.8553

                     43                     44                     45
                      A                      A                      A
 Frequencies --   1026.3830              1079.0905              1081.0000
 Red. masses --      1.5939                 1.5317                 2.3313
 Frc consts  --      0.9893                 1.0508                 1.6051
 IR Inten    --      2.0610                 6.2808                 1.6706

                     46                     47                     48
                      A                      A                      A
 Frequencies --   1107.9676              1121.7823              1161.1451
 Red. masses --      2.0128                 2.0908                 1.8784
 Frc consts  --      1.4558                 1.5502                 1.4922
 IR Inten    --     15.5727                91.7727                17.2272

                     49                     50                     51
                      A                      A                      A
 Frequencies --   1171.0973              1196.8554              1210.3635
 Red. masses --      1.9067                 1.0993                 2.0374
 Frc consts  --      1.5407                 0.9278                 1.7586
 IR Inten    --     20.6894                 0.1814                47.6062

                     52                     53                     54
                      A                      A                      A
 Frequencies --   1214.8877              1217.9334              1257.1874
 Red. masses --      2.2949                 2.0728                 2.5396
 Frc consts  --      1.9957                 1.8115                 2.3649
 IR Inten    --     22.1789               122.9720                 2.2551

                     55                     56                     57
                      A                      A                      A
 Frequencies --   1280.8423              1311.0286              1337.3097
 Red. masses --      1.6383                 1.3359                 1.7117
 Frc consts  --      1.5836                 1.3529                 1.8036
 IR Inten    --     10.3018                36.2392                 4.2058

                     58                     59                     60
                      A                      A                      A
 Frequencies --   1366.2691              1369.4199              1395.6732
 Red. masses --      1.7515                 1.8733                 1.4687
 Frc consts  --      1.9264                 2.0698                 1.6856
 IR Inten    --      1.1644                 8.7669                20.0880

                     61                     62                     63
                      A                      A                      A
 Frequencies --   1421.7173              1436.2200              1440.3839
 Red. masses --      1.5480                 1.2689                 1.2519
 Frc consts  --      1.8435                 1.5421                 1.5303
 IR Inten    --     38.5123                 6.9031                 9.3233

                     64                     65                     66
                      A                      A                      A
 Frequencies --   1452.6240              1493.8308              1497.1547
 Red. masses --      2.0635                 1.7912                 1.5396
 Frc consts  --      2.5655                 2.3550                 2.0333
 IR Inten    --     79.6243                 5.8831                26.2742

                     67                     68                     69
                      A                      A                      A
 Frequencies --   1509.7947              1515.5245              1517.9697
 Red. masses --      1.1870                 1.1697                 1.0704
 Frc consts  --      1.5942                 1.5830                 1.4532
 IR Inten    --     20.0022                 4.8573                 1.4297

                     70                     71                     72
                      A                      A                      A
 Frequencies --   1524.2928              1533.8652              1539.7803
 Red. masses --      1.0793                 1.1000                 1.5114
 Frc consts  --      1.4775                 1.5248                 2.1113
 IR Inten    --      8.9932                 2.3181                12.0583

                     73                     74                     75
                      A                      A                      A
 Frequencies --   1548.5705              1640.4724              1668.1643
 Red. masses --      1.5405                 5.7195                 5.6830
 Frc consts  --      2.1766                 9.0688                 9.3176
 IR Inten    --     14.7927                 0.2970                 1.0819

                     76                     77                     78
                      A                      A                      A
 Frequencies --   1865.6192              3039.5399              3046.1102
 Red. masses --      7.7304                 1.0477                 1.0430
 Frc consts  --     15.8525                 5.7028                 5.7020
 IR Inten    --    560.2478                26.0193                18.5826

                     79                     80                     81
                      A                      A                      A
 Frequencies --   3051.6532              3077.9490              3100.6766
 Red. masses --      1.0586                 1.0607                 1.0991
 Frc consts  --      5.8085                 5.9206                 6.2261
 IR Inten    --     22.6022                30.8600                21.8915

                     82                     83                     84
                      A                      A                      A
 Frequencies --   3106.8982              3107.7041              3125.9181
 Red. masses --      1.1020                 1.0894                 1.1050
 Frc consts  --      6.2673                 6.1990                 6.3614
 IR Inten    --     24.9408                21.8971                22.6213

                     85                     86                     87
                      A                      A                      A
 Frequencies --   3151.8140              3154.9344              3172.0291
 Red. masses --      1.1004                 1.0988                 1.0859
 Frc consts  --      6.4407                 6.4440                 6.4373
 IR Inten    --      1.8429                15.1423                13.4648

                     88                     89                     90
                      A                      A                      A
 Frequencies --   3177.7302              3191.5835              3206.5944
 Red. masses --      1.0881                 1.0917                 1.0975
 Frc consts  --      6.4737                 6.5519                 6.6489
 IR Inten    --      3.4669                35.3648                31.6103

                     91                     92                     93
                      A                      A                      A
 Frequencies --   3639.8849              3721.3638              3733.9714
 Red. masses --      1.0765                 1.0662                 1.0646
 Frc consts  --      8.4030                 8.6992                 8.7455
 IR Inten    --     29.2937                98.4272                64.8587

 - Thermochemistry -
 -------------------
 Temperature   298.150 Kelvin.  Pressure   1.00000 Atm.
 Atom     1 has atomic number  6 and mass  12.00000

 Molecular mass:   223.12084 amu.
 Principal axes and moments of inertia in atomic units:
                           1         2         3
     Eigenvalues --  1689.865326005.651796915.66434
           X            0.99996  -0.00917  -0.00063
           Y            0.00917   0.99994   0.00557
           Z            0.00058  -0.00558   0.99998
 This molecule is an asymmetric top.
 Rotational symmetry number  1.
 Warning -- assumption of classical behavior for rotation
           may cause significant error
 Rotational temperatures (Kelvin)      0.05125     0.01442     0.01252
 Rotational constants (GHZ):           1.06798     0.30051     0.26096
 Zero-point vibrational energy     736074.0 (Joules/Mol)
                                  175.92591 (Kcal/Mol)
 Warning -- explicit consideration of  26 degrees of freedom as
           vibrations may cause significant error
 Vibrational temperatures:     36.18    61.58   102.60   117.47   166.44
          (Kelvin)            198.92   238.65   278.75   296.71   337.38
                              397.71   407.67   419.53   501.99   517.86
                              550.38   586.70   608.32   652.50   690.85
                              728.77   746.96   762.21   805.77   826.08
                              856.39   920.30   948.09  1045.33  1086.89
                             1099.81  1125.19  1154.76  1227.34  1265.36
                             1272.42  1314.97  1334.27  1356.34  1373.57
                             1409.65  1455.26  1476.74  1552.57  1555.32
                             1594.12  1613.99  1670.63  1684.95  1722.01
                             1741.44  1747.95  1752.33  1808.81  1842.85
                             1886.28  1924.09  1965.76  1970.29  2008.06
                             2045.53  2066.40  2072.39  2090.00  2149.29
                             2154.07  2172.26  2180.50  2184.02  2193.12
                             2206.89  2215.40  2228.05  2360.27  2400.12
                             2684.21  4373.22  4382.67  4390.65  4428.48
                             4461.18  4470.13  4471.29  4497.50  4534.76
                             4539.25  4563.84  4572.04  4591.98  4613.57
                             5236.98  5354.21  5372.35

 Zero-point correction=                           0.280356 (Hartree/Particle)
 Thermal correction to Energy=                    0.296248
 Thermal correction to Enthalpy=                  0.297193
 Thermal correction to Gibbs Free Energy=         0.236804
 Sum of electronic and zero-point Energies=           -747.747265
 Sum of electronic and thermal Energies=              -747.731373
 Sum of electronic and thermal Enthalpies=            -747.730429
 Sum of electronic and thermal Free Energies=         -747.790817

                     E (Thermal)             CV                S
                      KCal/Mol        Cal/Mol-Kelvin    Cal/Mol-Kelvin
 Total                  185.899             61.595            127.098
 Electronic               0.000              0.000              0.000
 Translational            0.889              2.981             42.110
 Rotational               0.889              2.981             32.618
 Vibrational            184.121             55.633             52.370
 Vibration     1          0.593              1.985              6.180
 Vibration     2          0.595              1.980              5.125
 Vibration     3          0.598              1.968              4.117
 Vibration     4          0.600              1.962              3.851
 Vibration     5          0.608              1.936              3.171
 Vibration     6          0.614              1.915              2.828
 Vibration     7          0.624              1.884              2.482
 Vibration     8          0.635              1.849              2.192
 Vibration     9          0.641              1.831              2.077
 Vibration    10          0.654              1.788              1.844
 Vibration    11          0.678              1.717              1.556
 Vibration    12          0.682              1.705              1.513
 Vibration    13          0.687              1.689              1.465
 Vibration    14          0.726              1.577              1.171
 Vibration    15          0.734              1.555              1.122
 Vibration    16          0.752              1.507              1.029
 Vibration    17          0.772              1.453              0.935
 Vibration    18          0.785              1.421              0.882
 Vibration    19          0.812              1.353              0.785
 Vibration    20          0.837              1.294              0.710
 Vibration    21          0.862              1.236              0.642
 Vibration    22          0.874              1.208              0.612
 Vibration    23          0.885              1.184              0.588
 Vibration    24          0.916              1.118              0.524
 Vibration    25          0.930              1.087              0.496
 Vibration    26          0.953              1.042              0.458

 Optimization completed.
    -- Stationary point found.
 Normal termination of Gaussian 16 at Thu Dec 10 23:16:24 2020.

 ----------------------------------------------------------------------
 # B3LYP/6-311++G(d,p) empiricaldispersion=gd3bj scf=xqc pop=npa geom=c
 heck
 ----------------------------------------------------------------------

 --------------------------------------
 CID_89813911_JID_6686_Energie_neutraal
 --------------------------------------
 Structure from the checkpoint file:  "JID_6686.chk"
 Charge =  0 Multiplicity = 1

 SCF Done:  E(RB3LYP) =  -748.257295086     A.U. after   14 cycles
 Normal termination of Gaussian 16 at Thu Dec 10 23:21:00 2020.

 ----------------------------------------------------------------------
 # B3LYP/6-311++G(d,p) empiricaldispersion=gd3bj scf=xqc pop=npa geom=c
 heck
 ----------------------------------------------------------------------

 ------------------------------------
 CID_89813911_JID_6686_Energie_kation
 ------------------------------------
 Structure from the checkpoint file:  "JID_6686.chk"
 Charge =  1 Multiplicity = 2

 SCF Done:  E(UB3LYP) =  -747.953619573     A.U. after   25 cycles
 Normal termination of Gaussian 16 at Thu Dec 10 23:31:53 2020.
 Gaussian 16:  ES64L-G16RevA.03 25-Dec-2016

 ----------------------------------------------------------------------
 # B3LYP/6-311++G(d,p) empiricaldispersion=gd3bj scf=xqc pop=npa geom=c
 heck
 ----------------------------------------------------------------------

 -----------------------------------
 CID_89813911_JID_6686_Energie_anion
 -----------------------------------
 Structure from the checkpoint file:  "JID_6686.chk"
 Charge = -1 Multiplicity = 2

                         Standard orientation:
 ---------------------------------------------------------------------
 Center     Atomic      Atomic             Coordinates (Angstroms)
 Number     Number       Type             X           Y           Z
 ---------------------------------------------------------------------
      1          6           0       -0.921381    2.277033   -0.120711
      2          6           0       -1.970955    1.192023   -0.078143
      3          6           0       -3.259960    1.494044    0.375800
      4          6           0       -4.271239    0.534696    0.409052
      5          6           0       -4.004812   -0.759422   -0.031748
      6          6           0       -2.726268   -1.073653   -0.489646
      7          6           0       -1.698104   -0.123774   -0.507182
      8          6           0       -0.326698   -0.532652   -0.997017
      9          6           0        0.619683   -1.108093    0.083151
     10          6           0        0.085443   -2.411389    0.684925
     11          6           0        2.011969   -1.381395   -0.540499
     12          7           0        2.736228   -0.188772   -0.949790
     13          6           0        3.391022    0.650891   -0.101998
     14          8           0        3.810241    1.756136   -0.382069
     15          8           0        3.585347    0.082733    1.136278
     16          8           0        0.729566   -0.114991    1.103268
     17          1           0       -0.609081    2.492724   -1.151588
     18          1           0       -1.310253    3.207975    0.302743
     19          1           0       -0.028624    1.982765    0.436109
     20          1           0       -3.472234    2.507521    0.707613
     21          1           0       -5.261489    0.801275    0.768190
     22          1           0       -4.783472   -1.517036   -0.026617
     23          1           0       -2.518343   -2.079402   -0.847487
     24          1           0       -0.434757   -1.296893   -1.776774
     25          1           0        0.174576    0.325745   -1.455410
     26          1           0       -0.025579   -3.194340   -0.075039
     27          1           0        0.773676   -2.780458    1.454600
     28          1           0       -0.886708   -2.236543    1.150671
     29          1           0        2.634864   -1.917307    0.181317
     30          1           0        1.903374   -2.030674   -1.415345
     31          1           0        2.482528    0.256365   -1.820062
     32          1           0        4.095805    0.748970    1.628362
     33          1           0        1.538692   -0.290161    1.611532
 ---------------------------------------------------------------------

 SCF Done:  E(UB3LYP) =  -748.248849436     A.U. after   33 cycles
 SCF Done:  E(UB3LYP) =  -748.248849435     a.u. after    1 cycles

 The electronic state is 2-A.
 Alpha  occ. eigenvalues --  -19.06850 -19.01643 -18.99982 -14.24312 -10.22436
 Alpha  occ. eigenvalues --  -10.13562 -10.10934 -10.08708 -10.08380 -10.08138
 Alpha  occ. eigenvalues --  -10.07994 -10.07803 -10.07600 -10.07277 -10.06382
 Alpha  occ. eigenvalues --  -10.06041  -1.01150  -0.92691  -0.91664  -0.83525
 Alpha  occ. eigenvalues --   -0.76753  -0.70260  -0.67739  -0.65840  -0.60408
 Alpha  occ. eigenvalues --   -0.60022  -0.58136  -0.54021  -0.50793  -0.49751
 Alpha  occ. eigenvalues --   -0.46911  -0.43496  -0.42078  -0.40465  -0.39205
 Alpha  occ. eigenvalues --   -0.38523  -0.37490  -0.36408  -0.35299  -0.34579
 Alpha  occ. eigenvalues --   -0.33711  -0.31966  -0.31896  -0.31740  -0.30655
 Alpha  occ. eigenvalues --   -0.29522  -0.29157  -0.28804  -0.27627  -0.26528
 Alpha  occ. eigenvalues --   -0.25917  -0.24786  -0.24208  -0.23799  -0.22233
 Alpha  occ. eigenvalues --   -0.18940  -0.18369  -0.16237  -0.15653  -0.14529
 Alpha  occ. eigenvalues --    0.04147
 Alpha virt. eigenvalues --    0.06232   0.06693   0.07393   0.07825   0.08205
 Alpha virt. eigenvalues --    0.08543   0.08861   0.09595   0.10295   0.11188
 Alpha virt. eigenvalues --    0.11323   0.11512   0.12624   0.12948   0.13136

  Beta  occ. eigenvalues --  -19.06791 -19.01616 -18.99968 -14.24284 -10.22431
  Beta  occ. eigenvalues --  -10.13561 -10.10897 -10.08708 -10.08368 -10.08126
  Beta  occ. eigenvalues --  -10.07993 -10.07796 -10.07581 -10.07249 -10.06373
  Beta  occ. eigenvalues --  -10.06016  -1.01078  -0.92632  -0.91602  -0.83466
  Beta  occ. eigenvalues --   -0.76730  -0.70218  -0.67720  -0.65800  -0.60349
  Beta  occ. eigenvalues --   -0.59975  -0.58103  -0.53912  -0.50750  -0.49720
  Beta  occ. eigenvalues --   -0.46864  -0.43445  -0.42035  -0.40426  -0.39134
  Beta  occ. eigenvalues --   -0.38499  -0.37434  -0.36376  -0.35251  -0.34530
  Beta  occ. eigenvalues --   -0.33672  -0.31945  -0.31870  -0.31696  -0.30624
  Beta  occ. eigenvalues --   -0.29484  -0.29127  -0.28775  -0.27591  -0.26497
  Beta  occ. eigenvalues --   -0.25873  -0.24749  -0.24180  -0.23769  -0.22190
  Beta  occ. eigenvalues --   -0.18901  -0.18324  -0.16202  -0.15595  -0.14483
  Beta virt. eigenvalues --    0.06256   0.07019   0.07533   0.07640   0.08146
  Beta virt. eigenvalues --    0.08548   0.08939   0.09138   0.10195   0.10650
  Beta virt. eigenvalues --    0.11361   0.11608   0.11812   0.12781   0.13286

 Mulliken charges and spin densities:
               1          2
     1  C   -0.214304  -0.390498
     2  C   -1.165654   1.795792
     3  C   -0.645712   0.121902
     4  C   -0.071034  -0.262480
     5  C   -0.383783  -0.013152
     6  C    1.033180  -1.484686
     7  C   -0.824479   1.659303
     8  C    2.867976  -3.407453
     9  C   -1.553890   1.943861
    10  C   -0.196700  -0.346279
    11  C    1.442330  -2.362566
    12  N   -0.109631  -0.005429
    13  C    0.613767  -0.566692
    14  O   -0.377715   0.062272
    15  O   -0.294390   0.067872
    16  O   -0.162545  -0.022725
    17  H    0.052937   0.096854
    18  H    0.112154   0.018282
    19  H    0.074262   0.144547
    20  H    0.071017   0.049413
    21  H    0.085217   0.049365
    22  H   -0.072283   0.229791
    23  H   -0.196525   0.349849
    24  H   -0.659646   0.902376
    25  H    0.314146  -0.229744
    26  H   -0.153447   0.325728
    27  H   -0.169497   0.307060
    28  H    0.178067  -0.020641
    29  H    0.026034   0.218005
    30  H   -0.677265   0.883334
    31  H    0.044303   0.294608
    32  H   -0.226108   0.530370
    33  H    0.239219   0.061757
 Sum of Mulliken charges =  -1.00000   1.00000

 Dipole moment (field-independent basis, Debye):
    X=             -5.3126    Y=              2.2715    Z=              1.9432  Tot=              6.0958
 Quadrupole moment (field-independent basis, Debye-Ang):
   XX=           -162.3780   YY=           -138.1255   ZZ=           -134.5172
   XY=             -7.7664   XZ=             -4.0866   YZ=             -7.5118

 Summary of Natural Population Analysis:

                                       Natural Population
                Natural  -----------------------------------------------
    Atom  No    Charge         Core      Valence    Rydberg      Total
 -----------------------------------------------------------------------
      C    1   -0.29942      0.99963     2.29512    0.00467     3.29942
      C    2   -0.00432      0.99947     1.99674    0.00811     3.00432
      C    3   -0.10249      0.99952     2.09408    0.00889     3.10249
      C    4   -0.10524      0.99956     2.09573    0.00994     3.10524
      C    5   -0.10778      0.99956     2.09918    0.00904     3.10778
      C    6   -0.09525      0.99951     2.08603    0.00972     3.09525
      C    7   -0.00868      0.99946     1.99784    0.01138     3.00868
      C    8   -0.20929      0.99955     2.19703    0.01271     3.20929
      C    9    0.12993      0.99953     1.85455    0.01599     2.87007
      C   10   -0.29866      0.99961     2.29193    0.00712     3.29866
      C   11   -0.10140      0.99955     2.08901    0.01285     3.10140
      N   12   -0.32438      0.99966     2.81368    0.01103     3.82438
      C   13    0.46122      0.99971     1.51451    0.02456     2.53878
      O   14   -0.33169      0.99987     3.32589    0.00592     4.33169
      O   15   -0.36553      0.99988     3.35866    0.00698     4.36553
      O   16   -0.38437      0.99988     3.37741    0.00708     4.38437
      H   17    0.10203      0.00000     0.39690    0.00107     0.39797
      H   18    0.09659      0.00000     0.40259    0.00082     0.40341
      H   19    0.12311      0.00000     0.37558    0.00131     0.37689
      H   20    0.09569      0.00000     0.40336    0.00095     0.40431
      H   21    0.09659      0.00000     0.40265    0.00076     0.40341
      H   22    0.09848      0.00000     0.40072    0.00080     0.40152
      H   23    0.10200      0.00000     0.39650    0.00149     0.39800
      H   24    0.11041      0.00000     0.38685    0.00275     0.38959
      H   25    0.10542      0.00000     0.39265    0.00193     0.39458
      H   26    0.10333      0.00000     0.39515    0.00152     0.39667
      H   27    0.10014      0.00000     0.39878    0.00108     0.39986
      H   28    0.10807      0.00000     0.39072    0.00121     0.39193
      H   29    0.10611      0.00000     0.39163    0.00226     0.39389
      H   30    0.10933      0.00000     0.38709    0.00358     0.39067
      H   31    0.20035      0.00000     0.29685    0.00280     0.29965
      H   32    0.24968      0.00000     0.24073    0.00960     0.25032
      H   33    0.24003      0.00000     0.25625    0.00372     0.25997
 =======================================================================
   * Total *   -0.00000     15.99395    43.80243    0.20362    60.00000

 Normal termination of Gaussian 16 at Thu Dec 10 23:46:18 2020.
