 Gaussian 16, Revision A.03,

 -----------------------------------------------------------
 # opt freq B3LYP/6-31G(d) empiricaldispersion=gd3bj scf=xqc
 -----------------------------------------------------------

 -------------------------------
 CID_103925964_JID_4244_neutraal
 -------------------------------
 Symbolic Z-matrix:
 Charge =  0 Multiplicity = 1

 SCF Done:  E(RB3LYP) =  -671.771639022     A.U. after   14 cycles
 SCF Done:  E(RB3LYP) =  -671.771020405     A.U. after   12 cycles
 SCF Done:  E(RB3LYP) =  -671.774444109     A.U. after   12 cycles
 SCF Done:  E(RB3LYP) =  -671.776020822     A.U. after   12 cycles
 SCF Done:  E(RB3LYP) =  -671.777407515     A.U. after   14 cycles
 SCF Done:  E(RB3LYP) =  -671.779032219     A.U. after   14 cycles
 SCF Done:  E(RB3LYP) =  -671.780675732     A.U. after   15 cycles
 SCF Done:  E(RB3LYP) =  -671.781750219     A.U. after   14 cycles
 SCF Done:  E(RB3LYP) =  -671.782589863     A.U. after   12 cycles
 SCF Done:  E(RB3LYP) =  -671.783271024     A.U. after   12 cycles
 SCF Done:  E(RB3LYP) =  -671.784106358     A.U. after    9 cycles
 SCF Done:  E(RB3LYP) =  -671.784107060     A.U. after    8 cycles
 SCF Done:  E(RB3LYP) =  -671.784107344     A.U. after    8 cycles
 SCF Done:  E(RB3LYP) =  -671.784107449     A.U. after    7 cycles
 SCF Done:  E(RB3LYP) =  -671.784107464     A.U. after    7 cycles
 Optimization completed.
    -- Stationary point found.
 Normal termination of Gaussian 16 at Thu Dec 10 09:29:14 2020.

 --------------------------------------------------------------------
 #N Geom=AllCheck Guess=TCheck SCRF=Check GenChk RB3LYP/6-31G(d) Freq
 --------------------------------------------------------------------

 Structure from the checkpoint file:  "JID_4244.chk"
 -------------------------------
 CID_103925964_JID_4244_neutraal
 -------------------------------
 Charge =  0 Multiplicity = 1

 SCF Done:  E(RB3LYP) =  -671.784107464     A.U. after    1 cycles

  Exact polarizability: 143.381   1.207 103.895   0.880  -0.165 100.273
 Approx polarizability: 188.809   9.354 147.373   7.089   2.020 154.549

                      1                      2                      3
                      A                      A                      A
 Frequencies --     28.8384                44.0795                49.6899
 Red. masses --      3.8376                 7.3198                 6.7441
 Frc consts  --      0.0019                 0.0084                 0.0098
 IR Inten    --      0.6410                 2.0505                 0.7630

                      4                      5                      6
                      A                      A                      A
 Frequencies --     68.9464                76.2122                97.5248
 Red. masses --      4.6194                 3.5342                 7.7176
 Frc consts  --      0.0129                 0.0121                 0.0432
 IR Inten    --      0.3887                 0.8054                 0.9514

                      7                      8                      9
                      A                      A                      A
 Frequencies --    137.5856               178.2567               200.4719
 Red. masses --      2.5192                 2.2037                 1.5193
 Frc consts  --      0.0281                 0.0413                 0.0360
 IR Inten    --      0.2999                 0.4622                 0.1048

                     10                     11                     12
                      A                      A                      A
 Frequencies --    242.3768               249.4010               264.7071
 Red. masses --      2.4314                 2.4343                 2.4273
 Frc consts  --      0.0842                 0.0892                 0.1002
 IR Inten    --      1.0078                 3.3097                 1.7521

                     13                     14                     15
                      A                      A                      A
 Frequencies --    301.7866               335.6137               363.4768
 Red. masses --      3.2634                 2.3132                 2.5054
 Frc consts  --      0.1751                 0.1535                 0.1950
 IR Inten    --      3.2613                 2.7360                 0.4224

                     16                     17                     18
                      A                      A                      A
 Frequencies --    411.0972               445.8976               508.3992
 Red. masses --      2.8267                 3.2868                 2.3571
 Frc consts  --      0.2815                 0.3850                 0.3590
 IR Inten    --      0.8390                12.5105                 4.7708

                     19                     20                     21
                      A                      A                      A
 Frequencies --    510.9051               528.2673               564.1338
 Red. masses --      1.7258                 2.2600                 3.3968
 Frc consts  --      0.2654                 0.3716                 0.6369
 IR Inten    --     22.7880                 4.0097                68.9095

                     22                     23                     24
                      A                      A                      A
 Frequencies --    614.5382               650.6135               671.3307
 Red. masses --      2.8523                 3.8462                 1.4361
 Frc consts  --      0.6347                 0.9593                 0.3813
 IR Inten    --     23.9054                 1.2167               117.0004

                     25                     26                     27
                      A                      A                      A
 Frequencies --    690.4093               719.7535               786.7620
 Red. masses --      1.7387                 2.5522                 1.3521
 Frc consts  --      0.4883                 0.7790                 0.4931
 IR Inten    --     43.0163                19.6107                 7.6630

                     28                     29                     30
                      A                      A                      A
 Frequencies --    794.5590               809.6302               828.3088
 Red. masses --      2.1793                 1.1333                 3.1647
 Frc consts  --      0.8106                 0.4377                 1.2793
 IR Inten    --      6.4350                 6.4773                18.5040

                     31                     32                     33
                      A                      A                      A
 Frequencies --    894.3459               934.8396               937.9326
 Red. masses --      2.3369                 1.7814                 2.1645
 Frc consts  --      1.1013                 0.9172                 1.1219
 IR Inten    --      5.6268                 5.5377                16.4966

                     34                     35                     36
                      A                      A                      A
 Frequencies --    952.2347               972.4120              1000.7115
 Red. masses --      1.3367                 2.5685                 1.9028
 Frc consts  --      0.7141                 1.4310                 1.1227
 IR Inten    --      1.6161                 9.8160                 3.5039

                     37                     38                     39
                      A                      A                      A
 Frequencies --   1009.1484              1029.7889              1059.3439
 Red. masses --      2.0917                 2.0995                 1.2972
 Frc consts  --      1.2550                 1.3118                 0.8577
 IR Inten    --      2.6886                 8.4518                 4.2792

                     40                     41                     42
                      A                      A                      A
 Frequencies --   1081.5944              1085.5786              1097.9550
 Red. masses --      2.3663                 1.4139                 1.8900
 Frc consts  --      1.6310                 0.9817                 1.3424
 IR Inten    --      4.2243                 1.1872                 6.3194

                     43                     44                     45
                      A                      A                      A
 Frequencies --   1124.0324              1141.9189              1177.2628
 Red. masses --      1.8210                 3.0372                 2.0993
 Frc consts  --      1.3556                 2.3334                 1.7142
 IR Inten    --      3.6676                 5.2019               294.3782

                     46                     47                     48
                      A                      A                      A
 Frequencies --   1200.8296              1226.9536              1246.8662
 Red. masses --      1.3252                 1.2772                 1.4965
 Frc consts  --      1.1259                 1.1328                 1.3708
 IR Inten    --      0.2261                12.1811                67.9530

                     49                     50                     51
                      A                      A                      A
 Frequencies --   1270.6786              1286.2566              1320.6557
 Red. masses --      1.4269                 1.5516                 1.6184
 Frc consts  --      1.3574                 1.5124                 1.6630
 IR Inten    --     12.9472                 0.2560                77.9352

                     52                     53                     54
                      A                      A                      A
 Frequencies --   1338.6619              1348.3842              1367.6832
 Red. masses --      1.5858                 1.5310                 1.4445
 Frc consts  --      1.6743                 1.6400                 1.5920
 IR Inten    --      8.4734                 5.8715                 0.3806

                     55                     56                     57
                      A                      A                      A
 Frequencies --   1391.9622              1420.8792              1437.5881
 Red. masses --      1.6647                 1.7701                 1.8985
 Frc consts  --      1.9004                 2.1055                 2.3117
 IR Inten    --      4.0440                83.9638                69.1867

                     58                     59                     60
                      A                      A                      A
 Frequencies --   1440.7970              1449.6934              1479.1245
 Red. masses --      1.2777                 1.8059                 1.1297
 Frc consts  --      1.5628                 2.2361                 1.4562
 IR Inten    --      5.6182                17.0432                16.8303

                     61                     62                     63
                      A                      A                      A
 Frequencies --   1489.5236              1495.4600              1509.5971
 Red. masses --      1.1141                 1.0880                 1.9200
 Frc consts  --      1.4563                 1.4337                 2.5780
 IR Inten    --     15.1784                 2.3205                79.5117

                     64                     65                     66
                      A                      A                      A
 Frequencies --   1519.9583              1521.7938              1531.5532
 Red. masses --      1.0591                 1.1144                 1.0872
 Frc consts  --      1.4417                 1.5206                 1.5026
 IR Inten    --      1.1449                 5.6051                 9.3363

                     67                     68                     69
                      A                      A                      A
 Frequencies --   1536.9544              1541.8412              1778.3229
 Red. masses --      1.1489                 1.1870                 7.7963
 Frc consts  --      1.5990                 1.6626                14.5264
 IR Inten    --      7.2982                 6.1291               372.1480

                     70                     71                     72
                      A                      A                      A
 Frequencies --   1835.7982              3044.8864              3048.7444
 Red. masses --      9.4045                 1.0687                 1.0617
 Frc consts  --     18.6739                 5.8379                 5.8143
 IR Inten    --    286.5688                42.1041                 6.9901

                     73                     74                     75
                      A                      A                      A
 Frequencies --   3051.0199              3061.9636              3071.4239
 Red. masses --      1.0453                 1.0684                 1.0703
 Frc consts  --      5.7331                 5.9016                 5.9487
 IR Inten    --     35.4179                16.8607                11.9453

                     76                     77                     78
                      A                      A                      A
 Frequencies --   3094.7613              3113.9664              3127.7969
 Red. masses --      1.0958                 1.1013                 1.1013
 Frc consts  --      6.1832                 6.2920                 6.3477
 IR Inten    --      4.6301                56.3416                27.9958

                     79                     80                     81
                      A                      A                      A
 Frequencies --   3130.3843              3136.9749              3140.1946
 Red. masses --      1.0930                 1.0532                 1.0910
 Frc consts  --      6.3106                 6.1066                 6.3384
 IR Inten    --     17.3840                18.9091                 5.7935

                     82                     83                     84
                      A                      A                      A
 Frequencies --   3143.1675              3151.3054              3212.6923
 Red. masses --      1.0578                 1.0920                 1.1181
 Frc consts  --      6.1570                 6.3893                 6.7996
 IR Inten    --     19.0932                 5.6278                 0.3528

                     85                     86                     87
                      A                      A                      A
 Frequencies --   3225.9358              3577.6743              3685.9969
 Red. masses --      1.1156                 1.0750                 1.0639
 Frc consts  --      6.8400                 8.1071                 8.5164
 IR Inten    --     23.4362                14.5923                45.4669

 - Thermochemistry -
 -------------------
 Temperature   298.150 Kelvin.  Pressure   1.00000 Atm.
 Atom     1 has atomic number  6 and mass  12.00000

 Molecular mass:   199.12084 amu.
 Principal axes and moments of inertia in atomic units:
                           1         2         3
     Eigenvalues --  1519.694744606.015215324.29090
           X            0.99995   0.00706  -0.00717
           Y           -0.00707   0.99997  -0.00196
           Z            0.00716   0.00201   0.99997
 This molecule is an asymmetric top.
 Rotational symmetry number  1.
 Warning -- assumption of classical behavior for rotation
           may cause significant error
 Rotational temperatures (Kelvin)      0.05699     0.01880     0.01627
 Rotational constants (GHZ):           1.18757     0.39182     0.33896
 Zero-point vibrational energy     703879.0 (Joules/Mol)
                                  168.23112 (Kcal/Mol)
 Warning -- explicit consideration of  22 degrees of freedom as
           vibrations may cause significant error
 Vibrational temperatures:     41.49    63.42    71.49    99.20   109.65
          (Kelvin)            140.32   197.95   256.47   288.43   348.73
                              358.83   380.85   434.20   482.87   522.96
                              591.48   641.55   731.47   735.08   760.06
                              811.66   884.18   936.09   965.90   993.35
                             1035.56  1131.97  1143.19  1164.88  1191.75
                             1286.76  1345.03  1349.48  1370.05  1399.08
                             1439.80  1451.94  1481.64  1524.16  1556.17
                             1561.91  1579.71  1617.23  1642.97  1693.82
                             1727.73  1765.31  1793.96  1828.22  1850.64
                             1900.13  1926.04  1940.02  1967.79  2002.72
                             2044.33  2068.37  2072.99  2085.79  2128.13
                             2143.09  2151.63  2171.97  2186.88  2189.52
                             2203.56  2211.33  2218.37  2558.61  2641.30
                             4380.91  4386.46  4389.74  4405.48  4419.09
                             4452.67  4480.30  4500.20  4503.92  4513.41
                             4518.04  4522.32  4534.03  4622.35  4641.40
                             5147.48  5303.33

 Zero-point correction=                           0.268093 (Hartree/Particle)
 Thermal correction to Energy=                    0.283240
 Thermal correction to Enthalpy=                  0.284184
 Thermal correction to Gibbs Free Energy=         0.224388
 Sum of electronic and zero-point Energies=           -671.516014
 Sum of electronic and thermal Energies=              -671.500868
 Sum of electronic and thermal Enthalpies=            -671.499924
 Sum of electronic and thermal Free Energies=         -671.559719

                     E (Thermal)             CV                S
                      KCal/Mol        Cal/Mol-Kelvin    Cal/Mol-Kelvin
 Total                  177.736             55.937            125.850
 Electronic               0.000              0.000              0.000
 Translational            0.889              2.981             41.771
 Rotational               0.889              2.981             31.989
 Vibrational            175.958             49.976             52.090
 Vibration     1          0.593              1.984              5.908
 Vibration     2          0.595              1.980              5.067
 Vibration     3          0.595              1.978              4.830
 Vibration     4          0.598              1.969              4.183
 Vibration     5          0.599              1.965              3.986
 Vibration     6          0.603              1.951              3.503
 Vibration     7          0.614              1.916              2.837
 Vibration     8          0.629              1.869              2.347
 Vibration     9          0.638              1.839              2.129
 Vibration    10          0.659              1.775              1.785
 Vibration    11          0.662              1.764              1.735
 Vibration    12          0.671              1.738              1.631
 Vibration    13          0.694              1.670              1.407
 Vibration    14          0.717              1.604              1.233
 Vibration    15          0.737              1.547              1.107
 Vibration    16          0.775              1.446              0.923
 Vibration    17          0.805              1.370              0.808
 Vibration    18          0.864              1.231              0.637
 Vibration    19          0.866              1.226              0.631
 Vibration    20          0.883              1.187              0.591
 Vibration    21          0.920              1.109              0.516
 Vibration    22          0.974              1.001              0.425

 Optimization completed.
    -- Stationary point found.
 Normal termination of Gaussian 16 at Thu Dec 10 09:38:18 2020.

 ----------------------------------------------------------------------
 # B3LYP/6-311++G(d,p) empiricaldispersion=gd3bj scf=xqc pop=npa geom=c
 heck
 ----------------------------------------------------------------------

 ---------------------------------------
 CID_103925964_JID_4244_Energie_neutraal
 ---------------------------------------
 Structure from the checkpoint file:  "JID_4244.chk"
 Charge =  0 Multiplicity = 1

 SCF Done:  E(RB3LYP) =  -671.991147411     A.U. after   14 cycles
 Normal termination of Gaussian 16 at Thu Dec 10 09:42:16 2020.

 ----------------------------------------------------------------------
 # B3LYP/6-311++G(d,p) empiricaldispersion=gd3bj scf=xqc pop=npa geom=c
 heck
 ----------------------------------------------------------------------

 -------------------------------------
 CID_103925964_JID_4244_Energie_kation
 -------------------------------------
 Structure from the checkpoint file:  "JID_4244.chk"
 Charge =  1 Multiplicity = 2

 SCF Done:  E(UB3LYP) =  -671.662948560     A.U. after   29 cycles
 Normal termination of Gaussian 16 at Thu Dec 10 09:54:35 2020.
 Gaussian 16:  ES64L-G16RevA.03 25-Dec-2016

 ----------------------------------------------------------------------
 # B3LYP/6-311++G(d,p) empiricaldispersion=gd3bj scf=xqc pop=npa geom=c
 heck
 ----------------------------------------------------------------------

 ------------------------------------
 CID_103925964_JID_4244_Energie_anion
 ------------------------------------
 Structure from the checkpoint file:  "JID_4244.chk"
 Charge = -1 Multiplicity = 2

                         Standard orientation:
 ---------------------------------------------------------------------
 Center     Atomic      Atomic             Coordinates (Angstroms)
 Number     Number       Type             X           Y           Z
 ---------------------------------------------------------------------
      1          6           0       -1.326179   -2.257676   -0.757116
      2          6           0       -1.569070   -1.325324    0.434139
      3          6           0       -2.409151   -0.102689    0.090875
      4          6           0       -3.883846   -0.300351   -0.164109
      5          6           0       -3.424539    0.385019    1.100669
      6          6           0       -1.705476    0.979122   -0.716999
      7          7           0       -0.654878    1.647287    0.040115
      8          6           0        0.697531    1.460126   -0.011416
      9          8           0        1.436068    1.939599    0.843367
     10          6           0        1.264387    0.684493   -1.200439
     11          6           0        2.720862    0.321035   -0.941886
     12          6           0        2.837534   -0.678598    0.186385
     13          8           0        1.932205   -1.352431    0.632503
     14          8           0        4.107039   -0.780109    0.639270
     15          1           0       -2.268256   -2.668542   -1.138206
     16          1           0       -0.676447   -3.089948   -0.469032
     17          1           0       -0.836394   -1.739257   -1.589611
     18          1           0       -2.075023   -1.888947    1.228237
     19          1           0       -0.605888   -1.007656    0.848776
     20          1           0       -4.368373    0.303915   -0.927126
     21          1           0       -4.276957   -1.310301   -0.085391
     22          1           0       -3.508584   -0.154076    2.039987
     23          1           0       -3.599328    1.455335    1.188382
     24          1           0       -1.270540    0.567095   -1.629990
     25          1           0       -2.436926    1.732858   -1.035445
     26          1           0       -0.946755    2.110838    0.893493
     27          1           0        0.688082   -0.225213   -1.379640
     28          1           0        1.181996    1.305926   -2.100947
     29          1           0        3.174121   -0.128197   -1.834624
     30          1           0        3.307993    1.204378   -0.682876
     31          1           0        4.086617   -1.446632    1.351480
 ---------------------------------------------------------------------

 SCF Done:  E(UB3LYP) =  -671.978282452     A.U. after   33 cycles
 SCF Done:  E(UB3LYP) =  -671.978282452     a.u. after    1 cycles

 The electronic state is 2-A.
 Alpha  occ. eigenvalues --  -19.07727 -19.02011 -18.98962 -14.23863 -10.21138
 Alpha  occ. eigenvalues --  -10.17625 -10.11530 -10.09353 -10.08870 -10.08512
 Alpha  occ. eigenvalues --  -10.08131 -10.07943 -10.06983 -10.06064  -1.01723
 Alpha  occ. eigenvalues --   -0.94160  -0.92624  -0.83041  -0.77477  -0.70439
 Alpha  occ. eigenvalues --   -0.66329  -0.62307  -0.60092  -0.54043  -0.51925
 Alpha  occ. eigenvalues --   -0.51036  -0.46506  -0.45640  -0.41351  -0.40966
 Alpha  occ. eigenvalues --   -0.40848  -0.39616  -0.38653  -0.37612  -0.36241
 Alpha  occ. eigenvalues --   -0.34503  -0.33340  -0.32027  -0.31361  -0.30584
 Alpha  occ. eigenvalues --   -0.29511  -0.28795  -0.28499  -0.27575  -0.27061
 Alpha  occ. eigenvalues --   -0.26415  -0.25181  -0.24289  -0.23231  -0.20387
 Alpha  occ. eigenvalues --   -0.19239  -0.18888  -0.16386  -0.15758   0.04245
 Alpha virt. eigenvalues --    0.05886   0.06715   0.07241   0.07887   0.08828
 Alpha virt. eigenvalues --    0.09014   0.09697   0.10179   0.10500   0.11260
 Alpha virt. eigenvalues --    0.11649   0.12016   0.12142   0.12932   0.13553

  Beta  occ. eigenvalues --  -19.07700 -19.02000 -18.98955 -14.23859 -10.21120
  Beta  occ. eigenvalues --  -10.17624 -10.11504 -10.09353 -10.08845 -10.08485
  Beta  occ. eigenvalues --  -10.08116 -10.07918 -10.06976 -10.06042  -1.01677
  Beta  occ. eigenvalues --   -0.94148  -0.92590  -0.83027  -0.77464  -0.70393
  Beta  occ. eigenvalues --   -0.66308  -0.62264  -0.60024  -0.53995  -0.51872
  Beta  occ. eigenvalues --   -0.50975  -0.46461  -0.45598  -0.41297  -0.40935
  Beta  occ. eigenvalues --   -0.40818  -0.39588  -0.38611  -0.37576  -0.36192
  Beta  occ. eigenvalues --   -0.34473  -0.33319  -0.32001  -0.31338  -0.30553
  Beta  occ. eigenvalues --   -0.29479  -0.28738  -0.28459  -0.27544  -0.27029
  Beta  occ. eigenvalues --   -0.26385  -0.25158  -0.24269  -0.23194  -0.20363
  Beta  occ. eigenvalues --   -0.19220  -0.18868  -0.16360  -0.15745
  Beta virt. eigenvalues --    0.06475   0.06877   0.07611   0.07793   0.08545
  Beta virt. eigenvalues --    0.09143   0.09303   0.10101   0.10518   0.11011
  Beta virt. eigenvalues --    0.11302   0.11983   0.12220   0.12381   0.13276

 Mulliken charges and spin densities:
               1          2
     1  C    0.168015  -0.817275
     2  C   -0.768388   0.441147
     3  C   -1.983691   2.671191
     4  C    0.842420  -1.259678
     5  C    0.366173  -0.647715
     6  C    1.949386  -2.734558
     7  N   -0.170142   0.150770
     8  C   -0.356505  -0.076757
     9  O   -0.281120  -0.003829
    10  C   -0.298162   0.664232
    11  C    1.552482  -2.257358
    12  C   -0.276448   0.313137
    13  O   -0.240100  -0.028498
    14  O   -0.174097   0.036011
    15  H   -0.018976   0.159388
    16  H    0.001068   0.144582
    17  H   -0.408125   0.526913
    18  H    0.062705   0.085873
    19  H    0.224695   0.048457
    20  H   -0.358958   0.528480
    21  H    0.025789   0.110270
    22  H    0.006070   0.150732
    23  H   -0.122202   0.262281
    24  H   -0.054791   0.235000
    25  H   -0.549645   0.752920
    26  H    0.153344   0.108961
    27  H    0.685984  -0.507327
    28  H   -0.481920   0.704627
    29  H   -0.639468   0.853083
    30  H    0.273226  -0.024867
    31  H   -0.128619   0.409807
 Sum of Mulliken charges =  -1.00000   1.00000

 Dipole moment (field-independent basis, Debye):
    X=             -0.4029    Y=             -1.2524    Z=              3.4473  Tot=              3.6898
 Quadrupole moment (field-independent basis, Debye-Ang):
   XX=           -160.6570   YY=           -125.8587   ZZ=           -125.8587
   XY=              5.0926   XZ=             -3.8090   YZ=              1.5855

 Summary of Natural Population Analysis:

                                       Natural Population
                Natural  -----------------------------------------------
    Atom  No    Charge         Core      Valence    Rydberg      Total
 -----------------------------------------------------------------------
      C    1   -0.28277      0.99966     2.27807    0.00504     3.28277
      C    2   -0.19202      0.99958     2.18423    0.00821     3.19202
      C    3   -0.04962      0.99953     2.03690    0.01319     3.04962
      C    4   -0.19449      0.99958     2.18537    0.00954     3.19449
      C    5   -0.19584      0.99958     2.18732    0.00894     3.19584
      C    6   -0.08424      0.99954     2.07177    0.01293     3.08424
      N    7   -0.31502      0.99967     2.80529    0.01007     3.81502
      C    8    0.34876      0.99967     1.62889    0.02269     2.65124
      O    9   -0.32965      0.99988     3.32444    0.00534     4.32965
      C   10   -0.23922      0.99958     2.23061    0.00903     3.23922
      C   11   -0.23910      0.99958     2.22981    0.00971     3.23910
      C   12    0.41573      0.99972     1.55949    0.02506     2.58427
      O   13   -0.31311      0.99987     3.30711    0.00613     4.31311
      O   14   -0.34355      0.99987     3.33741    0.00627     4.34355
      H   15    0.09476      0.00000     0.40419    0.00105     0.40524
      H   16    0.10221      0.00000     0.39704    0.00075     0.39779
      H   17    0.09434      0.00000     0.40436    0.00130     0.40566
      H   18    0.09492      0.00000     0.40395    0.00113     0.40508
      H   19    0.11170      0.00000     0.38637    0.00192     0.38830
      H   20    0.10540      0.00000     0.39296    0.00164     0.39460
      H   21    0.10286      0.00000     0.39615    0.00099     0.39714
      H   22    0.10180      0.00000     0.39730    0.00090     0.39820
      H   23    0.10113      0.00000     0.39784    0.00103     0.39887
      H   24    0.10478      0.00000     0.39317    0.00205     0.39522
      H   25    0.10006      0.00000     0.39779    0.00215     0.39994
      H   26    0.19172      0.00000     0.30601    0.00227     0.30828
      H   27    0.11350      0.00000     0.38424    0.00226     0.38650
      H   28    0.11587      0.00000     0.38231    0.00181     0.38413
      H   29    0.11834      0.00000     0.37939    0.00227     0.38166
      H   30    0.12070      0.00000     0.37798    0.00131     0.37930
      H   31    0.24003      0.00000     0.25523    0.00475     0.25997
 =======================================================================
   * Total *   -0.00000     13.99532    39.82298    0.18171    54.00000

 Normal termination of Gaussian 16 at Thu Dec 10 10:09:30 2020.
