 Gaussian 16, Revision A.03,

 -----------------------------------------------------------
 # opt freq B3LYP/6-31G(d) empiricaldispersion=gd3bj scf=xqc
 -----------------------------------------------------------

 --------------------------------
 CID_103771071_JID_10879_neutraal
 --------------------------------
 Symbolic Z-matrix:
 Charge =  0 Multiplicity = 1

 SCF Done:  E(RB3LYP) =  -957.190018474     A.U. after   15 cycles
 SCF Done:  E(RB3LYP) =  -957.195062148     A.U. after   13 cycles
 SCF Done:  E(RB3LYP) =  -957.193719261     A.U. after   13 cycles
 SCF Done:  E(RB3LYP) =  -957.194769865     A.U. after   12 cycles
 SCF Done:  E(RB3LYP) =  -957.196244547     A.U. after    9 cycles
 SCF Done:  E(RB3LYP) =  -957.196687978     A.U. after   12 cycles
 SCF Done:  E(RB3LYP) =  -957.196701357     A.U. after   11 cycles
 SCF Done:  E(RB3LYP) =  -957.197049139     A.U. after   12 cycles
 SCF Done:  E(RB3LYP) =  -957.197109966     A.U. after   11 cycles
 SCF Done:  E(RB3LYP) =  -957.197148174     A.U. after   10 cycles
 SCF Done:  E(RB3LYP) =  -957.197315420     A.U. after   10 cycles
 SCF Done:  E(RB3LYP) =  -957.197316919     A.U. after   10 cycles
 SCF Done:  E(RB3LYP) =  -957.197317599     A.U. after    9 cycles
 SCF Done:  E(RB3LYP) =  -957.197318205     A.U. after    8 cycles
 SCF Done:  E(RB3LYP) =  -957.197318366     A.U. after    8 cycles
 Optimization completed.
    -- Stationary point found.
 Normal termination of Gaussian 16 at Mon Dec 14 14:07:56 2020.

 --------------------------------------------------------------------
 #N Geom=AllCheck Guess=TCheck SCRF=Check GenChk RB3LYP/6-31G(d) Freq
 --------------------------------------------------------------------

 Structure from the checkpoint file:  "JID_10879.chk"
 --------------------------------
 CID_103771071_JID_10879_neutraal
 --------------------------------
 Charge =  0 Multiplicity = 1

 SCF Done:  E(RB3LYP) =  -957.197318366     A.U. after    1 cycles

  Exact polarizability: 227.234  -9.638 158.217 -12.514   1.701 129.024
 Approx polarizability: 270.331 -12.591 264.561 -27.610   5.244 204.665

                      1                      2                      3
                      A                      A                      A
 Frequencies --     15.3410                25.9310                31.7027
 Red. masses --      5.3291                 5.0949                 4.1021
 Frc consts  --      0.0007                 0.0020                 0.0024
 IR Inten    --      0.2468                 1.5675                 0.9394

                      4                      5                      6
                      A                      A                      A
 Frequencies --     44.8949                51.5649                62.8447
 Red. masses --      7.0601                 3.8272                 3.9453
 Frc consts  --      0.0084                 0.0060                 0.0092
 IR Inten    --      1.5569                 0.9634                 1.1549

                      7                      8                      9
                      A                      A                      A
 Frequencies --     74.7238                82.2565               108.1228
 Red. masses --      4.7930                 5.3766                 6.0898
 Frc consts  --      0.0158                 0.0214                 0.0419
 IR Inten    --      0.1592                 1.1962                 0.4488

                     10                     11                     12
                      A                      A                      A
 Frequencies --    136.8992               156.4005               185.2282
 Red. masses --      3.8124                 2.9407                 3.2570
 Frc consts  --      0.0421                 0.0424                 0.0658
 IR Inten    --      1.8236                 1.6200                 0.7547

                     13                     14                     15
                      A                      A                      A
 Frequencies --    192.4800               216.6169               217.8528
 Red. masses --      3.9472                 2.5426                 2.7005
 Frc consts  --      0.0862                 0.0703                 0.0755
 IR Inten    --      0.4042                14.9394                 2.8663

                     16                     17                     18
                      A                      A                      A
 Frequencies --    234.4382               235.4983               244.9879
 Red. masses --      1.1873                 2.0332                 1.4886
 Frc consts  --      0.0384                 0.0664                 0.0526
 IR Inten    --      1.0100                 4.0032                 0.4699

                     19                     20                     21
                      A                      A                      A
 Frequencies --    266.2580               315.2980               337.5547
 Red. masses --      1.4395                 2.7407                 3.0554
 Frc consts  --      0.0601                 0.1605                 0.2051
 IR Inten    --      1.6232                 0.3006                 0.1071

                     22                     23                     24
                      A                      A                      A
 Frequencies --    360.7671               374.3687               403.1116
 Red. masses --      2.8127                 2.8351                 2.2737
 Frc consts  --      0.2157                 0.2341                 0.2177
 IR Inten    --      3.0398                15.5144                83.8419

                     25                     26                     27
                      A                      A                      A
 Frequencies --    410.9346               421.8431               471.5232
 Red. masses --      2.0274                 1.9897                 2.9260
 Frc consts  --      0.2017                 0.2086                 0.3833
 IR Inten    --     29.8288                44.1826                 6.8241

                     28                     29                     30
                      A                      A                      A
 Frequencies --    482.5617               489.5728               527.3433
 Red. masses --      2.3288                 3.7302                 3.1048
 Frc consts  --      0.3195                 0.5268                 0.5087
 IR Inten    --     27.4485                21.0094                18.0393

                     31                     32                     33
                      A                      A                      A
 Frequencies --    568.5170               575.6857               611.8538
 Red. masses --      3.1779                 2.4345                 3.1298
 Frc consts  --      0.6052                 0.4754                 0.6903
 IR Inten    --     10.9289                33.2725                 5.6993

                     34                     35                     36
                      A                      A                      A
 Frequencies --    627.6073               658.5947               680.3531
 Red. masses --      1.6126                 2.5460                 3.3791
 Frc consts  --      0.3742                 0.6506                 0.9215
 IR Inten    --     96.9278                13.1914                34.9182

                     37                     38                     39
                      A                      A                      A
 Frequencies --    696.2131               758.3832               762.6049
 Red. masses --      2.9364                 4.2977                 2.3418
 Frc consts  --      0.8386                 1.4563                 0.8024
 IR Inten    --     50.7063                 0.5859                15.7685

                     40                     41                     42
                      A                      A                      A
 Frequencies --    768.3662               806.0088               830.5188
 Red. masses --      2.0032                 2.6803                 2.1999
 Frc consts  --      0.6968                 1.0259                 0.8940
 IR Inten    --     58.8022                 0.6612                 6.4643

                     43                     44                     45
                      A                      A                      A
 Frequencies --    832.8573               839.8535               880.2669
 Red. masses --      1.4627                 2.6961                 1.3306
 Frc consts  --      0.5978                 1.1204                 0.6075
 IR Inten    --      3.0701                 0.7738                 0.9014

                     46                     47                     48
                      A                      A                      A
 Frequencies --    910.2871               926.4929               935.4508
 Red. masses --      6.2365                 1.9261                 1.6226
 Frc consts  --      3.0447                 0.9741                 0.8366
 IR Inten    --      5.8743                 7.2615                 2.5322

                     49                     50                     51
                      A                      A                      A
 Frequencies --    940.3443               949.5226               964.6201
 Red. masses --      1.7625                 1.4951                 2.4049
 Frc consts  --      0.9183                 0.7942                 1.3184
 IR Inten    --      4.8909                 7.4823                10.3408

                     52                     53                     54
                      A                      A                      A
 Frequencies --    981.5640               986.8872              1053.2106
 Red. masses --      1.6921                 1.6915                 1.4254
 Frc consts  --      0.9605                 0.9706                 0.9316
 IR Inten    --      3.6784                17.1296                93.6865

                     55                     56                     57
                      A                      A                      A
 Frequencies --   1058.8239              1080.1392              1094.6581
 Red. masses --      1.9407                 2.7085                 1.6305
 Frc consts  --      1.2819                 1.8618                 1.1511
 IR Inten    --     59.2819                40.5438                39.1816

                     58                     59                     60
                      A                      A                      A
 Frequencies --   1108.5332              1126.4979              1132.0227
 Red. masses --      2.9099                 2.1300                 2.1370
 Frc consts  --      2.1068                 1.5925                 1.6135
 IR Inten    --      2.8012                 3.6377                 5.4993

                     61                     62                     63
                      A                      A                      A
 Frequencies --   1152.5677              1175.9260              1181.6716
 Red. masses --      1.9344                 2.6826                 2.8300
 Frc consts  --      1.5140                 2.1856                 2.3282
 IR Inten    --     19.3546                14.6170                73.8346

                     64                     65                     66
                      A                      A                      A
 Frequencies --   1184.9783              1208.8125              1228.9450
 Red. masses --      2.4790                 1.7536                 3.4006
 Frc consts  --      2.0509                 1.5097                 3.0260
 IR Inten    --     10.5920                 2.8434                45.5654

                     67                     68                     69
                      A                      A                      A
 Frequencies --   1249.0414              1269.2376              1279.8998
 Red. masses --      1.4101                 1.7403                 1.4329
 Frc consts  --      1.2962                 1.6518                 1.3830
 IR Inten    --     20.6974                10.0057                 8.7804

                     70                     71                     72
                      A                      A                      A
 Frequencies --   1298.6206              1339.6263              1348.4910
 Red. masses --      1.3208                 1.3919                 1.3710
 Frc consts  --      1.3123                 1.4717                 1.4689
 IR Inten    --     73.3651                75.1976                 2.2097

                     73                     74                     75
                      A                      A                      A
 Frequencies --   1369.9769              1376.0979              1383.2485
 Red. masses --      2.1708                 1.4284                 1.4827
 Frc consts  --      2.4005                 1.5936                 1.6715
 IR Inten    --    317.1415                 5.2477                25.7723

                     76                     77                     78
                      A                      A                      A
 Frequencies --   1394.3891              1398.8088              1412.4830
 Red. masses --      1.5523                 1.7299                 1.5335
 Frc consts  --      1.7782                 1.9942                 1.8026
 IR Inten    --     32.9675                 4.6172                16.6373

                     79                     80                     81
                      A                      A                      A
 Frequencies --   1422.9952              1431.9348              1441.4953
 Red. masses --      1.4492                 1.2818                 1.8852
 Frc consts  --      1.7289                 1.5486                 2.3079
 IR Inten    --     19.4818                 7.7276                47.5286

                     82                     83                     84
                      A                      A                      A
 Frequencies --   1444.1674              1446.8840              1452.6558
 Red. masses --      1.5214                 1.3554                 1.2314
 Frc consts  --      1.8695                 1.6718                 1.5310
 IR Inten    --     18.7235                41.2235                 4.4501

                     85                     86                     87
                      A                      A                      A
 Frequencies --   1495.7044              1509.5777              1515.2318
 Red. masses --      1.4881                 1.6965                 1.1286
 Frc consts  --      1.9614                 2.2778                 1.5267
 IR Inten    --     59.3612               133.5667                 1.8751

                     88                     89                     90
                      A                      A                      A
 Frequencies --   1517.3170              1520.9583              1521.7667
 Red. masses --      1.1258                 1.1275                 2.4548
 Frc consts  --      1.5271                 1.5368                 3.3494
 IR Inten    --     13.3066                 4.6498                39.1557

                     91                     92                     93
                      A                      A                      A
 Frequencies --   1528.9307              1534.5521              1536.4053
 Red. masses --      1.0765                 1.0632                 1.0598
 Frc consts  --      1.4826                 1.4751                 1.4739
 IR Inten    --      3.5187                 5.5439                 7.1087

                     94                     95                     96
                      A                      A                      A
 Frequencies --   1539.0444              1541.4560              1620.3129
 Red. masses --      1.0926                 1.0481                 5.4558
 Frc consts  --      1.5248                 1.4673                 8.4393
 IR Inten    --      0.9075                13.5923                28.4959

                     97                     98                     99
                      A                      A                      A
 Frequencies --   1770.9455              1785.7616              3003.7085
 Red. masses --      8.0869                 7.6722                 1.0828
 Frc consts  --     14.9432                14.4150                 5.7558
 IR Inten    --    348.7180               312.4256                29.4838

                    100                    101                    102
                      A                      A                      A
 Frequencies --   3020.8516              3041.3349              3046.0388
 Red. masses --      1.0661                 1.0356                 1.0375
 Frc consts  --      5.7321                 5.6441                 5.6718
 IR Inten    --     26.7792                30.4625                16.0110

                    103                    104                    105
                      A                      A                      A
 Frequencies --   3049.7910              3060.5859              3073.6338
 Red. masses --      1.0717                 1.0380                 1.0928
 Frc consts  --      5.8730                 5.7288                 6.0830
 IR Inten    --     26.7779                12.7788                13.9217

                    106                    107                    108
                      A                      A                      A
 Frequencies --   3094.0906              3106.7407              3111.0028
 Red. masses --      1.0897                 1.1014                 1.1011
 Frc consts  --      6.1463                 6.2632                 6.2787
 IR Inten    --     50.5292                19.0227                50.3717

                    109                    110                    111
                      A                      A                      A
 Frequencies --   3115.5724              3118.6819              3127.2292
 Red. masses --      1.1021                 1.1016                 1.1013
 Frc consts  --      6.3031                 6.3126                 6.3458
 IR Inten    --     24.6759                56.3235                24.1677

                    112                    113                    114
                      A                      A                      A
 Frequencies --   3147.4403              3162.7594              3171.1989
 Red. masses --      1.0948                 1.0910                 1.0916
 Frc consts  --      6.3898                 6.4300                 6.4681
 IR Inten    --      6.8974                 6.8063                 9.8253

                    115                    116                    117
                      A                      A                      A
 Frequencies --   3271.8963              3287.2164              3304.5330
 Red. masses --      1.0908                 1.0971                 1.1053
 Frc consts  --      6.8801                 6.9845                 7.1110
 IR Inten    --      3.5000                 0.8280                 0.7363

                    118                    119                    120
                      A                      A                      A
 Frequencies --   3580.6412              3608.4112              3709.2923
 Red. masses --      1.0748                 1.0744                 1.0653
 Frc consts  --      8.1189                 8.2422                 8.6359
 IR Inten    --     16.2164                30.1340                11.0827

 - Thermochemistry -
 -------------------
 Temperature   298.150 Kelvin.  Pressure   1.00000 Atm.
 Atom     1 has atomic number  6 and mass  12.00000

 Molecular mass:   282.15796 amu.
 Principal axes and moments of inertia in atomic units:
                           1         2         3
     Eigenvalues --  2305.42275********************
           X            0.99988  -0.01520   0.00208
           Y            0.01526   0.99922  -0.03641
           Z           -0.00152   0.03644   0.99933
 This molecule is an asymmetric top.
 Rotational symmetry number  1.
 Warning -- assumption of classical behavior for rotation
           may cause significant error
 Rotational temperatures (Kelvin)      0.03757     0.00620     0.00596
 Rotational constants (GHZ):           0.78282     0.12929     0.12413
 Zero-point vibrational energy     941277.0 (Joules/Mol)
                                  224.97061 (Kcal/Mol)
 Warning -- explicit consideration of  33 degrees of freedom as
           vibrations may cause significant error
 Vibrational temperatures:     22.07    37.31    45.61    64.59    74.19
          (Kelvin)             90.42   107.51   118.35   155.56   196.97
                              225.03   266.50   276.94   311.66   313.44
                              337.30   338.83   352.48   383.09   453.64
                              485.67   519.06   538.63   579.99   591.24
                              606.94   678.42   694.30   704.39   758.73
                              817.97   828.28   880.32   902.99   947.57
                              978.88  1001.70  1091.14  1097.22  1105.51
                             1159.67  1194.93  1198.30  1208.36  1266.51
                             1309.70  1333.02  1345.91  1352.95  1366.15
                             1387.87  1412.25  1419.91  1515.34  1523.41
                             1554.08  1574.97  1594.93  1620.78  1628.73
                             1658.29  1691.90  1700.16  1704.92  1739.21
                             1768.18  1797.09  1826.15  1841.49  1868.43
                             1927.42  1940.18  1971.09  1979.90  1990.19
                             2006.21  2012.57  2032.25  2047.37  2060.23
                             2073.99  2077.83  2081.74  2090.05  2151.98
                             2171.95  2180.08  2183.08  2188.32  2189.48
                             2199.79  2207.88  2210.54  2214.34  2217.81
                             2331.27  2548.00  2569.31  4321.67  4346.33
                             4375.80  4382.57  4387.97  4403.50  4422.27
                             4451.71  4469.91  4476.04  4482.61  4487.09
                             4499.39  4528.46  4550.51  4562.65  4707.53
                             4729.57  4754.49  5151.74  5191.70  5336.84

 Zero-point correction=                           0.358513 (Hartree/Particle)
 Thermal correction to Energy=                    0.380028
 Thermal correction to Enthalpy=                  0.380972
 Thermal correction to Gibbs Free Energy=         0.305246
 Sum of electronic and zero-point Energies=           -956.838805
 Sum of electronic and thermal Energies=              -956.817291
 Sum of electronic and thermal Enthalpies=            -956.816347
 Sum of electronic and thermal Free Energies=         -956.892073

                     E (Thermal)             CV                S
                      KCal/Mol        Cal/Mol-Kelvin    Cal/Mol-Kelvin
 Total                  238.471             79.299            159.379
 Electronic               0.000              0.000              0.000
 Translational            0.889              2.981             42.810
 Rotational               0.889              2.981             34.502
 Vibrational            236.693             73.337             82.067
 Vibration     1          0.593              1.986              7.161
 Vibration     2          0.593              1.985              6.119
 Vibration     3          0.594              1.983              5.720
 Vibration     4          0.595              1.979              5.030
 Vibration     5          0.596              1.977              4.756
 Vibration     6          0.597              1.972              4.366
 Vibration     7          0.599              1.966              4.025
 Vibration     8          0.600              1.961              3.836
 Vibration     9          0.606              1.943              3.302
 Vibration    10          0.614              1.916              2.847
 Vibration    11          0.620              1.896              2.593
 Vibration    12          0.631              1.860              2.275
 Vibration    13          0.634              1.850              2.204
 Vibration    14          0.645              1.816              1.987
 Vibration    15          0.646              1.814              1.977
 Vibration    16          0.654              1.788              1.845
 Vibration    17          0.655              1.786              1.837
 Vibration    18          0.660              1.771              1.766
 Vibration    19          0.672              1.735              1.620
 Vibration    20          0.703              1.644              1.334
 Vibration    21          0.718              1.600              1.224
 Vibration    22          0.735              1.553              1.119
 Vibration    23          0.745              1.525              1.062
 Vibration    24          0.769              1.463              0.951
 Vibration    25          0.775              1.446              0.923
 Vibration    26          0.784              1.423              0.886
 Vibration    27          0.828              1.313              0.733
 Vibration    28          0.839              1.289              0.703
 Vibration    29          0.845              1.273              0.685
 Vibration    30          0.882              1.189              0.593
 Vibration    31          0.925              1.099              0.507
 Vibration    32          0.932              1.084              0.493
 Vibration    33          0.971              1.007              0.430

 Optimization completed.
    -- Stationary point found.
 Normal termination of Gaussian 16 at Mon Dec 14 14:27:27 2020.

 ----------------------------------------------------------------------
 # B3LYP/6-311++G(d,p) empiricaldispersion=gd3bj scf=xqc pop=npa geom=c
 heck
 ----------------------------------------------------------------------

 ----------------------------------------
 CID_103771071_JID_10879_Energie_neutraal
 ----------------------------------------
 Structure from the checkpoint file:  "JID_10879.chk"
 Charge =  0 Multiplicity = 1

 SCF Done:  E(RB3LYP) =  -957.487258842     A.U. after   15 cycles
 Normal termination of Gaussian 16 at Mon Dec 14 14:36:09 2020.

 ----------------------------------------------------------------------
 # B3LYP/6-311++G(d,p) empiricaldispersion=gd3bj scf=xqc pop=npa geom=c
 heck
 ----------------------------------------------------------------------

 --------------------------------------
 CID_103771071_JID_10879_Energie_kation
 --------------------------------------
 Structure from the checkpoint file:  "JID_10879.chk"
 Charge =  1 Multiplicity = 2

 SCF Done:  E(UB3LYP) =  -957.174551579     A.U. after   32 cycles
 Normal termination of Gaussian 16 at Mon Dec 14 15:00:21 2020.
 Gaussian 16:  ES64L-G16RevA.03 25-Dec-2016

 ----------------------------------------------------------------------
 # B3LYP/6-311++G(d,p) empiricaldispersion=gd3bj scf=xqc pop=npa geom=c
 heck
 ----------------------------------------------------------------------

 -------------------------------------
 CID_103771071_JID_10879_Energie_anion
 -------------------------------------
 Structure from the checkpoint file:  "JID_10879.chk"
 Charge = -1 Multiplicity = 2

                         Standard orientation:
 ---------------------------------------------------------------------
 Center     Atomic      Atomic             Coordinates (Angstroms)
 Number     Number       Type             X           Y           Z
 ---------------------------------------------------------------------
      1          6           0        5.171664   -1.606115   -0.915258
      2          6           0        4.715966   -0.863820    0.348029
      3          6           0        5.859161   -0.777133    1.367108
      4          6           0        4.184807    0.546394    0.034538
      5          6           0        3.013347    0.632634   -0.952375
      6          6           0        1.787360   -0.202327   -0.546052
      7          7           0        1.261760    0.212403    0.748517
      8          6           0        0.019071    0.660042    1.131933
      9          8           0       -0.199829    0.937847    2.303151
     10          6           0       -1.089103    0.836167    0.077366
     11          6           0       -0.815291    2.010557   -0.875416
     12          7           0       -1.397383   -0.417849   -0.615729
     13          6           0       -2.544177   -1.180726   -0.495265
     14          8           0       -2.524993   -2.382830   -0.728718
     15          6           0       -3.801530   -0.481791   -0.154105
     16          6           0       -4.285722    0.793769   -0.304388
     17          6           0       -5.646562    0.770136    0.126702
     18          6           0       -5.892637   -0.516826    0.508771
     19          8           0       -4.792146   -1.287184    0.338625
     20          8           0        2.629492    1.990214   -1.153964
     21          1           0        5.945582   -1.033494   -1.441895
     22          1           0        4.348385   -1.777454   -1.617355
     23          1           0        5.595089   -2.583785   -0.660347
     24          1           0        3.905590   -1.448204    0.810396
     25          1           0        6.706096   -0.216013    0.952916
     26          1           0        5.539595   -0.269985    2.284871
     27          1           0        6.220404   -1.774700    1.640481
     28          1           0        3.883251    1.033615    0.973960
     29          1           0        4.997894    1.160763   -0.372284
     30          1           0        3.334907    0.282160   -1.938182
     31          1           0        1.029312   -0.050875   -1.312812
     32          1           0        2.035958   -1.271450   -0.527738
     33          1           0        1.863266    0.061557    1.550533
     34          1           0       -1.958602    1.080208    0.685316
     35          1           0        0.105975    1.891141   -1.450324
     36          1           0       -1.647078    2.116061   -1.578777
     37          1           0       -0.730494    2.938247   -0.297794
     38          1           0       -0.622438   -1.017318   -0.868413
     39          1           0       -3.749285    1.643066   -0.700494
     40          1           0       -6.342603    1.596428    0.146734
     41          1           0       -6.758513   -1.020744    0.910173
     42          1           0        2.288764    2.308764   -0.300757
 ---------------------------------------------------------------------

 SCF Done:  E(UB3LYP) =  -957.487607754     A.U. after   33 cycles
 SCF Done:  E(UB3LYP) =  -957.487607754     a.u. after    1 cycles

 The electronic state is 2-A.
 Alpha  occ. eigenvalues --  -19.07407 -19.05124 -19.00763 -18.96577 -14.26178
 Alpha  occ. eigenvalues --  -14.22956 -10.19338 -10.15231 -10.15152 -10.13817
 Alpha  occ. eigenvalues --  -10.13224 -10.11656 -10.11201 -10.10192 -10.09253
 Alpha  occ. eigenvalues --  -10.08369 -10.08097 -10.07896 -10.07382 -10.06760
 Alpha  occ. eigenvalues --   -1.00655  -0.96187  -0.95496  -0.92056  -0.84759
 Alpha  occ. eigenvalues --   -0.81861  -0.74002  -0.69987  -0.68467  -0.67524
 Alpha  occ. eigenvalues --   -0.65319  -0.62158  -0.60778  -0.57539  -0.54627
 Alpha  occ. eigenvalues --   -0.52904  -0.51023  -0.49989  -0.48779  -0.45347
 Alpha  occ. eigenvalues --   -0.44356  -0.43584  -0.42314  -0.41326  -0.39240
 Alpha  occ. eigenvalues --   -0.39122  -0.37102  -0.36680  -0.36420  -0.35300
 Alpha  occ. eigenvalues --   -0.34073  -0.33948  -0.33682  -0.33022  -0.32590
 Alpha  occ. eigenvalues --   -0.31745  -0.31193  -0.30572  -0.30432  -0.29646
 Alpha  occ. eigenvalues --   -0.29321  -0.29291  -0.28040  -0.27724  -0.27075
 Alpha  occ. eigenvalues --   -0.26503  -0.25765  -0.25308  -0.24850  -0.20905
 Alpha  occ. eigenvalues --   -0.19183  -0.18458  -0.17896  -0.15262  -0.14423
 Alpha  occ. eigenvalues --   -0.13272   0.03581
 Alpha virt. eigenvalues --    0.04744   0.06412   0.06639   0.07089   0.07281
 Alpha virt. eigenvalues --    0.08003   0.08536   0.08949   0.09114   0.09687
 Alpha virt. eigenvalues --    0.10037   0.10202   0.10654   0.11453   0.11712

  Beta  occ. eigenvalues --  -19.07212 -19.05120 -19.00758 -18.96356 -14.26159
  Beta  occ. eigenvalues --  -14.22941 -10.19328 -10.15145 -10.15053 -10.13808
  Beta  occ. eigenvalues --  -10.13220 -10.11499 -10.11115 -10.10181 -10.09241
  Beta  occ. eigenvalues --  -10.08357 -10.08066 -10.07863 -10.07444 -10.06630
  Beta  occ. eigenvalues --   -1.00335  -0.96172  -0.95485  -0.91683  -0.84727
  Beta  occ. eigenvalues --   -0.81734  -0.73975  -0.69799  -0.68417  -0.67472
  Beta  occ. eigenvalues --   -0.65003  -0.62124  -0.60715  -0.57482  -0.54581
  Beta  occ. eigenvalues --   -0.52544  -0.50912  -0.49905  -0.48717  -0.45164
  Beta  occ. eigenvalues --   -0.44265  -0.43562  -0.42254  -0.41264  -0.39210
  Beta  occ. eigenvalues --   -0.39081  -0.36963  -0.36639  -0.36207  -0.34864
  Beta  occ. eigenvalues --   -0.33877  -0.33789  -0.33587  -0.32890  -0.32521
  Beta  occ. eigenvalues --   -0.31675  -0.31159  -0.30518  -0.30340  -0.29549
  Beta  occ. eigenvalues --   -0.29230  -0.29127  -0.27977  -0.27296  -0.26719
  Beta  occ. eigenvalues --   -0.26358  -0.25729  -0.25269  -0.24818  -0.20886
  Beta  occ. eigenvalues --   -0.18988  -0.17871  -0.17779  -0.14948  -0.14063
  Beta  occ. eigenvalues --   -0.12337
  Beta virt. eigenvalues --    0.05463   0.06561   0.06716   0.07219   0.07459
  Beta virt. eigenvalues --    0.07519   0.08221   0.08756   0.09122   0.09208
  Beta virt. eigenvalues --    0.09914   0.10132   0.10310   0.10717   0.11511

 Mulliken charges and spin densities:
               1          2
     1  C    0.649378  -1.328712
     2  C   -1.218914   1.699621
     3  C    0.269649  -0.877818
     4  C    0.599211  -1.201216
     5  C   -0.134234  -0.013495
     6  C   -0.280866  -0.141913
     7  N   -0.272108   0.022090
     8  C   -0.144293   0.036608
     9  O   -0.267084  -0.005998
    10  C   -0.185085  -0.090678
    11  C   -0.471623  -0.077170
    12  N    0.073890   0.015032
    13  C    0.051127   0.005296
    14  O   -0.348144   0.081176
    15  C   -0.923086   0.009828
    16  C    0.731459   0.212169
    17  C   -0.673468  -0.115573
    18  C    0.192604   0.147676
    19  O   -0.012725   0.033657
    20  O   -0.128452   0.004201
    21  H   -0.096103   0.252202
    22  H   -0.044288   0.170126
    23  H   -0.214537   0.357858
    24  H    0.042613   0.098750
    25  H   -0.082258   0.217542
    26  H   -0.170308   0.303851
    27  H   -0.281327   0.432997
    28  H    0.137573   0.017738
    29  H    0.033082   0.148670
    30  H    0.121515   0.112594
    31  H    0.172430  -0.014599
    32  H    0.079469   0.131557
    33  H    0.296855   0.065377
    34  H    0.255880  -0.037804
    35  H    0.044294   0.112108
    36  H    0.053452   0.080653
    37  H    0.130415   0.034423
    38  H    0.411170   0.035017
    39  H    0.108962   0.031433
    40  H    0.116705   0.018067
    41  H    0.159427  -0.007592
    42  H    0.217742   0.024247
 Sum of Mulliken charges =  -1.00000   1.00000

 Dipole moment (field-independent basis, Debye):
    X=             -1.4366    Y=              5.1000    Z=             -1.1898  Tot=              5.4304
 Quadrupole moment (field-independent basis, Debye-Ang):
   XX=           -231.7254   YY=           -160.1880   ZZ=           -156.9773
   XY=             -2.8430   XZ=             -5.3105   YZ=             -2.4951

 Summary of Natural Population Analysis:

                                       Natural Population
                Natural  -----------------------------------------------
    Atom  No    Charge         Core      Valence    Rydberg      Total
 -----------------------------------------------------------------------
      C    1   -0.28704      0.99965     2.28115    0.00624     3.28704
      C    2   -0.11798      0.99962     2.10905    0.00931     3.11798
      C    3   -0.28257      0.99965     2.27697    0.00596     3.28257
      C    4   -0.20235      0.99959     2.19369    0.00906     3.20235
      C    5    0.06299      0.99955     1.92451    0.01295     2.93701
      C    6   -0.10523      0.99958     2.09595    0.00970     3.10523
      N    7   -0.33080      0.99966     2.82035    0.01078     3.83080
      C    8    0.34728      0.99964     1.63025    0.02283     2.65272
      O    9   -0.31715      0.99988     3.31124    0.00603     4.31715
      C   10   -0.05546      0.99955     2.04366    0.01226     3.05546
      C   11   -0.29216      0.99964     2.28709    0.00543     3.29216
      N   12   -0.32756      0.99967     2.81797    0.00991     3.82756
      C   13    0.33986      0.99962     1.63918    0.02134     2.66014
      O   14   -0.29342      0.99988     3.28820    0.00534     4.29342
      C   15    0.11530      0.99944     1.87134    0.01393     2.88470
      C   16   -0.12069      0.99953     2.11333    0.00783     3.12069
      C   17   -0.17577      0.99958     2.16776    0.00843     3.17577
      C   18    0.09257      0.99954     1.89392    0.01397     2.90743
      O   19   -0.20282      0.99986     3.19492    0.00805     4.20282
      O   20   -0.36918      0.99990     3.36267    0.00661     4.36918
      H   21    0.09805      0.00000     0.40099    0.00096     0.40195
      H   22    0.09747      0.00000     0.40147    0.00106     0.40253
      H   23    0.10336      0.00000     0.39566    0.00098     0.39664
      H   24    0.09088      0.00000     0.40694    0.00218     0.40912
      H   25    0.09712      0.00000     0.40183    0.00105     0.40288
      H   26    0.09961      0.00000     0.39941    0.00098     0.40039
      H   27    0.10214      0.00000     0.39677    0.00109     0.39786
      H   28    0.09585      0.00000     0.40257    0.00157     0.40415
      H   29    0.10498      0.00000     0.39391    0.00112     0.39502
      H   30    0.09211      0.00000     0.40668    0.00121     0.40789
      H   31    0.10514      0.00000     0.39316    0.00170     0.39486
      H   32    0.09995      0.00000     0.39858    0.00146     0.40005
      H   33    0.19531      0.00000     0.30176    0.00293     0.30469
      H   34    0.11966      0.00000     0.37771    0.00263     0.38034
      H   35    0.10547      0.00000     0.39302    0.00151     0.39453
      H   36    0.10338      0.00000     0.39537    0.00125     0.39662
      H   37    0.09928      0.00000     0.39982    0.00090     0.40072
      H   38    0.18941      0.00000     0.30722    0.00337     0.31059
      H   39    0.10381      0.00000     0.39519    0.00100     0.39619
      H   40    0.10296      0.00000     0.39622    0.00082     0.39704
      H   41    0.08822      0.00000     0.41090    0.00088     0.41178
      H   42    0.22802      0.00000     0.26916    0.00282     0.27198
 =======================================================================
   * Total *   -0.00000     19.99302    55.76752    0.23946    76.00000

 Normal termination of Gaussian 16 at Mon Dec 14 15:25:28 2020.
