 Gaussian 16, Revision A.03,

 -----------------------------------------------------------
 # opt freq B3LYP/6-31G(d) empiricaldispersion=gd3bj scf=xqc
 -----------------------------------------------------------

 -------------------------------
 CID_131006164_JID_3967_neutraal
 -------------------------------
 Symbolic Z-matrix:
 Charge =  0 Multiplicity = 1

 SCF Done:  E(RB3LYP) =  -627.431574230     A.U. after   15 cycles
 SCF Done:  E(RB3LYP) =  -627.436706453     A.U. after   13 cycles
 SCF Done:  E(RB3LYP) =  -627.438061112     A.U. after   12 cycles
 SCF Done:  E(RB3LYP) =  -627.439261521     A.U. after   12 cycles
 SCF Done:  E(RB3LYP) =  -627.439446559     A.U. after   12 cycles
 SCF Done:  E(RB3LYP) =  -627.439639051     A.U. after   12 cycles
 SCF Done:  E(RB3LYP) =  -627.439796088     A.U. after   11 cycles
 SCF Done:  E(RB3LYP) =  -627.439819867     A.U. after   10 cycles
 SCF Done:  E(RB3LYP) =  -627.439834722     A.U. after    9 cycles
 SCF Done:  E(RB3LYP) =  -627.439843826     A.U. after   10 cycles
 SCF Done:  E(RB3LYP) =  -627.439856104     A.U. after    9 cycles
 SCF Done:  E(RB3LYP) =  -627.439857875     A.U. after    9 cycles
 SCF Done:  E(RB3LYP) =  -627.439858742     A.U. after    9 cycles
 SCF Done:  E(RB3LYP) =  -627.439858852     A.U. after    7 cycles
 SCF Done:  E(RB3LYP) =  -627.439858889     A.U. after    7 cycles
 Optimization completed.
    -- Stationary point found.
 Normal termination of Gaussian 16 at Sun Dec 13 20:07:27 2020.

 --------------------------------------------------------------------
 #N Geom=AllCheck Guess=TCheck SCRF=Check GenChk RB3LYP/6-31G(d) Freq
 --------------------------------------------------------------------

 Structure from the checkpoint file:  "JID_3967.chk"
 -------------------------------
 CID_131006164_JID_3967_neutraal
 -------------------------------
 Charge =  0 Multiplicity = 1

 SCF Done:  E(RB3LYP) =  -627.439858889     A.U. after    1 cycles

  Exact polarizability: 150.100  -2.627 106.359   0.926  -7.128  72.958
 Approx polarizability: 190.144  -3.759 188.210   5.195 -19.743 107.967

                      1                      2                      3
                      A                      A                      A
 Frequencies --     48.8039                64.2825                75.5123
 Red. masses --      2.9828                 1.1641                 4.8899
 Frc consts  --      0.0042                 0.0028                 0.0164
 IR Inten    --      3.1371                 0.2524                 0.8694

                      4                      5                      6
                      A                      A                      A
 Frequencies --     90.7320               132.9383               145.7700
 Red. masses --      4.4144                 4.9654                 2.7681
 Frc consts  --      0.0214                 0.0517                 0.0347
 IR Inten    --      2.2931                 7.5364                 5.1408

                      7                      8                      9
                      A                      A                      A
 Frequencies --    152.7683               185.8234               232.4242
 Red. masses --      5.5158                 4.0553                 1.3363
 Frc consts  --      0.0758                 0.0825                 0.0425
 IR Inten    --      0.5930                 6.0295                 0.6926

                     10                     11                     12
                      A                      A                      A
 Frequencies --    244.1601               294.3019               332.0359
 Red. masses --      2.0277                 4.1734                 3.1083
 Frc consts  --      0.0712                 0.2130                 0.2019
 IR Inten    --      4.0323                 2.4784                 1.9888

                     13                     14                     15
                      A                      A                      A
 Frequencies --    363.8486               405.2200               436.0103
 Red. masses --      2.6912                 3.1136                 4.0511
 Frc consts  --      0.2099                 0.3012                 0.4537
 IR Inten    --     20.8383                 1.6833                 3.8087

                     16                     17                     18
                      A                      A                      A
 Frequencies --    489.4566               523.7301               587.1824
 Red. masses --      1.2931                 3.3078                 3.4239
 Frc consts  --      0.1825                 0.5346                 0.6955
 IR Inten    --    128.7021                 5.8900                75.5401

                     19                     20                     21
                      A                      A                      A
 Frequencies --    604.7796               627.1304               640.4193
 Red. masses --      2.5714                 2.1533                 2.6357
 Frc consts  --      0.5541                 0.4990                 0.6369
 IR Inten    --     10.9148                58.6865                51.5024

                     22                     23                     24
                      A                      A                      A
 Frequencies --    699.4100               705.6971               723.4167
 Red. masses --      2.8744                 2.4427                 2.7293
 Frc consts  --      0.8284                 0.7167                 0.8415
 IR Inten    --     24.8351                 2.0285                29.9909

                     25                     26                     27
                      A                      A                      A
 Frequencies --    779.3568               896.7663               910.5583
 Red. masses --      4.3336                 1.9032                 1.2917
 Frc consts  --      1.5508                 0.9018                 0.6310
 IR Inten    --     65.5966                 5.8009                 9.9123

                     28                     29                     30
                      A                      A                      A
 Frequencies --    940.1067               958.4853              1004.7448
 Red. masses --      1.3211                 1.9572                 1.5232
 Frc consts  --      0.6879                 1.0594                 0.9060
 IR Inten    --      1.6163                18.4098                 3.4913

                     31                     32                     33
                      A                      A                      A
 Frequencies --   1019.6257              1046.6746              1076.5216
 Red. masses --      3.3840                 5.0735                 1.4933
 Frc consts  --      2.0728                 3.2747                 1.0196
 IR Inten    --     20.0003                 0.8667                 2.5352

                     34                     35                     36
                      A                      A                      A
 Frequencies --   1089.8654              1098.2436              1158.3637
 Red. masses --      4.2341                 2.4775                 2.1217
 Frc consts  --      2.9631                 1.7606                 1.6773
 IR Inten    --     43.8230                44.7388                22.0419

                     37                     38                     39
                      A                      A                      A
 Frequencies --   1169.9471              1193.4950              1218.2642
 Red. masses --      1.7229                 2.1707                 2.4099
 Frc consts  --      1.3895                 1.8218                 2.1074
 IR Inten    --     42.8421                37.8606                57.0148

                     40                     41                     42
                      A                      A                      A
 Frequencies --   1242.1636              1296.6212              1345.8033
 Red. masses --      1.3782                 2.3093                 1.2991
 Frc consts  --      1.2529                 2.2875                 1.3863
 IR Inten    --     44.4947               128.3351                12.3725

                     43                     44                     45
                      A                      A                      A
 Frequencies --   1364.2656              1378.5215              1399.0498
 Red. masses --      1.8042                 1.8649                 1.3353
 Frc consts  --      1.9785                 2.0880                 1.5399
 IR Inten    --     37.0330                35.8029                39.9249

                     46                     47                     48
                      A                      A                      A
 Frequencies --   1423.9426              1435.3170              1443.6187
 Red. masses --      2.0195                 1.3047                 2.2791
 Frc consts  --      2.4126                 1.5836                 2.7984
 IR Inten    --    128.7330                 1.5099                 7.6458

                     49                     50                     51
                      A                      A                      A
 Frequencies --   1443.9368              1453.3613              1485.3404
 Red. masses --      1.9901                 1.4873                 1.4691
 Frc consts  --      2.4446                 1.8510                 1.9097
 IR Inten    --     14.1026                88.8163                49.1118

                     52                     53                     54
                      A                      A                      A
 Frequencies --   1512.9520              1523.8769              1524.8620
 Red. masses --      1.0445                 1.0754                 1.1760
 Frc consts  --      1.4087                 1.4713                 1.6111
 IR Inten    --      7.5620                 4.7538                23.3972

                     55                     56                     57
                      A                      A                      A
 Frequencies --   1526.5394              1536.3015              1541.6375
 Red. masses --      1.0912                 1.1018                 6.2796
 Frc consts  --      1.4982                 1.5322                 8.7932
 IR Inten    --      0.5467                 1.9139               206.1993

                     58                     59                     60
                      A                      A                      A
 Frequencies --   1606.3238              1741.3851              2981.1196
 Red. masses --      4.3650                 7.4656                 1.0722
 Frc consts  --      6.6359                13.3385                 5.6143
 IR Inten    --     11.9013               339.4611                75.0437

                     61                     62                     63
                      A                      A                      A
 Frequencies --   3047.9490              3050.8385              3101.4680
 Red. masses --      1.0383                 1.0399                 1.1014
 Frc consts  --      5.6830                 5.7025                 6.2420
 IR Inten    --     23.9285                26.6582                15.1740

                     64                     65                     66
                      A                      A                      A
 Frequencies --   3106.2788              3109.0978              3131.4632
 Red. masses --      1.0911                 1.0947                 1.0920
 Frc consts  --      6.2027                 6.2344                 6.3093
 IR Inten    --     19.3013                10.2579                29.1195

                     67                     68                     69
                      A                      A                      A
 Frequencies --   3135.9138              3166.9694              3273.9716
 Red. masses --      1.1009                 1.0982                 1.0980
 Frc consts  --      6.3788                 6.4899                 6.9346
 IR Inten    --     17.7082                 3.5504                 1.2941

                     70                     71                     72
                      A                      A                      A
 Frequencies --   3551.2492              3632.1521              3694.3165
 Red. masses --      1.0746                 1.0804                 1.0650
 Frc consts  --      7.9849                 8.3980                 8.5636
 IR Inten    --     21.6392                68.9098                24.8801

 - Thermochemistry -
 -------------------
 Temperature   298.150 Kelvin.  Pressure   1.00000 Atm.
 Atom     1 has atomic number  6 and mass  12.00000

 Molecular mass:   183.10078 amu.
 Principal axes and moments of inertia in atomic units:
                           1         2         3
     Eigenvalues --  1289.712863893.666804524.85496
           X            0.99996   0.00063  -0.00866
           Y           -0.00046   0.99981   0.01932
           Z            0.00867  -0.01931   0.99978
 This molecule is an asymmetric top.
 Rotational symmetry number  1.
 Warning -- assumption of classical behavior for rotation
           may cause significant error
 Rotational temperatures (Kelvin)      0.06716     0.02224     0.01914
 Rotational constants (GHZ):           1.39934     0.46351     0.39885
 Zero-point vibrational energy     571668.3 (Joules/Mol)
                                  136.63201 (Kcal/Mol)
 Warning -- explicit consideration of  19 degrees of freedom as
           vibrations may cause significant error
 Vibrational temperatures:     70.22    92.49   108.65   130.54   191.27
          (Kelvin)            209.73   219.80   267.36   334.41   351.29
                              423.43   477.73   523.50   583.02   627.32
                              704.22   753.53   844.82   870.14   902.30
                              921.42  1006.29  1015.34  1040.84  1121.32
                             1290.25  1310.09  1352.60  1379.05  1445.60
                             1467.01  1505.93  1548.87  1568.07  1580.13
                             1666.63  1683.29  1717.17  1752.81  1787.20
                             1865.55  1936.31  1962.87  1983.38  2012.92
                             2048.74  2065.10  2077.05  2077.50  2091.06
                             2137.07  2176.80  2192.52  2193.94  2196.35
                             2210.40  2218.07  2311.14  2505.46  4289.17
                             4385.32  4389.48  4462.32  4469.24  4473.30
                             4505.48  4511.88  4556.56  4710.51  5109.46
                             5225.86  5315.30

 Zero-point correction=                           0.217737 (Hartree/Particle)
 Thermal correction to Energy=                    0.231069
 Thermal correction to Enthalpy=                  0.232013
 Thermal correction to Gibbs Free Energy=         0.177301
 Sum of electronic and zero-point Energies=           -627.222122
 Sum of electronic and thermal Energies=              -627.208790
 Sum of electronic and thermal Enthalpies=            -627.207846
 Sum of electronic and thermal Free Energies=         -627.262558

                     E (Thermal)             CV                S
                      KCal/Mol        Cal/Mol-Kelvin    Cal/Mol-Kelvin
 Total                  144.998             48.749            115.151
 Electronic               0.000              0.000              0.000
 Translational            0.889              2.981             41.521
 Rotational               0.889              2.981             31.497
 Vibrational            143.220             42.787             42.133
 Vibration     1          0.595              1.978              4.865
 Vibration     2          0.597              1.971              4.321
 Vibration     3          0.599              1.965              4.004
 Vibration     4          0.602              1.956              3.644
 Vibration     5          0.613              1.920              2.903
 Vibration     6          0.617              1.907              2.727
 Vibration     7          0.619              1.900              2.637
 Vibration     8          0.632              1.859              2.269
 Vibration     9          0.653              1.791              1.860
 Vibration    10          0.659              1.772              1.772
 Vibration    11          0.689              1.684              1.449
 Vibration    12          0.714              1.612              1.250
 Vibration    13          0.737              1.547              1.106
 Vibration    14          0.770              1.459              0.944
 Vibration    15          0.796              1.392              0.839
 Vibration    16          0.845              1.273              0.685
 Vibration    17          0.879              1.197              0.601
 Vibration    18          0.944              1.059              0.472
 Vibration    19          0.963              1.022              0.442

 Optimization completed.
    -- Stationary point found.
 Normal termination of Gaussian 16 at Sun Dec 13 20:13:24 2020.

 ----------------------------------------------------------------------
 # B3LYP/6-311++G(d,p) empiricaldispersion=gd3bj scf=xqc pop=npa geom=c
 heck
 ----------------------------------------------------------------------

 ---------------------------------------
 CID_131006164_JID_3967_Energie_neutraal
 ---------------------------------------
 Structure from the checkpoint file:  "JID_3967.chk"
 Charge =  0 Multiplicity = 1

 SCF Done:  E(RB3LYP) =  -627.632153184     A.U. after   14 cycles
 Normal termination of Gaussian 16 at Sun Dec 13 20:15:57 2020.

 ----------------------------------------------------------------------
 # B3LYP/6-311++G(d,p) empiricaldispersion=gd3bj scf=xqc pop=npa geom=c
 heck
 ----------------------------------------------------------------------

 -------------------------------------
 CID_131006164_JID_3967_Energie_kation
 -------------------------------------
 Structure from the checkpoint file:  "JID_3967.chk"
 Charge =  1 Multiplicity = 2

 SCF Done:  E(UB3LYP) =  -627.317357665     A.U. after   25 cycles
 Normal termination of Gaussian 16 at Sun Dec 13 20:22:22 2020.
 Gaussian 16:  ES64L-G16RevA.03 25-Dec-2016

 ----------------------------------------------------------------------
 # B3LYP/6-311++G(d,p) empiricaldispersion=gd3bj scf=xqc pop=npa geom=c
 heck
 ----------------------------------------------------------------------

 ------------------------------------
 CID_131006164_JID_3967_Energie_anion
 ------------------------------------
 Structure from the checkpoint file:  "JID_3967.chk"
 Charge = -1 Multiplicity = 2

                         Standard orientation:
 ---------------------------------------------------------------------
 Center     Atomic      Atomic             Coordinates (Angstroms)
 Number     Number       Type             X           Y           Z
 ---------------------------------------------------------------------
      1          6           0        4.368364   -0.232736    0.410542
      2          6           0        2.893714   -0.345762    0.214507
      3          7           0        2.193639   -1.475377    0.258535
      4          6           0        0.889793   -1.119981    0.036380
      5          6           0        0.782438    0.250995   -0.141828
      6          7           0        2.081243    0.716335   -0.027193
      7          6           0       -0.249436    1.236101   -0.487770
      8          8           0        0.078404    2.353786   -0.892221
      9          7           0       -1.580145    0.874315   -0.404058
     10          6           0       -2.176450   -0.051533    0.572746
     11          6           0       -3.073766    0.703593    1.554028
     12          6           0       -2.938785   -1.151563   -0.175585
     13          8           0       -2.110827   -1.830393   -1.100526
     14          1           0        4.855112    0.246329   -0.447354
     15          1           0        4.614336    0.353751    1.304193
     16          1           0        4.780982   -1.235945    0.530192
     17          1           0        0.104258   -1.859156   -0.033758
     18          1           0        2.322440    1.687459   -0.176015
     19          1           0       -2.168959    1.660418   -0.663715
     20          1           0       -1.352066   -0.514250    1.119320
     21          1           0       -3.893922    1.208482    1.028018
     22          1           0       -3.518173    0.014116    2.279955
     23          1           0       -2.501747    1.458794    2.101511
     24          1           0       -3.301687   -1.902883    0.532647
     25          1           0       -3.818188   -0.708555   -0.674457
     26          1           0       -1.701386   -1.137305   -1.647677
 ---------------------------------------------------------------------

 SCF Done:  E(UB3LYP) =  -627.622819657     A.U. after   33 cycles
 SCF Done:  E(UB3LYP) =  -627.622819657     a.u. after    1 cycles

 The electronic state is 2-A.
 Alpha  occ. eigenvalues --  -19.02240 -18.96974 -14.24894 -14.22265 -14.18437
 Alpha  occ. eigenvalues --  -10.15444 -10.12380 -10.11603 -10.11284 -10.08835
 Alpha  occ. eigenvalues --  -10.07739 -10.07313 -10.06967  -0.92993  -0.92442
 Alpha  occ. eigenvalues --   -0.90185  -0.81276  -0.76083  -0.67889  -0.67057
 Alpha  occ. eigenvalues --   -0.60307  -0.58345  -0.52527  -0.51142  -0.49756
 Alpha  occ. eigenvalues --   -0.47803  -0.42057  -0.40734  -0.38553  -0.36462
 Alpha  occ. eigenvalues --   -0.35512  -0.34753  -0.32796  -0.32299  -0.31812
 Alpha  occ. eigenvalues --   -0.30861  -0.30185  -0.29792  -0.28787  -0.28663
 Alpha  occ. eigenvalues --   -0.27426  -0.26056  -0.23655  -0.18347  -0.17952
 Alpha  occ. eigenvalues --   -0.17697  -0.15530  -0.14145  -0.12249   0.04569
 Alpha virt. eigenvalues --    0.06159   0.06662   0.08311   0.08817   0.09562
 Alpha virt. eigenvalues --    0.09792   0.10456   0.11561   0.11847   0.11925
 Alpha virt. eigenvalues --    0.12264   0.12674   0.14295   0.14819   0.15208

  Beta  occ. eigenvalues --  -19.02230 -18.96818 -14.24802 -14.22236 -14.18480
  Beta  occ. eigenvalues --  -10.15276 -10.12300 -10.11575 -10.11280 -10.08819
  Beta  occ. eigenvalues --  -10.07716 -10.07204 -10.06927  -0.92889  -0.92266
  Beta  occ. eigenvalues --   -0.90041  -0.81155  -0.75990  -0.67752  -0.66972
  Beta  occ. eigenvalues --   -0.60143  -0.58268  -0.52275  -0.51007  -0.49671
  Beta  occ. eigenvalues --   -0.47698  -0.41967  -0.40646  -0.38477  -0.36308
  Beta  occ. eigenvalues --   -0.35256  -0.34607  -0.32701  -0.32230  -0.31720
  Beta  occ. eigenvalues --   -0.30592  -0.30098  -0.29690  -0.28677  -0.28573
  Beta  occ. eigenvalues --   -0.26897  -0.25987  -0.23589  -0.18263  -0.17868
  Beta  occ. eigenvalues --   -0.17445  -0.15244  -0.13938  -0.11692
  Beta virt. eigenvalues --    0.06820   0.07164   0.08130   0.09110   0.09187
  Beta virt. eigenvalues --    0.09841   0.10333   0.10586   0.11747   0.12163
  Beta virt. eigenvalues --    0.12289   0.12482   0.12812   0.14290   0.15153

 Mulliken charges and spin densities:
               1          2
     1  C    0.938448  -1.330956
     2  C   -0.503431   0.585106
     3  N   -0.142507  -0.019266
     4  C   -0.253438   0.259145
     5  C    0.025672   0.031667
     6  N   -0.203913   0.071021
     7  C   -0.133991  -0.126764
     8  O   -0.405321   0.060085
     9  N   -0.246098   0.104000
    10  C   -0.854424   0.849559
    11  C    1.301249  -1.879756
    12  C    0.107149  -0.518313
    13  O   -0.250721   0.030678
    14  H   -0.428694   0.592099
    15  H   -0.014805   0.161805
    16  H    0.039335   0.119218
    17  H    0.164241   0.039299
    18  H    0.241619   0.079912
    19  H    0.203612   0.096730
    20  H    0.303820  -0.117340
    21  H   -0.387842   0.537193
    22  H   -0.176897   0.313676
    23  H   -0.208042   0.381127
    24  H    0.026985   0.136848
    25  H   -0.296407   0.448637
    26  H    0.154405   0.094591
 Sum of Mulliken charges =  -1.00000   1.00000

 Dipole moment (field-independent basis, Debye):
    X=              0.8130    Y=             -0.6771    Z=              1.3427  Tot=              1.7095
 Quadrupole moment (field-independent basis, Debye-Ang):
   XX=           -151.2783   YY=           -115.4559   ZZ=           -102.1179
   XY=              5.0226   XZ=              5.2047   YZ=              1.6491

 Summary of Natural Population Analysis:

                                       Natural Population
                Natural  -----------------------------------------------
    Atom  No    Charge         Core      Valence    Rydberg      Total
 -----------------------------------------------------------------------
      C    1   -0.30783      0.99963     2.30298    0.00521     3.30783
      C    2    0.20492      0.99965     1.77800    0.01743     2.79508
      N    3   -0.27365      0.99970     2.76408    0.00986     3.77365
      C    4    0.00095      0.99954     1.98698    0.01253     2.99905
      C    5   -0.00122      0.99951     1.98996    0.01175     3.00122
      N    6   -0.25511      0.99963     2.74667    0.00882     3.75511
      C    7    0.34592      0.99961     1.63381    0.02066     2.65408
      O    8   -0.32145      0.99989     3.31573    0.00584     4.32145
      N    9   -0.33218      0.99967     2.82077    0.01174     3.83218
      C   10   -0.03006      0.99959     2.01891    0.01156     3.03006
      C   11   -0.28984      0.99964     2.28447    0.00573     3.28984
      C   12   -0.00868      0.99957     1.99598    0.01313     3.00868
      O   13   -0.37056      0.99990     3.36364    0.00702     4.37056
      H   14    0.10842      0.00000     0.38880    0.00278     0.39158
      H   15    0.10289      0.00000     0.39616    0.00095     0.39711
      H   16    0.11233      0.00000     0.38642    0.00125     0.38767
      H   17    0.10513      0.00000     0.39322    0.00164     0.39487
      H   18    0.21114      0.00000     0.28691    0.00195     0.28886
      H   19    0.19214      0.00000     0.30524    0.00262     0.30786
      H   20    0.10404      0.00000     0.39318    0.00278     0.39596
      H   21    0.10084      0.00000     0.39673    0.00243     0.39916
      H   22    0.10131      0.00000     0.39773    0.00097     0.39869
      H   23    0.10503      0.00000     0.39399    0.00098     0.39497
      H   24    0.08593      0.00000     0.41296    0.00111     0.41407
      H   25    0.07681      0.00000     0.42132    0.00187     0.42319
      H   26    0.23280      0.00000     0.26396    0.00325     0.26720
 =======================================================================
   * Total *   -0.00000     12.99553    35.83860    0.16587    49.00000

 Normal termination of Gaussian 16 at Sun Dec 13 20:31:05 2020.
