 Gaussian 16, Revision A.03,

 -----------------------------------------------------------
 # opt freq B3LYP/6-31G(d) empiricaldispersion=gd3bj scf=xqc
 -----------------------------------------------------------

 -------------------------------
 CID_106802614_JID_8589_neutraal
 -------------------------------
 Symbolic Z-matrix:
 Charge =  0 Multiplicity = 1

 SCF Done:  E(RB3LYP) =  -823.978302281     A.U. after   16 cycles
 SCF Done:  E(RB3LYP) =  -823.987283975     A.U. after   13 cycles
 SCF Done:  E(RB3LYP) =  -823.960827138     A.U. after   15 cycles
 SCF Done:  E(RB3LYP) =  -823.985573952     A.U. after   13 cycles
 SCF Done:  E(RB3LYP) =  -823.991597656     A.U. after   11 cycles
 SCF Done:  E(RB3LYP) =  -823.990959698     A.U. after   13 cycles
 SCF Done:  E(RB3LYP) =  -823.993619192     A.U. after   12 cycles
 SCF Done:  E(RB3LYP) =  -823.993949652     A.U. after   12 cycles
 SCF Done:  E(RB3LYP) =  -823.994167100     A.U. after   11 cycles
 SCF Done:  E(RB3LYP) =  -823.994244556     A.U. after   11 cycles
 SCF Done:  E(RB3LYP) =  -823.994350784     A.U. after   10 cycles
 SCF Done:  E(RB3LYP) =  -823.994366756     A.U. after   10 cycles
 SCF Done:  E(RB3LYP) =  -823.994369295     A.U. after    9 cycles
 SCF Done:  E(RB3LYP) =  -823.994370044     A.U. after    7 cycles
 SCF Done:  E(RB3LYP) =  -823.994370159     A.U. after    7 cycles
 Optimization completed.
    -- Stationary point found.
 Normal termination of Gaussian 16 at Fri Dec 11 20:06:25 2020.

 --------------------------------------------------------------------
 #N Geom=AllCheck Guess=TCheck SCRF=Check GenChk RB3LYP/6-31G(d) Freq
 --------------------------------------------------------------------

 Structure from the checkpoint file:  "JID_8589.chk"
 -------------------------------
 CID_106802614_JID_8589_neutraal
 -------------------------------
 Charge =  0 Multiplicity = 1

 SCF Done:  E(RB3LYP) =  -823.994370159     A.U. after    1 cycles

  Exact polarizability: 230.326   6.864 151.526  17.045  -4.344 123.472
 Approx polarizability: 301.838  24.926 249.653  28.988 -10.934 182.040

                      1                      2                      3
                      A                      A                      A
 Frequencies --     21.3790                37.5513                40.2290
 Red. masses --      4.3166                 3.5802                 4.0783
 Frc consts  --      0.0012                 0.0030                 0.0039
 IR Inten    --      2.4646                 1.4120                 1.1212

                      4                      5                      6
                      A                      A                      A
 Frequencies --     60.6170                86.6277               103.3392
 Red. masses --      3.8516                 3.3749                 3.4464
 Frc consts  --      0.0083                 0.0149                 0.0217
 IR Inten    --      0.4446                 0.1582                 0.5567

                      7                      8                      9
                      A                      A                      A
 Frequencies --    118.9139               141.3717               157.0678
 Red. masses --      3.3170                 2.1205                 2.3193
 Frc consts  --      0.0276                 0.0250                 0.0337
 IR Inten    --      5.2439                 0.0937                 4.4541

                     10                     11                     12
                      A                      A                      A
 Frequencies --    169.7746               194.7020               213.4971
 Red. masses --      3.0764                 2.2931                 1.4419
 Frc consts  --      0.0522                 0.0512                 0.0387
 IR Inten    --      1.6288                 1.7225                 4.6966

                     13                     14                     15
                      A                      A                      A
 Frequencies --    225.4894               240.0491               256.4473
 Red. masses --      1.2872                 2.5085                 1.7162
 Frc consts  --      0.0386                 0.0852                 0.0665
 IR Inten    --      0.2489                 6.0476                 0.9775

                     16                     17                     18
                      A                      A                      A
 Frequencies --    262.3080               278.9086               316.3013
 Red. masses --      2.5444                 2.7217                 2.7601
 Frc consts  --      0.1031                 0.1247                 0.1627
 IR Inten    --      0.3660                 0.6967                 1.0925

                     19                     20                     21
                      A                      A                      A
 Frequencies --    357.6444               367.7034               382.7918
 Red. masses --      2.3257                 3.7662                 4.2296
 Frc consts  --      0.1753                 0.3000                 0.3652
 IR Inten    --      6.4442                14.2352                 2.0229

                     22                     23                     24
                      A                      A                      A
 Frequencies --    405.0012               437.7487               455.7888
 Red. masses --      2.8088                 2.8790                 3.3539
 Frc consts  --      0.2714                 0.3250                 0.4105
 IR Inten    --      5.5918                 5.9764                 2.9219

                     25                     26                     27
                      A                      A                      A
 Frequencies --    473.8044               494.9962               531.3590
 Red. masses --      3.9199                 3.6605                 2.7476
 Frc consts  --      0.5185                 0.5284                 0.4571
 IR Inten    --      2.4349                12.3175                 1.4034

                     28                     29                     30
                      A                      A                      A
 Frequencies --    562.6270               595.0824               625.1506
 Red. masses --      3.4927                 2.3132                 3.3865
 Frc consts  --      0.6514                 0.4826                 0.7798
 IR Inten    --      0.2587                13.2576                18.0791

                     31                     32                     33
                      A                      A                      A
 Frequencies --    667.4251               698.6376               711.1165
 Red. masses --      1.5529                 4.0615                 4.4479
 Frc consts  --      0.4076                 1.1680                 1.3252
 IR Inten    --    203.2189                23.4239                32.7679

                     34                     35                     36
                      A                      A                      A
 Frequencies --    730.0188               738.7743               754.9229
 Red. masses --      2.5772                 2.6455                 3.3094
 Frc consts  --      0.8092                 0.8507                 1.1112
 IR Inten    --     24.9769                13.4856                 3.1470

                     37                     38                     39
                      A                      A                      A
 Frequencies --    804.6987               815.3160               824.6469
 Red. masses --      1.1774                 1.7577                 1.3636
 Frc consts  --      0.4492                 0.6884                 0.5464
 IR Inten    --      5.9028                12.1929                10.8837

                     40                     41                     42
                      A                      A                      A
 Frequencies --    841.6645               858.1886               882.9945
 Red. masses --      1.6625                 1.3226                 2.1098
 Frc consts  --      0.6939                 0.5739                 0.9692
 IR Inten    --     47.0495                 0.8967                 1.3059

                     43                     44                     45
                      A                      A                      A
 Frequencies --    889.3794               957.4756               988.6188
 Red. masses --      2.3200                 1.9792                 2.8038
 Frc consts  --      1.0812                 1.0690                 1.6145
 IR Inten    --      5.3658                17.3476                 3.4737

                     46                     47                     48
                      A                      A                      A
 Frequencies --   1004.1286              1016.7491              1033.6984
 Red. masses --      2.3359                 2.3900                 2.0753
 Frc consts  --      1.3877                 1.4557                 1.3065
 IR Inten    --      7.5919                 8.3186                 5.7640

                     49                     50                     51
                      A                      A                      A
 Frequencies --   1052.5843              1076.1599              1094.4785
 Red. masses --      2.2217                 1.9479                 2.1513
 Frc consts  --      1.4502                 1.3291                 1.5183
 IR Inten    --      3.7221                13.4717                44.3669

                     52                     53                     54
                      A                      A                      A
 Frequencies --   1098.4025              1118.7576              1125.3747
 Red. masses --      1.8961                 1.6734                 1.9424
 Frc consts  --      1.3479                 1.2340                 1.4494
 IR Inten    --     20.1600                24.9638                22.8650

                     55                     56                     57
                      A                      A                      A
 Frequencies --   1154.0731              1167.5472              1176.0751
 Red. masses --      1.3114                 1.9459                 2.3475
 Frc consts  --      1.0291                 1.5628                 1.9130
 IR Inten    --     25.1566                20.0054                 5.2124

                     58                     59                     60
                      A                      A                      A
 Frequencies --   1187.6041              1230.7480              1249.9687
 Red. masses --      2.0750                 2.2885                 1.5284
 Frc consts  --      1.7243                 2.0424                 1.4069
 IR Inten    --     40.9397                 5.4114                14.5216

                     61                     62                     63
                      A                      A                      A
 Frequencies --   1258.4140              1287.9479              1297.0742
 Red. masses --      1.9977                 1.3456                 1.4440
 Frc consts  --      1.8640                 1.3152                 1.4313
 IR Inten    --      5.4323                10.1217                 6.7945

                     64                     65                     66
                      A                      A                      A
 Frequencies --   1312.8091              1327.6604              1329.6536
 Red. masses --      1.9905                 1.4179                 1.4783
 Frc consts  --      2.0212                 1.4726                 1.5399
 IR Inten    --    137.9584                 5.9266                23.6915

                     67                     68                     69
                      A                      A                      A
 Frequencies --   1354.7570              1372.2778              1383.1148
 Red. masses --      1.2856                 1.3704                 2.2405
 Frc consts  --      1.3902                 1.5205                 2.5253
 IR Inten    --     10.4847                25.1303                28.1661

                     70                     71                     72
                      A                      A                      A
 Frequencies --   1389.3969              1397.8098              1404.1214
 Red. masses --      1.5321                 1.4933                 1.3293
 Frc consts  --      1.7425                 1.7191                 1.5441
 IR Inten    --     62.1261                56.8871                 9.8403

                     73                     74                     75
                      A                      A                      A
 Frequencies --   1416.0358              1429.6586              1433.5269
 Red. masses --      1.4035                 1.4683                 1.5626
 Frc consts  --      1.6581                 1.7682                 1.8919
 IR Inten    --     21.9230                 1.3209                30.8538

                     76                     77                     78
                      A                      A                      A
 Frequencies --   1440.7773              1440.8915              1451.7954
 Red. masses --      1.2462                 1.2434                 1.2014
 Frc consts  --      1.5242                 1.5210                 1.4919
 IR Inten    --     10.0085                 2.2098               101.5757

                     79                     80                     81
                      A                      A                      A
 Frequencies --   1479.0589              1504.5748              1508.9747
 Red. masses --      1.3697                 1.0764                 1.7222
 Frc consts  --      1.7655                 1.4357                 2.3104
 IR Inten    --     36.8354                 2.2822                31.7728

                     82                     83                     84
                      A                      A                      A
 Frequencies --   1513.2242              1516.4343              1522.5343
 Red. masses --      1.0920                 1.1660                 1.0747
 Frc consts  --      1.4732                 1.5798                 1.4678
 IR Inten    --      8.0738                10.6280                 4.3485

                     85                     86                     87
                      A                      A                      A
 Frequencies --   1526.2976              1527.2914              1531.2384
 Red. masses --      1.0603                 1.0675                 1.0932
 Frc consts  --      1.4553                 1.4671                 1.5102
 IR Inten    --      3.5764                 1.2820                 7.4003

                     88                     89                     90
                      A                      A                      A
 Frequencies --   1532.2827              1539.9033              1544.2575
 Red. masses --      1.0728                 1.0770                 1.0707
 Frc consts  --      1.4840                 1.5047                 1.5044
 IR Inten    --      6.1143                 6.0626                10.1717

                     91                     92                     93
                      A                      A                      A
 Frequencies --   1550.6556              1572.4271              1656.0756
 Red. masses --      1.3597                 3.1003                 6.3777
 Frc consts  --      1.9263                 4.5164                10.3056
 IR Inten    --      4.3680                68.9695               172.9944

                     94                     95                     96
                      A                      A                      A
 Frequencies --   1726.1054              3020.8467              3025.3766
 Red. masses --      8.9137                 1.0805                 1.0459
 Frc consts  --     15.6474                 5.8093                 5.6400
 IR Inten    --    679.2404                15.7032                38.5540

                     97                     98                     99
                      A                      A                      A
 Frequencies --   3040.7900              3043.8347              3048.0306
 Red. masses --      1.0650                 1.0513                 1.0528
 Frc consts  --      5.8019                 5.7389                 5.7626
 IR Inten    --      3.5371                17.7604                84.6046

                    100                    101                    102
                      A                      A                      A
 Frequencies --   3054.8091              3056.5196              3076.1625
 Red. masses --      1.0620                 1.0352                 1.0711
 Frc consts  --      5.8392                 5.6982                 5.9715
 IR Inten    --     26.2946                17.3330                42.8466

                    103                    104                    105
                      A                      A                      A
 Frequencies --   3079.3297              3082.1471              3083.5608
 Red. masses --      1.0618                 1.0982                 1.0993
 Frc consts  --      5.9318                 6.1469                 6.1587
 IR Inten    --     33.2356                17.8688                18.1808

                    106                    107                    108
                      A                      A                      A
 Frequencies --   3092.5648              3094.2971              3109.0640
 Red. masses --      1.0942                 1.1008                 1.1041
 Frc consts  --      6.1659                 6.2101                 6.2881
 IR Inten    --     27.9752                63.2600                 3.1152

                    109                    110                    111
                      A                      A                      A
 Frequencies --   3110.3932              3116.6963              3128.0754
 Red. masses --      1.1020                 1.1016                 1.1019
 Frc consts  --      6.2817                 6.3045                 6.3527
 IR Inten    --     51.9397                52.8508                36.5248

                    112                    113                    114
                      A                      A                      A
 Frequencies --   3136.1328              3155.7464              3178.7561
 Red. masses --      1.1044                 1.0994                 1.0931
 Frc consts  --      6.4000                 6.4509                 6.5075
 IR Inten    --     34.9916                24.5904                 6.2703

                    115                    116                    117
                      A                      A                      A
 Frequencies --   3238.9287              3264.5468              3590.4699
 Red. masses --      1.0896                 1.0903                 1.0684
 Frc consts  --      6.7346                 6.8464                 8.1150
 IR Inten    --     10.2506                 2.3104               409.1164

 - Thermochemistry -
 -------------------
 Temperature   298.150 Kelvin.  Pressure   1.00000 Atm.
 Atom     1 has atomic number  6 and mass  12.00000

 Molecular mass:   253.17903 amu.
 Principal axes and moments of inertia in atomic units:
                           1         2         3
     Eigenvalues --  2086.292479102.395719424.09011
           X            0.99996  -0.00446   0.00829
           Y            0.00425   0.99966   0.02575
           Z           -0.00840  -0.02571   0.99963
 This molecule is an asymmetric top.
 Rotational symmetry number  1.
 Warning -- assumption of classical behavior for rotation
           may cause significant error
 Rotational temperatures (Kelvin)      0.04152     0.00952     0.00919
 Rotational constants (GHZ):           0.86505     0.19827     0.19150
 Zero-point vibrational energy     950257.4 (Joules/Mol)
                                  227.11698 (Kcal/Mol)
 Warning -- explicit consideration of  29 degrees of freedom as
           vibrations may cause significant error
 Vibrational temperatures:     30.76    54.03    57.88    87.21   124.64
          (Kelvin)            148.68   171.09   203.40   225.99   244.27
                              280.13   307.17   324.43   345.38   368.97
                              377.40   401.29   455.09   514.57   529.04
                              550.75   582.71   629.82   655.78   681.70
                              712.19   764.51   809.49   856.19   899.45
                              960.28  1005.18  1023.14  1050.33  1062.93
                             1086.17  1157.78  1173.06  1186.48  1210.97
                             1234.74  1270.43  1279.62  1377.59  1422.40
                             1444.72  1462.88  1487.26  1514.43  1548.35
                             1574.71  1580.36  1609.64  1619.16  1660.45
                             1679.84  1692.11  1708.70  1770.77  1798.43
                             1810.58  1853.07  1866.20  1888.84  1910.21
                             1913.07  1949.19  1974.40  1989.99  1999.03
                             2011.14  2020.22  2037.36  2056.96  2062.53
                             2072.96  2073.12  2088.81  2128.04  2164.75
                             2171.08  2177.19  2181.81  2190.59  2196.00
                             2197.43  2203.11  2204.61  2215.58  2221.84
                             2231.05  2262.37  2382.72  2483.48  4346.32
                             4352.84  4375.02  4379.40  4385.44  4395.19
                             4397.65  4425.91  4430.47  4434.52  4436.56
                             4449.51  4452.00  4473.25  4475.16  4484.23
                             4500.60  4512.20  4540.42  4573.52  4660.10
                             4696.95  5165.89

 Zero-point correction=                           0.361934 (Hartree/Particle)
 Thermal correction to Energy=                    0.380998
 Thermal correction to Enthalpy=                  0.381942
 Thermal correction to Gibbs Free Energy=         0.313742
 Sum of electronic and zero-point Energies=           -823.632436
 Sum of electronic and thermal Energies=              -823.613372
 Sum of electronic and thermal Enthalpies=            -823.612428
 Sum of electronic and thermal Free Energies=         -823.680628

                     E (Thermal)             CV                S
                      KCal/Mol        Cal/Mol-Kelvin    Cal/Mol-Kelvin
 Total                  239.080             72.060            143.540
 Electronic               0.000              0.000              0.000
 Translational            0.889              2.981             42.487
 Rotational               0.889              2.981             33.548
 Vibrational            237.302             66.099             67.506
 Vibration     1          0.593              1.985              6.502
 Vibration     2          0.594              1.982              5.384
 Vibration     3          0.594              1.981              5.248
 Vibration     4          0.597              1.973              4.437
 Vibration     5          0.601              1.959              3.735
 Vibration     6          0.605              1.947              3.390
 Vibration     7          0.609              1.934              3.118
 Vibration     8          0.615              1.912              2.785
 Vibration     9          0.621              1.895              2.585
 Vibration    10          0.625              1.880              2.438
 Vibration    11          0.635              1.847              2.183
 Vibration    12          0.644              1.820              2.014
 Vibration    13          0.650              1.802              1.915
 Vibration    14          0.657              1.779              1.803
 Vibration    15          0.666              1.752              1.686
 Vibration    16          0.670              1.742              1.646
 Vibration    17          0.679              1.713              1.540
 Vibration    18          0.703              1.642              1.329
 Vibration    19          0.733              1.560              1.132
 Vibration    20          0.740              1.539              1.089
 Vibration    21          0.752              1.507              1.028
 Vibration    22          0.770              1.459              0.944
 Vibration    23          0.798              1.388              0.834
 Vibration    24          0.814              1.348              0.778
 Vibration    25          0.831              1.308              0.727
 Vibration    26          0.851              1.261              0.671
 Vibration    27          0.886              1.181              0.584
 Vibration    28          0.918              1.112              0.519
 Vibration    29          0.953              1.042              0.458

                           ! Non-Optimized Parameters !
 Normal termination of Gaussian 16 at Fri Dec 11 20:24:01 2020.

 ----------------------------------------------------------------------
 # B3LYP/6-311++G(d,p) empiricaldispersion=gd3bj scf=xqc pop=npa geom=c
 heck
 ----------------------------------------------------------------------

 ---------------------------------------
 CID_106802614_JID_8589_Energie_neutraal
 ---------------------------------------
 Structure from the checkpoint file:  "JID_8589.chk"
 Charge =  0 Multiplicity = 1

 SCF Done:  E(RB3LYP) =  -824.231422273     A.U. after   15 cycles
 Normal termination of Gaussian 16 at Fri Dec 11 20:31:28 2020.

 ----------------------------------------------------------------------
 # B3LYP/6-311++G(d,p) empiricaldispersion=gd3bj scf=xqc pop=npa geom=c
 heck
 ----------------------------------------------------------------------

 -------------------------------------
 CID_106802614_JID_8589_Energie_kation
 -------------------------------------
 Structure from the checkpoint file:  "JID_8589.chk"
 Charge =  1 Multiplicity = 2

 SCF Done:  E(UB3LYP) =  -823.940260090     A.U. after   30 cycles
 Normal termination of Gaussian 16 at Fri Dec 11 20:52:07 2020.
 Gaussian 16:  ES64L-G16RevA.03 25-Dec-2016

 ----------------------------------------------------------------------
 # B3LYP/6-311++G(d,p) empiricaldispersion=gd3bj scf=xqc pop=npa geom=c
 heck
 ----------------------------------------------------------------------

 ------------------------------------
 CID_106802614_JID_8589_Energie_anion
 ------------------------------------
 Structure from the checkpoint file:  "JID_8589.chk"
 Charge = -1 Multiplicity = 2

                         Standard orientation:
 ---------------------------------------------------------------------
 Center     Atomic      Atomic             Coordinates (Angstroms)
 Number     Number       Type             X           Y           Z
 ---------------------------------------------------------------------
      1          6           0        5.464325   -0.517729   -0.588711
      2          6           0        4.341075    0.519487   -0.495323
      3          6           0        3.061978    0.117396   -1.243921
      4          6           0        2.378228   -1.164073   -0.706537
      5          6           0        2.309641   -1.397914    0.811242
      6          6           0        1.574580   -0.350043    1.648664
      7          7           0        0.201078   -0.108235    1.193122
      8          6           0       -0.179597    1.180927    0.770269
      9          8           0        0.647744    2.106289    0.776011
     10          6           0       -1.541600    1.295662    0.349363
     11          6           0       -2.403804    0.214870    0.365057
     12          6           0       -1.841336   -1.034285    0.822405
     13          7           0       -0.606915   -1.170211    1.213820
     14          7           0       -3.721903    0.299011   -0.009325
     15          6           0       -4.194889    1.552942   -0.576164
     16          6           0       -4.516680   -0.900772   -0.275494
     17          6           0       -4.183950   -1.577345   -1.608324
     18          8           0        2.164591    1.207887   -1.382144
     19          1           0        5.184792   -1.469906   -0.123784
     20          1           0        6.373501   -0.161994   -0.091696
     21          1           0        5.717319   -0.725211   -1.635704
     22          1           0        4.108853    0.724630    0.558691
     23          1           0        4.677296    1.470399   -0.924499
     24          1           0        3.352396   -0.108943   -2.279122
     25          1           0        1.365951   -1.179348   -1.127349
     26          1           0        2.897698   -2.032922   -1.132192
     27          1           0        1.823754   -2.365703    0.980659
     28          1           0        3.320576   -1.483128    1.228673
     29          1           0        1.525878   -0.680030    2.692013
     30          1           0        2.064230    0.621795    1.623809
     31          1           0       -1.834804    2.277748    0.006682
     32          1           0       -2.426887   -1.943569    0.867590
     33          1           0       -3.668496    1.816763   -1.504680
     34          1           0       -5.261065    1.464743   -0.791412
     35          1           0       -4.056798    2.371232    0.138762
     36          1           0       -4.396619   -1.602815    0.554538
     37          1           0       -5.567542   -0.596997   -0.258187
     38          1           0       -3.137065   -1.896797   -1.634908
     39          1           0       -4.816099   -2.459208   -1.760367
     40          1           0       -4.348507   -0.890751   -2.445547
     41          1           0        1.889308    1.557913   -0.511373
 ---------------------------------------------------------------------

 SCF Done:  E(UB3LYP) =  -824.231053313     A.U. after   33 cycles
 SCF Done:  E(UB3LYP) =  -824.231053313     a.u. after    1 cycles

 The electronic state is 2-A.
 Alpha  occ. eigenvalues --  -18.97693 -18.93674 -14.22610 -14.21675 -14.17674
 Alpha  occ. eigenvalues --  -10.12022 -10.10968 -10.10006 -10.09955 -10.07644
 Alpha  occ. eigenvalues --  -10.07238 -10.07056 -10.06320 -10.05796 -10.04897
 Alpha  occ. eigenvalues --  -10.04826 -10.04689 -10.01060  -0.90642  -0.88320
 Alpha  occ. eigenvalues --   -0.85742  -0.83903  -0.71112  -0.68188  -0.67254
 Alpha  occ. eigenvalues --   -0.64600  -0.64151  -0.60130  -0.58233  -0.54831
 Alpha  occ. eigenvalues --   -0.53404  -0.51462  -0.49249  -0.46296  -0.44529
 Alpha  occ. eigenvalues --   -0.40412  -0.40234  -0.38315  -0.36756  -0.36449
 Alpha  occ. eigenvalues --   -0.36066  -0.34696  -0.33777  -0.33141  -0.31602
 Alpha  occ. eigenvalues --   -0.31288  -0.30946  -0.30403  -0.29776  -0.29140
 Alpha  occ. eigenvalues --   -0.28923  -0.28590  -0.27555  -0.26308  -0.25971
 Alpha  occ. eigenvalues --   -0.25295  -0.24831  -0.24340  -0.23645  -0.22570
 Alpha  occ. eigenvalues --   -0.22121  -0.21402  -0.19503  -0.18249  -0.15402
 Alpha  occ. eigenvalues --   -0.14068  -0.10825  -0.10015  -0.08749   0.05025
 Alpha virt. eigenvalues --    0.06363   0.06735   0.08111   0.08666   0.09080
 Alpha virt. eigenvalues --    0.09190   0.09827   0.10406   0.11251   0.11379
 Alpha virt. eigenvalues --    0.11818   0.12187   0.12642   0.13042   0.13158

  Beta  occ. eigenvalues --  -18.97690 -18.93685 -14.22351 -14.21599 -14.16954
  Beta  occ. eigenvalues --  -10.12057 -10.10964 -10.10005 -10.09959 -10.07448
  Beta  occ. eigenvalues --  -10.07233 -10.07068 -10.06303 -10.05793 -10.04872
  Beta  occ. eigenvalues --  -10.04804 -10.04687 -10.00831  -0.90268  -0.88272
  Beta  occ. eigenvalues --   -0.85344  -0.83695  -0.70683  -0.68105  -0.67108
  Beta  occ. eigenvalues --   -0.64494  -0.63710  -0.60014  -0.58155  -0.54750
  Beta  occ. eigenvalues --   -0.53320  -0.51093  -0.49130  -0.46118  -0.44357
  Beta  occ. eigenvalues --   -0.40219  -0.40096  -0.38259  -0.36675  -0.36234
  Beta  occ. eigenvalues --   -0.35930  -0.34427  -0.33670  -0.33020  -0.31423
  Beta  occ. eigenvalues --   -0.31163  -0.30894  -0.30248  -0.29735  -0.28982
  Beta  occ. eigenvalues --   -0.28868  -0.28453  -0.27337  -0.26169  -0.25802
  Beta  occ. eigenvalues --   -0.25176  -0.24720  -0.24282  -0.23521  -0.22421
  Beta  occ. eigenvalues --   -0.21430  -0.21160  -0.18601  -0.17735  -0.14871
  Beta  occ. eigenvalues --   -0.14053  -0.10463  -0.08837  -0.07495
  Beta virt. eigenvalues --    0.06286   0.06928   0.08010   0.08634   0.09099
  Beta virt. eigenvalues --    0.09208   0.09790   0.10329   0.11167   0.11236
  Beta virt. eigenvalues --    0.11760   0.11945   0.12172   0.12666   0.12993

 Mulliken charges and spin densities:
               1          2
     1  C    0.046218  -0.689673
     2  C   -0.467603   0.465571
     3  C   -0.131300  -0.247545
     4  C   -0.253243   0.022753
     5  C   -0.086692  -0.200150
     6  C   -0.118729  -0.165586
     7  N    0.343626   0.048177
     8  C    0.140758  -0.004721
     9  O   -0.364672  -0.005148
    10  C   -0.257028   0.222186
    11  C   -0.289192   0.149774
    12  C   -0.494927  -0.037648
    13  N   -0.296805   0.381244
    14  N    0.119886   0.026594
    15  C   -0.384306  -0.020340
    16  C   -0.169418  -0.053741
    17  C   -0.445139  -0.017579
    18  O   -0.199566   0.001655
    19  H   -0.031098   0.168236
    20  H   -0.118585   0.251603
    21  H    0.035940   0.083084
    22  H    0.171073  -0.037325
    23  H    0.113981   0.041750
    24  H    0.154905   0.009560
    25  H    0.214286  -0.018454
    26  H    0.074126   0.059816
    27  H    0.168143   0.003440
    28  H   -0.065533   0.178923
    29  H   -0.075234   0.267964
    30  H    0.149926  -0.001613
    31  H    0.127190  -0.015385
    32  H    0.169148  -0.010462
    33  H    0.140703   0.014830
    34  H    0.102660   0.003270
    35  H    0.144700   0.009181
    36  H    0.034836   0.087036
    37  H    0.135815  -0.003741
    38  H    0.170687   0.009647
    39  H    0.094152   0.007068
    40  H    0.127463   0.003851
    41  H    0.268846   0.011897
 Sum of Mulliken charges =  -1.00000   1.00000

 Dipole moment (field-independent basis, Debye):
    X=             -4.8418    Y=             -1.7682    Z=             -2.4121  Tot=              5.6910
 Quadrupole moment (field-independent basis, Debye-Ang):
   XX=           -154.7070   YY=           -138.9455   ZZ=           -134.1795
   XY=             -0.4389   XZ=              4.2796   YZ=              4.0931

 Summary of Natural Population Analysis:

                                       Natural Population
                Natural  -----------------------------------------------
    Atom  No    Charge         Core      Valence    Rydberg      Total
 -----------------------------------------------------------------------
      C    1   -0.28842      0.99967     2.28380    0.00495     3.28842
      C    2   -0.20535      0.99962     2.19615    0.00958     3.20535
      C    3    0.06443      0.99956     1.92003    0.01598     2.93557
      C    4   -0.20488      0.99960     2.19638    0.00890     3.20488
      C    5   -0.19835      0.99962     2.18930    0.00942     3.19835
      C    6   -0.09096      0.99961     2.07842    0.01293     3.09096
      N    7   -0.10588      0.99964     2.59252    0.01372     3.60588
      C    8    0.30480      0.99958     1.67390    0.02172     2.69520
      O    9   -0.37773      0.99987     3.37215    0.00571     4.37773
      C   10   -0.14487      0.99951     2.13681    0.00854     3.14487
      C   11    0.12466      0.99950     1.86402    0.01182     2.87534
      C   12   -0.02496      0.99962     2.01258    0.01276     3.02496
      N   13   -0.02370      0.99969     2.51007    0.01395     3.52370
      N   14   -0.23937      0.99965     2.73075    0.00898     3.73937
      C   15   -0.17614      0.99966     2.16979    0.00669     3.17614
      C   16   -0.07898      0.99964     2.06812    0.01122     3.07898
      C   17   -0.29447      0.99966     2.29119    0.00362     3.29447
      O   18   -0.38557      0.99989     3.37900    0.00668     4.38557
      H   19    0.09792      0.00000     0.40105    0.00103     0.40208
      H   20    0.09678      0.00000     0.40244    0.00079     0.40322
      H   21    0.09341      0.00000     0.40564    0.00095     0.40659
      H   22    0.09582      0.00000     0.40294    0.00124     0.40418
      H   23    0.09872      0.00000     0.40011    0.00117     0.40128
      H   24    0.07549      0.00000     0.42258    0.00192     0.42451
      H   25    0.10938      0.00000     0.38940    0.00122     0.39062
      H   26    0.09377      0.00000     0.40532    0.00091     0.40623
      H   27    0.10522      0.00000     0.39335    0.00142     0.39478
      H   28    0.09302      0.00000     0.40581    0.00117     0.40698
      H   29    0.09720      0.00000     0.40131    0.00148     0.40280
      H   30    0.10674      0.00000     0.39144    0.00183     0.39326
      H   31    0.09844      0.00000     0.39994    0.00162     0.40156
      H   32    0.08429      0.00000     0.41466    0.00106     0.41571
      H   33    0.08964      0.00000     0.40854    0.00183     0.41036
      H   34    0.08969      0.00000     0.40955    0.00075     0.41031
      H   35    0.09635      0.00000     0.40223    0.00142     0.40365
      H   36    0.09610      0.00000     0.40222    0.00168     0.40390
      H   37    0.08754      0.00000     0.41158    0.00088     0.41246
      H   38    0.10783      0.00000     0.39123    0.00094     0.39217
      H   39    0.09229      0.00000     0.40682    0.00089     0.40771
      H   40    0.09499      0.00000     0.40417    0.00083     0.40501
      H   41    0.24506      0.00000     0.25171    0.00323     0.25494
 =======================================================================
   * Total *   -0.00000     17.99358    50.78899    0.21742    69.00000

 Normal termination of Gaussian 16 at Fri Dec 11 21:14:48 2020.
