 Gaussian 16, Revision A.03,

 -----------------------------------------------------------
 # opt freq B3LYP/6-31G(d) empiricaldispersion=gd3bj scf=xqc
 -----------------------------------------------------------

 ------------------------------
 CID_149093193_JID_133_neutraal
 ------------------------------
 Symbolic Z-matrix:
 Charge =  0 Multiplicity = 1

 SCF Done:  E(RB3LYP) =  -422.753870238     A.U. after   14 cycles
 SCF Done:  E(RB3LYP) =  -422.758790413     A.U. after   12 cycles
 SCF Done:  E(RB3LYP) =  -422.759861270     A.U. after   12 cycles
 SCF Done:  E(RB3LYP) =  -422.761943906     A.U. after   15 cycles
 SCF Done:  E(RB3LYP) =  -422.763168494     A.U. after   13 cycles
 SCF Done:  E(RB3LYP) =  -422.764601670     A.U. after   14 cycles
 SCF Done:  E(RB3LYP) =  -422.764821378     A.U. after   11 cycles
 SCF Done:  E(RB3LYP) =  -422.764982704     A.U. after   12 cycles
 SCF Done:  E(RB3LYP) =  -422.765036452     A.U. after   11 cycles
 SCF Done:  E(RB3LYP) =  -422.765073426     A.U. after   10 cycles
 SCF Done:  E(RB3LYP) =  -422.765119553     A.U. after   10 cycles
 SCF Done:  E(RB3LYP) =  -422.765124196     A.U. after   10 cycles
 SCF Done:  E(RB3LYP) =  -422.765125230     A.U. after    9 cycles
 SCF Done:  E(RB3LYP) =  -422.765125395     A.U. after    8 cycles
 SCF Done:  E(RB3LYP) =  -422.765125579     A.U. after    8 cycles
 SCF Done:  E(RB3LYP) =  -422.765125626     A.U. after    7 cycles
 Optimization completed.
    -- Stationary point found.

 1\1\GINC-NODE225\FOpt\RB3LYP\6-31G(d)\C8H14N2\VSC10255\08-Dec-2020\0\\
 # opt freq B3LYP/6-31G(d) empiricaldispersion=gd3bj scf=xqc\\CID_14909
 3193_JID_133_neutraal\\0,1\C,1.2878445329,0.6077448959,-0.3485919718\C
 ,-0.1620391521,0.819978965,-0.031225021\C,-1.1691868351,0.3586217746,-
 0.8065689328\N,-0.935082014,-0.3468198974,-1.9742587688\C,-1.908537211
 7,-0.7602473879,-2.7160548459\C,-3.3805907336,-0.5274835244,-2.4198971
 385\C,-1.5860306386,-1.513834456,-3.9425224285\C,-0.3443721031,-1.8111
 113093,-4.3470366812\C,-0.4836059423,1.5805484976,1.2300526584\N,0.060

 Normal termination of Gaussian 16 at Tue Dec  8 10:20:25 2020.

 --------------------------------------------------------------------
 #N Geom=AllCheck Guess=TCheck SCRF=Check GenChk RB3LYP/6-31G(d) Freq
 --------------------------------------------------------------------

 Structure from the checkpoint file:  "JID_133.chk"
 ------------------------------
 CID_149093193_JID_133_neutraal
 ------------------------------
 Charge =  0 Multiplicity = 1

 SCF Done:  E(RB3LYP) =  -422.765125626     A.U. after    1 cycles

  Exact polarizability: 181.692  -0.354 104.696  -7.094  -0.723  59.170
 Approx polarizability: 259.880  -8.745 155.173 -14.074  -1.201  87.000

                      1                      2                      3
                      A                      A                      A
 Frequencies --     32.8604                55.5971                87.9023
 Red. masses --      2.5792                 3.8145                 2.5624
 Frc consts  --      0.0016                 0.0069                 0.0117
 IR Inten    --      0.2399                 0.2095                 4.0630

                      4                      5                      6
                      A                      A                      A
 Frequencies --    106.3735               124.2278               129.3440
 Red. masses --      2.8548                 1.0622                 1.8427
 Frc consts  --      0.0190                 0.0097                 0.0182
 IR Inten    --      0.3486                 0.0889                 2.1782

                      7                      8                      9
                      A                      A                      A
 Frequencies --    164.8175               236.9571               247.4904
 Red. masses --      1.3162                 1.7992                 3.0497
 Frc consts  --      0.0211                 0.0595                 0.1101
 IR Inten    --      1.1845                13.3229                 0.1133

                     10                     11                     12
                      A                      A                      A
 Frequencies --    281.7633               295.3329               384.6163
 Red. masses --      2.5080                 1.6834                 2.2717
 Frc consts  --      0.1173                 0.0865                 0.1980
 IR Inten    --     12.5415                43.2753                 2.3194

                     13                     14                     15
                      A                      A                      A
 Frequencies --    411.4623               473.4051               492.0266
 Red. masses --      2.4765                 3.0830                 2.9331
 Frc consts  --      0.2470                 0.4071                 0.4184
 IR Inten    --      8.8879                 6.8262                 2.6220

                     16                     17                     18
                      A                      A                      A
 Frequencies --    507.7112               601.9538               609.1907
 Red. masses --      2.3404                 2.9663                 3.4027
 Frc consts  --      0.3554                 0.6333                 0.7440
 IR Inten    --      1.4892                 8.9688                 5.1655

                     19                     20                     21
                      A                      A                      A
 Frequencies --    695.9698               806.6417               852.5393
 Red. masses --      1.7722                 2.7559                 2.1964
 Frc consts  --      0.5058                 1.0565                 0.9406
 IR Inten    --      5.6846                 3.7366                31.1329

                     22                     23                     24
                      A                      A                      A
 Frequencies --    869.8307               918.7863               958.6993
 Red. masses --      1.5364                 1.4699                 1.4020
 Frc consts  --      0.6849                 0.7311                 0.7592
 IR Inten    --     87.8747                12.5455                22.5045

                     25                     26                     27
                      A                      A                      A
 Frequencies --    963.3368              1013.1663              1029.2969
 Red. masses --      1.4977                 1.9072                 1.0791
 Frc consts  --      0.8189                 1.1535                 0.6736
 IR Inten    --     40.7942                 1.1469                16.4361

                     28                     29                     30
                      A                      A                      A
 Frequencies --   1039.4989              1055.5505              1067.6061
 Red. masses --      2.2893                 1.6383                 1.4038
 Frc consts  --      1.4575                 1.0754                 0.9427
 IR Inten    --      2.4554                 3.4541                 1.6878

                     31                     32                     33
                      A                      A                      A
 Frequencies --   1077.3268              1088.9757              1185.9838
 Red. masses --      1.9074                 1.5132                 1.3841
 Frc consts  --      1.3043                 1.0572                 1.1470
 IR Inten    --     22.8485                 5.7163                 4.9747

                     34                     35                     36
                      A                      A                      A
 Frequencies --   1217.2424              1246.2583              1270.1839
 Red. masses --      3.3399                 2.6587                 2.5176
 Frc consts  --      2.9156                 2.4330                 2.3932
 IR Inten    --     37.2339                 8.0808                10.5918

                     37                     38                     39
                      A                      A                      A
 Frequencies --   1324.4537              1350.7816              1405.9963
 Red. masses --      1.2113                 1.3257                 1.1997
 Frc consts  --      1.2520                 1.4252                 1.3973
 IR Inten    --      4.6223                 0.2076                16.5526

                     40                     41                     42
                      A                      A                      A
 Frequencies --   1428.1265              1435.7257              1451.7953
 Red. masses --      1.2800                 1.4646                 1.4214
 Frc consts  --      1.5381                 1.7787                 1.7652
 IR Inten    --     22.7111                43.2909                 2.5229

                     43                     44                     45
                      A                      A                      A
 Frequencies --   1456.6259              1509.2092              1511.9760
 Red. masses --      1.2997                 1.0639                 1.0543
 Frc consts  --      1.6247                 1.4277                 1.4201
 IR Inten    --     27.0301                 8.9273                 8.3117

                     46                     47                     48
                      A                      A                      A
 Frequencies --   1517.2650              1521.6869              1532.3512
 Red. masses --      1.0456                 1.0881                 1.0898
 Frc consts  --      1.4183                 1.4845                 1.5077
 IR Inten    --      6.5944                15.3736                 0.4662

                     49                     50                     51
                      A                      A                      A
 Frequencies --   1626.5921              1689.9897              1711.4323
 Red. masses --      6.7240                 1.1145                 5.0887
 Frc consts  --     10.4818                 1.8754                 8.7817
 IR Inten    --     11.7611                25.9812                11.7923

                     52                     53                     54
                      A                      A                      A
 Frequencies --   1712.3999              2965.7274              3032.3021
 Red. masses --      5.0812                 1.0699                 1.0594
 Frc consts  --      8.7787                 5.5445                 5.7391
 IR Inten    --     16.5412                70.6683                 4.6774

                     55                     56                     57
                      A                      A                      A
 Frequencies --   3038.1347              3049.0125              3098.8440
 Red. masses --      1.0805                 1.0389                 1.0868
 Frc consts  --      5.8758                 5.6901                 6.1491
 IR Inten    --     78.2873                10.4654                12.7611

                     58                     59                     60
                      A                      A                      A
 Frequencies --   3103.3594              3104.6309              3140.8657
 Red. masses --      1.0990                 1.0863                 1.0999
 Frc consts  --      6.2363                 6.1693                 6.3930
 IR Inten    --     17.1814                49.6736                12.8643

                     61                     62                     63
                      A                      A                      A
 Frequencies --   3166.6107              3171.0846              3180.5247
 Red. masses --      1.0757                 1.0993                 1.0724
 Frc consts  --      6.3550                 6.5129                 6.3917
 IR Inten    --     28.9122                 5.1035                19.1475

                     64                     65                     66
                      A                      A                      A
 Frequencies --   3266.0138              3461.8020              3550.8616
 Red. masses --      1.1170                 1.0495                 1.0929
 Frc consts  --      7.0203                 7.4101                 8.1189
 IR Inten    --      8.2842                 6.6211                 1.8318

 - Thermochemistry -
 -------------------
 Temperature   298.150 Kelvin.  Pressure   1.00000 Atm.
 Atom     1 has atomic number  6 and mass  12.00000

 Molecular mass:   138.11570 amu.
 Principal axes and moments of inertia in atomic units:
                           1         2         3
     Eigenvalues --   686.484243040.059883578.63889
           X            0.99999  -0.00305  -0.00140
           Y            0.00305   0.99999   0.00202
           Z            0.00139  -0.00202   1.00000
 This molecule is an asymmetric top.
 Rotational symmetry number  1.
 Warning -- assumption of classical behavior for rotation
           may cause significant error
 Rotational temperatures (Kelvin)      0.12617     0.02849     0.02420
 Rotational constants (GHZ):           2.62896     0.59365     0.50431
 Zero-point vibrational energy     550976.7 (Joules/Mol)
                                  131.68659 (Kcal/Mol)
 Warning -- explicit consideration of  18 degrees of freedom as
           vibrations may cause significant error
 Vibrational temperatures:     47.28    79.99   126.47   153.05   178.74
          (Kelvin)            186.10   237.14   340.93   356.08   405.39
                              424.92   553.38   592.00   681.12   707.92
                              730.48   866.08   876.49  1001.35  1160.58
                             1226.61  1251.49  1321.93  1379.35  1386.03
                             1457.72  1480.93  1495.61  1518.70  1536.05
                             1550.03  1566.79  1706.37  1751.34  1793.09
                             1827.51  1905.59  1943.47  2022.92  2054.76
                             2065.69  2088.81  2095.76  2171.42  2175.40
                             2183.01  2189.37  2204.71  2340.30  2431.52
                             2462.37  2463.76  4267.02  4362.81  4371.20
                             4386.85  4458.55  4465.04  4466.87  4519.01
                             4556.05  4562.48  4576.07  4699.07  4980.76
                             5108.90

 Zero-point correction=                           0.209856 (Hartree/Particle)
 Thermal correction to Energy=                    0.222151
 Thermal correction to Enthalpy=                  0.223095
 Thermal correction to Gibbs Free Energy=         0.170676
 Sum of electronic and zero-point Energies=           -422.555270
 Sum of electronic and thermal Energies=              -422.542975
 Sum of electronic and thermal Enthalpies=            -422.542030
 Sum of electronic and thermal Free Energies=         -422.594450

                     E (Thermal)             CV                S
                      KCal/Mol        Cal/Mol-Kelvin    Cal/Mol-Kelvin
 Total                  139.402             43.456            110.326
 Electronic               0.000              0.000              0.000
 Translational            0.889              2.981             40.681
 Rotational               0.889              2.981             30.391
 Vibrational            137.624             37.495             39.254
 Vibration     1          0.594              1.983              5.649
 Vibration     2          0.596              1.975              4.608
 Vibration     3          0.601              1.958              3.706
 Vibration     4          0.605              1.944              3.334
 Vibration     5          0.610              1.929              3.034
 Vibration     6          0.612              1.924              2.956
 Vibration     7          0.623              1.886              2.494
 Vibration     8          0.656              1.784              1.826
 Vibration     9          0.661              1.767              1.748
 Vibration    10          0.681              1.707              1.523
 Vibration    11          0.690              1.682              1.443
 Vibration    12          0.754              1.503              1.021
 Vibration    13          0.775              1.445              0.921
 Vibration    14          0.830              1.309              0.728
 Vibration    15          0.848              1.268              0.678
 Vibration    16          0.863              1.233              0.639
 Vibration    17          0.960              1.028              0.446
 Vibration    18          0.968              1.012              0.434

                           ! Non-Optimized Parameters !

 1\1\GINC-NODE225\Freq\RB3LYP\6-31G(d)\C8H14N2\VSC10255\08-Dec-2020\0\\
 #N Geom=AllCheck Guess=TCheck SCRF=Check GenChk RB3LYP/6-31G(d) Freq\\
 CID_149093193_JID_133_neutraal\\0,1\C,1.2878445329,0.6077448959,-0.348
 5919718\C,-0.1620391521,0.819978965,-0.031225021\C,-1.1691868351,0.358
 6217746,-0.8065689328\N,-0.935082014,-0.3468198974,-1.9742587688\C,-1.
 9085372117,-0.7602473879,-2.7160548459\C,-3.3805907336,-0.5274835244,-
 2.4198971385\C,-1.5860306386,-1.513834456,-3.9425224285\C,-0.344372103
 1,-1.8111113093,-4.3470366812\C,-0.4836059423,1.5805484976,1.230052658

 Normal termination of Gaussian 16 at Tue Dec  8 10:23:57 2020.

 ----------------------------------------------------------------------
 # B3LYP/6-311++G(d,p) empiricaldispersion=gd3bj scf=xqc pop=npa geom=c
 heck
 ----------------------------------------------------------------------

 --------------------------------------
 CID_149093193_JID_133_Energie_neutraal
 --------------------------------------
 Structure from the checkpoint file:  "JID_133.chk"
 Charge =  0 Multiplicity = 1

 SCF Done:  E(RB3LYP) =  -422.891871958     A.U. after   14 cycles
 Normal termination of Gaussian 16 at Tue Dec  8 10:25:29 2020.

 ----------------------------------------------------------------------
 # B3LYP/6-311++G(d,p) empiricaldispersion=gd3bj scf=xqc pop=npa geom=c
 heck
 ----------------------------------------------------------------------

 ------------------------------------
 CID_149093193_JID_133_Energie_kation
 ------------------------------------
 Structure from the checkpoint file:  "JID_133.chk"
 Charge =  1 Multiplicity = 2

 SCF Done:  E(UB3LYP) =  -422.609100322     A.U. after   23 cycles
 Normal termination of Gaussian 16 at Tue Dec  8 10:28:54 2020.
 Gaussian 16:  ES64L-G16RevA.03 25-Dec-2016

 -----------------------------------
 CID_149093193_JID_133_Energie_anion
 -----------------------------------
 Structure from the checkpoint file:  "JID_133.chk"
 Charge = -1 Multiplicity = 2

                         Standard orientation:
 ---------------------------------------------------------------------
 Center     Atomic      Atomic             Coordinates (Angstroms)
 Number     Number       Type             X           Y           Z
 ---------------------------------------------------------------------
      1          6           0        1.638939   -1.733773   -0.247703
      2          6           0        1.568745   -0.236287   -0.270819
      3          6           0        0.411328    0.456348   -0.175969
      4          7           0       -0.815621   -0.173460   -0.058108
      5          6           0       -1.914346    0.502759    0.007698
      6          6           0       -2.000908    2.018937   -0.042723
      7          6           0       -3.185496   -0.233749    0.141337
      8          6           0       -3.287352   -1.567563    0.206815
      9          6           0        2.873024    0.509370   -0.395503
     10          7           0        3.759593    0.192293    0.736711
     11          1           0        0.653029   -2.168213   -0.078330
     12          1           0        2.335620   -2.063909    0.530416
     13          1           0        2.034077   -2.112079   -1.201477
     14          1           0        0.460271    1.548280   -0.195624
     15          1           0       -3.037704    2.359044    0.014227
     16          1           0       -1.450438    2.475330    0.788838
     17          1           0       -1.566999    2.410256   -0.970497
     18          1           0       -4.086527    0.375253    0.187979
     19          1           0       -4.251332   -2.057239    0.304977
     20          1           0       -2.400375   -2.191601    0.162228
     21          1           0        3.391481    0.177882   -1.306833
     22          1           0        2.668490    1.587207   -0.519187
     23          1           0        4.659882    0.650331    0.604896
     24          1           0        3.359119    0.581364    1.589379
 ---------------------------------------------------------------------

 SCF Done:  E(UB3LYP) =  -422.901016678     A.U. after   24 cycles

 The electronic state is 2-A.
 Alpha  occ. eigenvalues --  -14.17232 -14.12009 -10.06373 -10.03580 -10.03155
 Alpha  occ. eigenvalues --  -10.03115 -10.01402 -10.01064 -10.00826  -9.99415
 Alpha  occ. eigenvalues --   -0.76322  -0.75571  -0.64858  -0.60921  -0.58053
 Alpha  occ. eigenvalues --   -0.54116  -0.51772  -0.45348  -0.39701  -0.36327
 Alpha  occ. eigenvalues --   -0.36052  -0.32935  -0.31779  -0.30995  -0.28965
 Alpha  occ. eigenvalues --   -0.28669  -0.27443  -0.26155  -0.24517  -0.23046
 Alpha  occ. eigenvalues --   -0.22241  -0.21109  -0.19739  -0.19273  -0.13456
 Alpha  occ. eigenvalues --   -0.12488  -0.08596  -0.06666   0.04429
 Alpha virt. eigenvalues --    0.07615   0.09161   0.10292   0.10326   0.11160
 Alpha virt. eigenvalues --    0.11567   0.12842   0.13355   0.13699   0.14518
 Alpha virt. eigenvalues --    0.14895   0.15146   0.16518   0.17252   0.17998

  Beta  occ. eigenvalues --  -14.17178 -14.11825 -10.06389 -10.03224 -10.03185
  Beta  occ. eigenvalues --  -10.03146 -10.01419 -10.00862 -10.00781  -9.99006
  Beta  occ. eigenvalues --   -0.76080  -0.75193  -0.64444  -0.60446  -0.57778
  Beta  occ. eigenvalues --   -0.54063  -0.51616  -0.44586  -0.39388  -0.36136
  Beta  occ. eigenvalues --   -0.35916  -0.32846  -0.31415  -0.30783  -0.28609
  Beta  occ. eigenvalues --   -0.28319  -0.27342  -0.25980  -0.24436  -0.22846
  Beta  occ. eigenvalues --   -0.22132  -0.20956  -0.19055  -0.18591  -0.12467
  Beta  occ. eigenvalues --   -0.12039  -0.08358  -0.04868
  Beta virt. eigenvalues --    0.07660   0.09137   0.10106   0.10263   0.10693
  Beta virt. eigenvalues --    0.11144   0.11544   0.12903   0.13362   0.13696
  Beta virt. eigenvalues --    0.14471   0.14798   0.15109   0.17158   0.17332

 Mulliken charges and spin densities:
               1          2
     1  C   -0.673714  -0.024563
     2  C    0.462564   0.156113
     3  C   -0.165609   0.001895
     4  N    0.022283   0.103654
     5  C    0.382706   0.255645
     6  C   -0.761771  -0.032443
     7  C    0.068545  -0.089041
     8  C   -0.754993   0.423516
     9  C   -0.461048  -0.306608
    10  N   -0.294619  -0.028447
    11  H    0.161991   0.007185
    12  H    0.152020  -0.010750
    13  H    0.048330   0.043793
    14  H    0.070523  -0.036332
    15  H    0.118578   0.002404
    16  H    0.127763   0.014197
    17  H    0.094194   0.048833
    18  H    0.084421  -0.002667
    19  H    0.086165  -0.016734
    20  H    0.099911  -0.024747
    21  H   -0.027709   0.145689
    22  H    0.031940   0.095325
    23  H   -0.029780   0.234070
    24  H    0.157307   0.040015
 Sum of Mulliken charges =  -1.00000   1.00000

 Dipole moment (field-independent basis, Debye):
    X=              0.7544    Y=              2.8671    Z=              0.0546  Tot=              2.9652
 Quadrupole moment (field-independent basis, Debye-Ang):
   XX=           -111.8172   YY=            -77.5148   ZZ=            -74.3858
   XY=             -3.4554   XZ=             -0.1235   YZ=              1.1562

 Summary of Natural Population Analysis:

                                       Natural Population
                Natural  -----------------------------------------------
    Atom  No    Charge         Core      Valence    Rydberg      Total
 -----------------------------------------------------------------------
      C    1   -0.30492      0.99963     2.29981    0.00549     3.30492
      C    2    0.02787      0.99952     1.96123    0.01138     2.97213
      C    3   -0.02379      0.99943     2.01305    0.01132     3.02379
      N    4   -0.23724      0.99962     2.72521    0.01241     3.73724
      C    5    0.18371      0.99959     1.80354    0.01316     2.81629
      C    6   -0.31960      0.99965     2.31554    0.00442     3.31960
      C    7   -0.13915      0.99955     2.12954    0.01006     3.13915
      C    8   -0.08703      0.99959     2.07904    0.00840     3.08703
      C    9   -0.10137      0.99959     2.08836    0.01342     3.10137
      N   10   -0.42323      0.99977     2.91167    0.01178     3.92323
      H   11    0.11348      0.00000     0.38540    0.00112     0.38652
      H   12    0.10246      0.00000     0.39610    0.00144     0.39754
      H   13    0.09254      0.00000     0.40586    0.00160     0.40746
      H   14    0.06986      0.00000     0.42783    0.00230     0.43014
      H   15    0.09497      0.00000     0.40406    0.00097     0.40503
      H   16    0.10147      0.00000     0.39747    0.00107     0.39853
      H   17    0.10227      0.00000     0.39669    0.00104     0.39773
      H   18    0.07957      0.00000     0.41931    0.00112     0.42043
      H   19    0.07440      0.00000     0.42439    0.00121     0.42560
      H   20    0.09225      0.00000     0.40653    0.00122     0.40775
      H   21    0.08691      0.00000     0.41137    0.00173     0.41309
      H   22    0.07742      0.00000     0.42099    0.00159     0.42258
      H   23    0.16754      0.00000     0.32939    0.00307     0.33246
      H   24    0.16960      0.00000     0.32855    0.00185     0.33040
 =======================================================================
   * Total *    0.00000      9.99594    27.88091    0.12315    38.00000

 Normal termination of Gaussian 16 at Tue Dec  8 10:33:49 2020.
