 Gaussian 16, Revision A.03,

 -----------------------------------------------------------
 # opt freq B3LYP/6-31G(d) empiricaldispersion=gd3bj scf=xqc
 -----------------------------------------------------------

 -------------------------------
 CID_149255830_JID_3470_neutraal
 -------------------------------
 Symbolic Z-matrix:
 Charge =  0 Multiplicity = 1

 SCF Done:  E(RB3LYP) =  -582.910098190     A.U. after   13 cycles
 SCF Done:  E(RB3LYP) =  -582.912732654     A.U. after   11 cycles
 SCF Done:  E(RB3LYP) =  -582.913318853     A.U. after   10 cycles
 SCF Done:  E(RB3LYP) =  -582.914051286     A.U. after   13 cycles
 SCF Done:  E(RB3LYP) =  -582.914410051     A.U. after   10 cycles
 SCF Done:  E(RB3LYP) =  -582.914437551     A.U. after   10 cycles
 SCF Done:  E(RB3LYP) =  -582.914478774     A.U. after    8 cycles
 SCF Done:  E(RB3LYP) =  -582.914491326     A.U. after    7 cycles
 SCF Done:  E(RB3LYP) =  -582.914751327     A.U. after   11 cycles
 SCF Done:  E(RB3LYP) =  -582.914770717     A.U. after    9 cycles
 SCF Done:  E(RB3LYP) =  -582.914844802     A.U. after    9 cycles
 SCF Done:  E(RB3LYP) =  -582.914848937     A.U. after    7 cycles
 SCF Done:  E(RB3LYP) =  -582.914851361     A.U. after    8 cycles
 SCF Done:  E(RB3LYP) =  -582.914851590     A.U. after    7 cycles
 SCF Done:  E(RB3LYP) =  -582.914851693     A.U. after    7 cycles
 SCF Done:  E(RB3LYP) =  -582.914851650     A.U. after    6 cycles
 Optimization completed.
    -- Stationary point found.
 Normal termination of Gaussian 16 at Wed Dec  9 23:31:20 2020.

 --------------------------------------------------------------------
 #N Geom=AllCheck Guess=TCheck SCRF=Check GenChk RB3LYP/6-31G(d) Freq
 --------------------------------------------------------------------

 Structure from the checkpoint file:  "JID_3470.chk"
 -------------------------------
 CID_149255830_JID_3470_neutraal
 -------------------------------
 Charge =  0 Multiplicity = 1

 SCF Done:  E(RB3LYP) =  -582.914851650     A.U. after    1 cycles

  Exact polarizability: 138.915   1.085 110.711  -0.733   0.171 109.122
 Approx polarizability: 161.384   0.589 165.470  -2.320  -1.888 163.248

                      1                      2                      3
                      A                      A                      A
 Frequencies --     27.7227                48.3912                64.8278
 Red. masses --      2.9308                 3.3557                 2.0010
 Frc consts  --      0.0013                 0.0046                 0.0050
 IR Inten    --      0.2040                 0.1532                 2.8292

                      4                      5                      6
                      A                      A                      A
 Frequencies --     84.5250               105.9996               130.1467
 Red. masses --      3.6049                 1.9363                 2.3830
 Frc consts  --      0.0152                 0.0128                 0.0238
 IR Inten    --      1.1122                 0.2748                 0.6309

                      7                      8                      9
                      A                      A                      A
 Frequencies --    184.8142               192.1369               212.7812
 Red. masses --      3.0659                 2.4556                 1.1563
 Frc consts  --      0.0617                 0.0534                 0.0308
 IR Inten    --      2.3705                 1.2993                 0.9953

                     10                     11                     12
                      A                      A                      A
 Frequencies --    232.4403               255.0492               263.9301
 Red. masses --      2.4945                 1.1365                 1.5249
 Frc consts  --      0.0794                 0.0436                 0.0626
 IR Inten    --      0.8919                 0.5951                 5.2941

                     13                     14                     15
                      A                      A                      A
 Frequencies --    310.0688               328.4150               345.7401
 Red. masses --      2.2924                 1.2984                 1.8025
 Frc consts  --      0.1299                 0.0825                 0.1269
 IR Inten    --      0.5245                52.8441                25.2697

                     16                     17                     18
                      A                      A                      A
 Frequencies --    359.9027               366.8471               397.6506
 Red. masses --      2.0463                 2.4059                 2.3102
 Frc consts  --      0.1562                 0.1908                 0.2152
 IR Inten    --     67.8562                 3.2527                 1.9354

                     19                     20                     21
                      A                      A                      A
 Frequencies --    428.0911               440.9449               479.3688
 Red. masses --      2.0237                 2.3425                 3.0716
 Frc consts  --      0.2185                 0.2684                 0.4159
 IR Inten    --      1.1738                 2.9106                 4.1761

                     22                     23                     24
                      A                      A                      A
 Frequencies --    568.3885               659.1309               701.9709
 Red. masses --      3.3504                 3.1784                 5.0621
 Frc consts  --      0.6377                 0.8136                 1.4697
 IR Inten    --      9.5105                 0.7126                 6.1651

                     25                     26                     27
                      A                      A                      A
 Frequencies --    765.3990               777.5099               779.6457
 Red. masses --      2.9626                 1.8867                 1.4768
 Frc consts  --      1.0226                 0.6720                 0.5289
 IR Inten    --      1.1747                 1.0877                 1.5598

                     28                     29                     30
                      A                      A                      A
 Frequencies --    800.1464               854.2069               905.0349
 Red. masses --      1.2543                 1.5988                 2.1820
 Frc consts  --      0.4732                 0.6873                 1.0530
 IR Inten    --      1.6280                 1.3310                 8.8579

                     31                     32                     33
                      A                      A                      A
 Frequencies --    926.0158               948.8259               955.2107
 Red. masses --      2.9606                 2.0314                 2.2347
 Frc consts  --      1.4958                 1.0775                 1.2013
 IR Inten    --     12.1437                10.8843                29.6633

                     34                     35                     36
                      A                      A                      A
 Frequencies --    961.8864               988.4172               991.7244
 Red. masses --      1.9412                 1.7463                 1.9643
 Frc consts  --      1.0582                 1.0052                 1.1382
 IR Inten    --      1.7911                 4.7736                 7.2665

                     37                     38                     39
                      A                      A                      A
 Frequencies --    997.9465              1016.3499              1030.6961
 Red. masses --      1.7639                 1.6408                 1.8710
 Frc consts  --      1.0350                 0.9986                 1.1711
 IR Inten    --     13.0868                 3.4808                 7.8887

                     40                     41                     42
                      A                      A                      A
 Frequencies --   1048.9126              1080.0723              1093.2525
 Red. masses --      1.9284                 1.8016                 2.5281
 Frc consts  --      1.2500                 1.2383                 1.7803
 IR Inten    --     13.5796                 8.2742                 7.5695

                     43                     44                     45
                      A                      A                      A
 Frequencies --   1111.9154              1147.4870              1161.4667
 Red. masses --      4.6375                 1.6232                 1.4976
 Frc consts  --      3.3782                 1.2593                 1.1903
 IR Inten    --     84.4074                 6.3068                 5.3681

                     46                     47                     48
                      A                      A                      A
 Frequencies --   1192.2930              1201.1711              1213.8467
 Red. masses --      1.8673                 2.0405                 1.4843
 Frc consts  --      1.5640                 1.7345                 1.2885
 IR Inten    --     30.7964                28.1256                 9.3784

                     49                     50                     51
                      A                      A                      A
 Frequencies --   1234.2615              1247.0321              1252.4064
 Red. masses --      1.8007                 1.4514                 1.3604
 Frc consts  --      1.6162                 1.3298                 1.2572
 IR Inten    --      8.4790                 5.7654                 3.4157

                     52                     53                     54
                      A                      A                      A
 Frequencies --   1260.0314              1304.8952              1316.7612
 Red. masses --      1.5499                 1.2874                 1.5665
 Frc consts  --      1.4499                 1.2915                 1.6003
 IR Inten    --      8.6037                 2.6196                38.7537

                     55                     56                     57
                      A                      A                      A
 Frequencies --   1330.2157              1336.6926              1364.6777
 Red. masses --      1.3905                 1.3993                 1.4057
 Frc consts  --      1.4496                 1.4730                 1.5424
 IR Inten    --      1.1900                11.1728                 4.5194

                     58                     59                     60
                      A                      A                      A
 Frequencies --   1381.8182              1390.5259              1410.1396
 Red. masses --      1.3354                 1.5291                 1.4180
 Frc consts  --      1.5023                 1.7420                 1.6613
 IR Inten    --      1.5983                 1.5875                10.9210

                     61                     62                     63
                      A                      A                      A
 Frequencies --   1415.6996              1423.7217              1437.8880
 Red. masses --      1.3848                 1.3982                 1.2425
 Frc consts  --      1.6353                 1.6698                 1.5136
 IR Inten    --      8.4703                 0.4159                 3.2334

                     64                     65                     66
                      A                      A                      A
 Frequencies --   1442.7949              1455.0577              1503.0086
 Red. masses --      1.2848                 1.5188                 1.0744
 Frc consts  --      1.5757                 1.8946                 1.4300
 IR Inten    --      6.3445                12.6885                 0.1413

                     67                     68                     69
                      A                      A                      A
 Frequencies --   1515.0770              1518.1540              1521.3271
 Red. masses --      1.0800                 1.0613                 1.0788
 Frc consts  --      1.4606                 1.4412                 1.4710
 IR Inten    --      2.2731                 1.4803                 0.2574

                     70                     71                     72
                      A                      A                      A
 Frequencies --   1527.1601              1529.2789              1529.9103
 Red. masses --      1.0577                 1.0683                 1.0720
 Frc consts  --      1.4534                 1.4720                 1.4783
 IR Inten    --      4.8121                 3.0422                 1.7495

                     73                     74                     75
                      A                      A                      A
 Frequencies --   1539.8373              1541.2146              1546.5086
 Red. masses --      1.0628                 1.0596                 1.0842
 Frc consts  --      1.4848                 1.4829                 1.5278
 IR Inten    --      2.6912                 9.8455                 2.4007

                     76                     77                     78
                      A                      A                      A
 Frequencies --   1548.6096              1564.0508              2977.0521
 Red. masses --      1.0494                 1.0955                 1.0717
 Frc consts  --      1.4828                 1.5789                 5.5962
 IR Inten    --      2.6643                 0.7288                69.5320

                     79                     80                     81
                      A                      A                      A
 Frequencies --   3011.2739              3026.1453              3029.5078
 Red. masses --      1.0666                 1.0616                 1.0653
 Frc consts  --      5.6983                 5.7278                 5.7607
 IR Inten    --     20.1167                20.4506                83.2690

                     82                     83                     84
                      A                      A                      A
 Frequencies --   3041.0940              3047.6453              3056.3956
 Red. masses --      1.0601                 1.0397                 1.0898
 Frc consts  --      5.7763                 5.6897                 5.9981
 IR Inten    --     43.9114                21.3157                 5.7408

                     85                     86                     87
                      A                      A                      A
 Frequencies --   3058.7776              3059.2760              3065.2666
 Red. masses --      1.0417                 1.0650                 1.0859
 Frc consts  --      5.7425                 5.8726                 6.0112
 IR Inten    --     30.3097                 8.2045                13.3065

                     88                     89                     90
                      A                      A                      A
 Frequencies --   3069.1036              3073.2269              3087.9130
 Red. masses --      1.0492                 1.0980                 1.1009
 Frc consts  --      5.8230                 6.1103                 6.1847
 IR Inten    --     15.1952                37.5530                47.1080

                     91                     92                     93
                      A                      A                      A
 Frequencies --   3099.3180              3110.8275              3114.7141
 Red. masses --      1.0932                 1.1019                 1.1007
 Frc consts  --      6.1873                 6.2828                 6.2913
 IR Inten    --     35.7057                23.4497                52.2938

                     94                     95                     96
                      A                      A                      A
 Frequencies --   3120.3459              3127.3721              3135.4998
 Red. masses --      1.1023                 1.1016                 1.1023
 Frc consts  --      6.3233                 6.3478                 6.3850
 IR Inten    --     40.2135                28.2591                30.1694

                     97                     98                     99
                      A                      A                      A
 Frequencies --   3140.1641              3150.9728              3719.3475
 Red. masses --      1.0996                 1.1020                 1.0657
 Frc consts  --      6.3885                 6.4463                 8.6863
 IR Inten    --     20.4636                27.6632                 4.3279

 - Thermochemistry -
 -------------------
 Temperature   298.150 Kelvin.  Pressure   1.00000 Atm.
 Atom     1 has atomic number  6 and mass  12.00000

 Molecular mass:   186.16198 amu.
 Principal axes and moments of inertia in atomic units:
                           1         2         3
     Eigenvalues --   919.497795720.870435748.16331
           X            0.99999  -0.00365  -0.00340
           Y            0.00499   0.72348   0.69032
           Z           -0.00006  -0.69033   0.72349
 This molecule is an asymmetric top.
 Rotational symmetry number  1.
 Warning -- assumption of classical behavior for rotation
           may cause significant error
 Rotational temperatures (Kelvin)      0.09420     0.01514     0.01507
 Rotational constants (GHZ):           1.96275     0.31547     0.31397
 Zero-point vibrational energy     842462.4 (Joules/Mol)
                                  201.35334 (Kcal/Mol)
 Warning -- explicit consideration of  22 degrees of freedom as
           vibrations may cause significant error
 Vibrational temperatures:     39.89    69.62    93.27   121.61   152.51
          (Kelvin)            187.25   265.91   276.44   306.14   334.43
                              366.96   379.74   446.12   472.52   497.44
                              517.82   527.81   572.13   615.93   634.42
                              689.70   817.78   948.34  1009.98  1101.24
                             1118.66  1121.74  1151.23  1229.01  1302.14
                             1332.33  1365.15  1374.34  1383.94  1422.11
                             1426.87  1435.82  1462.30  1482.94  1509.15
                             1553.98  1572.95  1599.80  1650.98  1671.09
                             1715.44  1728.22  1746.45  1775.83  1794.20
                             1801.93  1812.90  1877.45  1894.53  1913.88
                             1923.20  1963.47  1988.13  2000.66  2028.88
                             2036.88  2048.42  2068.80  2075.86  2093.50
                             2162.49  2179.86  2184.28  2188.85  2197.24
                             2200.29  2201.20  2215.48  2217.46  2225.08
                             2228.10  2250.32  4283.31  4332.55  4353.95
                             4358.79  4375.46  4384.88  4397.47  4400.90
                             4401.62  4410.23  4415.76  4421.69  4442.82
                             4459.23  4475.79  4481.38  4489.48  4499.59
                             4511.28  4518.00  4533.55  5351.31

 Zero-point correction=                           0.320877 (Hartree/Particle)
 Thermal correction to Energy=                    0.336161
 Thermal correction to Enthalpy=                  0.337106
 Thermal correction to Gibbs Free Energy=         0.278196
 Sum of electronic and zero-point Energies=           -582.593975
 Sum of electronic and thermal Energies=              -582.578690
 Sum of electronic and thermal Enthalpies=            -582.577746
 Sum of electronic and thermal Free Energies=         -582.636655

                     E (Thermal)             CV                S
                      KCal/Mol        Cal/Mol-Kelvin    Cal/Mol-Kelvin
 Total                  210.944             57.528            123.985
 Electronic               0.000              0.000              0.000
 Translational            0.889              2.981             41.570
 Rotational               0.889              2.981             31.781
 Vibrational            209.167             51.567             50.634
 Vibration     1          0.593              1.984              5.986
 Vibration     2          0.595              1.978              4.882
 Vibration     3          0.597              1.971              4.305
 Vibration     4          0.601              1.960              3.783
 Vibration     5          0.605              1.944              3.341
 Vibration     6          0.612              1.923              2.944
 Vibration     7          0.631              1.861              2.279
 Vibration     8          0.634              1.851              2.207
 Vibration     9          0.644              1.821              2.020
 Vibration    10          0.653              1.791              1.860
 Vibration    11          0.665              1.754              1.695
 Vibration    12          0.670              1.739              1.636
 Vibration    13          0.699              1.655              1.362
 Vibration    14          0.712              1.619              1.268
 Vibration    15          0.724              1.584              1.186
 Vibration    16          0.734              1.555              1.123
 Vibration    17          0.740              1.540              1.093
 Vibration    18          0.764              1.475              0.971
 Vibration    19          0.790              1.409              0.865
 Vibration    20          0.801              1.381              0.824
 Vibration    21          0.836              1.296              0.712
 Vibration    22          0.924              1.100              0.507

 Optimization completed.
    -- Stationary point found.
 Normal termination of Gaussian 16 at Wed Dec  9 23:41:49 2020.

 ----------------------------------------------------------------------
 # B3LYP/6-311++G(d,p) empiricaldispersion=gd3bj scf=xqc pop=npa geom=c
 heck
 ----------------------------------------------------------------------

 ---------------------------------------
 CID_149255830_JID_3470_Energie_neutraal
 ---------------------------------------
 Structure from the checkpoint file:  "JID_3470.chk"
 Charge =  0 Multiplicity = 1

 SCF Done:  E(RB3LYP) =  -583.090427975     A.U. after   14 cycles
 Normal termination of Gaussian 16 at Wed Dec  9 23:47:07 2020.

 ----------------------------------------------------------------------
 # B3LYP/6-311++G(d,p) empiricaldispersion=gd3bj scf=xqc pop=npa geom=c
 heck
 ----------------------------------------------------------------------

 -------------------------------------
 CID_149255830_JID_3470_Energie_kation
 -------------------------------------
 Structure from the checkpoint file:  "JID_3470.chk"
 Charge =  1 Multiplicity = 2

 SCF Done:  E(UB3LYP) =  -582.766677485     A.U. after   22 cycles
 Normal termination of Gaussian 16 at Wed Dec  9 23:59:09 2020.
 Gaussian 16:  ES64L-G16RevA.03 25-Dec-2016

 ----------------------------------------------------------------------
 # B3LYP/6-311++G(d,p) empiricaldispersion=gd3bj scf=xqc pop=npa geom=c
 heck
 ----------------------------------------------------------------------

 ------------------------------------
 CID_149255830_JID_3470_Energie_anion
 ------------------------------------
 Structure from the checkpoint file:  "JID_3470.chk"
 Charge = -1 Multiplicity = 2

                         Standard orientation:
 ---------------------------------------------------------------------
 Center     Atomic      Atomic             Coordinates (Angstroms)
 Number     Number       Type             X           Y           Z
 ---------------------------------------------------------------------
      1          6           0       -4.703064    0.051757   -0.582038
      2          6           0       -3.233860    0.109576   -1.005709
      3          6           0       -2.218727    0.077034    0.158063
      4          6           0       -2.423762    1.247918    1.119137
      5          6           0       -0.789711    0.055800   -0.427684
      6          6           0        0.329488   -0.044840    0.613109
      7          6           0        1.731558   -0.279529    0.031213
      8          6           0        2.214511    0.869349   -0.886251
      9          6           0        3.748372    0.860581   -0.714169
     10          8           0        4.036673    0.054839    0.435630
     11          6           0        2.816222   -0.196460    1.120894
     12          6           0        1.843432   -1.634781   -0.686511
     13          8           0       -2.432997   -1.102295    0.955756
     14          1           0       -4.868788   -0.781245    0.107947
     15          1           0       -5.352676   -0.085679   -1.453135
     16          1           0       -5.017979    0.971708   -0.078907
     17          1           0       -3.013627   -0.746556   -1.661702
     18          1           0       -3.049175    1.006575   -1.611615
     19          1           0       -1.725588    1.184970    1.957440
     20          1           0       -2.267424    2.201403    0.603074
     21          1           0       -3.436061    1.234497    1.530505
     22          1           0       -0.731933   -0.800128   -1.115009
     23          1           0       -0.647281    0.950451   -1.048063
     24          1           0        0.356970    0.878313    1.206046
     25          1           0        0.083367   -0.855326    1.310490
     26          1           0        1.909847    0.735478   -1.928700
     27          1           0        1.794458    1.820793   -0.539041
     28          1           0        4.147569    1.874085   -0.571115
     29          1           0        4.264145    0.413343   -1.571742
     30          1           0        2.586911    0.618452    1.829119
     31          1           0        2.936339   -1.124191    1.689655
     32          1           0        1.496279   -2.447292   -0.036639
     33          1           0        1.249009   -1.659619   -1.605886
     34          1           0        2.884681   -1.840991   -0.953875
     35          1           0       -2.315196   -1.867816    0.369748
 ---------------------------------------------------------------------

 SCF Done:  E(UB3LYP) =  -583.079150699     A.U. after   26 cycles

 The electronic state is 2-A.
 Alpha  occ. eigenvalues --  -19.02479 -19.01296 -10.12340 -10.11839 -10.11491
 Alpha  occ. eigenvalues --  -10.08546 -10.07022 -10.06258 -10.06183 -10.06078
 Alpha  occ. eigenvalues --  -10.05768 -10.05569 -10.05441  -0.94195  -0.91688
 Alpha  occ. eigenvalues --   -0.72800  -0.69449  -0.65153  -0.64211  -0.61037
 Alpha  occ. eigenvalues --   -0.58831  -0.55790  -0.51169  -0.49780  -0.46432
 Alpha  occ. eigenvalues --   -0.44904  -0.39825  -0.39257  -0.37748  -0.36649
 Alpha  occ. eigenvalues --   -0.35691  -0.35317  -0.34246  -0.33732  -0.31028
 Alpha  occ. eigenvalues --   -0.30560  -0.29108  -0.28732  -0.28278  -0.27883
 Alpha  occ. eigenvalues --   -0.27650  -0.26242  -0.25165  -0.24191  -0.23944
 Alpha  occ. eigenvalues --   -0.23524  -0.22674  -0.21951  -0.21266  -0.20674
 Alpha  occ. eigenvalues --   -0.16925  -0.15875   0.04277
 Alpha virt. eigenvalues --    0.06697   0.07164   0.07912   0.08476   0.08826
 Alpha virt. eigenvalues --    0.09385   0.09769   0.10309   0.10756   0.11089
 Alpha virt. eigenvalues --    0.11510   0.11902   0.12417   0.13794   0.13800

  Beta  occ. eigenvalues --  -19.02479 -19.01261 -10.12339 -10.11825 -10.11481
  Beta  occ. eigenvalues --  -10.08544 -10.06997 -10.06247 -10.06155 -10.06056
  Beta  occ. eigenvalues --  -10.05737 -10.05547 -10.05412  -0.94191  -0.91612
  Beta  occ. eigenvalues --   -0.72779  -0.69408  -0.65122  -0.64177  -0.60994
  Beta  occ. eigenvalues --   -0.58784  -0.55744  -0.51108  -0.49734  -0.46356
  Beta  occ. eigenvalues --   -0.44855  -0.39802  -0.39219  -0.37705  -0.36620
  Beta  occ. eigenvalues --   -0.35658  -0.35288  -0.34223  -0.33702  -0.31003
  Beta  occ. eigenvalues --   -0.30535  -0.29073  -0.28697  -0.28244  -0.27855
  Beta  occ. eigenvalues --   -0.27613  -0.26188  -0.25132  -0.24160  -0.23917
  Beta  occ. eigenvalues --   -0.23489  -0.22642  -0.21927  -0.21241  -0.20633
  Beta  occ. eigenvalues --   -0.16892  -0.15864
  Beta virt. eigenvalues --    0.06513   0.07255   0.08010   0.08313   0.08919
  Beta virt. eigenvalues --    0.09279   0.09673   0.10248   0.10601   0.11048
  Beta virt. eigenvalues --    0.11386   0.11705   0.12168   0.12651   0.14051

 Mulliken charges and spin densities:
               1          2
     1  C    0.399609  -0.982713
     2  C   -0.761385   0.608292
     3  C    0.411377   0.074719
     4  C    0.773705  -1.507324
     5  C   -1.081943   0.511872
     6  C   -1.109214   0.072942
     7  C   -0.033889   1.193798
     8  C    0.063954  -0.362221
     9  C    0.433318  -0.909279
    10  O   -0.114887   0.007502
    11  C    0.212747  -0.663677
    12  C    1.374893  -2.016522
    13  O   -0.125152  -0.036810
    14  H    0.009431   0.142285
    15  H   -0.287564   0.424586
    16  H   -0.011873   0.140130
    17  H   -0.394294   0.540421
    18  H   -0.154965   0.298161
    19  H    0.100394   0.063682
    20  H   -0.296914   0.461596
    21  H    0.096324   0.053253
    22  H    0.402068  -0.205087
    23  H   -0.175502   0.359147
    24  H    0.083002   0.025353
    25  H    0.077358   0.120750
    26  H   -0.251778   0.407147
    27  H   -0.118574   0.301937
    28  H   -0.036994   0.185393
    29  H   -0.007935   0.170393
    30  H    0.012742   0.145402
    31  H    0.047472   0.117228
    32  H   -0.230936   0.374314
    33  H   -0.276640   0.417572
    34  H    0.099576   0.079110
    35  H   -0.127533   0.386646
 Sum of Mulliken charges =  -1.00000   1.00000

 Dipole moment (field-independent basis, Debye):
    X=              2.4475    Y=              0.7424    Z=              2.3757  Tot=              3.4907
 Quadrupole moment (field-independent basis, Debye-Ang):
   XX=           -160.4379   YY=           -125.7723   ZZ=           -119.2662
   XY=             -2.2708   XZ=             -4.0062   YZ=             -0.7070

 Summary of Natural Population Analysis:

                                       Natural Population
                Natural  -----------------------------------------------
    Atom  No    Charge         Core      Valence    Rydberg      Total
 -----------------------------------------------------------------------
      C    1   -0.28694      0.99966     2.28251    0.00477     3.28694
      C    2   -0.19899      0.99958     2.18979    0.00962     3.19899
      C    3    0.13247      0.99954     1.85244    0.01556     2.86753
      C    4   -0.29406      0.99961     2.28676    0.00769     3.29406
      C    5   -0.20052      0.99957     2.19112    0.00982     3.20052
      C    6   -0.18945      0.99958     2.18067    0.00920     3.18945
      C    7   -0.05148      0.99957     2.03940    0.01251     3.05148
      C    8   -0.20576      0.99960     2.19685    0.00932     3.20576
      C    9   -0.01094      0.99960     1.99852    0.01282     3.01094
      O   10   -0.30614      0.99990     3.29767    0.00857     4.30614
      C   11   -0.00166      0.99953     1.99027    0.01187     3.00166
      C   12   -0.28827      0.99962     2.28074    0.00791     3.28827
      O   13   -0.38204      0.99989     3.37530    0.00686     4.38204
      H   14    0.10277      0.00000     0.39589    0.00133     0.39723
      H   15    0.09805      0.00000     0.40095    0.00101     0.40195
      H   16    0.09447      0.00000     0.40445    0.00108     0.40553
      H   17    0.09743      0.00000     0.40060    0.00198     0.40257
      H   18    0.10013      0.00000     0.39835    0.00152     0.39987
      H   19    0.10281      0.00000     0.39627    0.00091     0.39719
      H   20    0.10208      0.00000     0.39686    0.00106     0.39792
      H   21    0.10250      0.00000     0.39661    0.00089     0.39750
      H   22    0.09910      0.00000     0.39849    0.00241     0.40090
      H   23    0.10200      0.00000     0.39602    0.00198     0.39800
      H   24    0.09767      0.00000     0.40093    0.00140     0.40233
      H   25    0.10545      0.00000     0.39301    0.00154     0.39455
      H   26    0.10707      0.00000     0.39170    0.00124     0.39293
      H   27    0.10189      0.00000     0.39652    0.00159     0.39811
      H   28    0.08154      0.00000     0.41717    0.00129     0.41846
      H   29    0.08419      0.00000     0.41454    0.00126     0.41581
      H   30    0.07824      0.00000     0.42030    0.00146     0.42176
      H   31    0.09045      0.00000     0.40823    0.00132     0.40955
      H   32    0.10075      0.00000     0.39822    0.00103     0.39925
      H   33    0.10243      0.00000     0.39638    0.00119     0.39757
      H   34    0.10244      0.00000     0.39616    0.00140     0.39756
      H   35    0.23032      0.00000     0.26581    0.00387     0.26968
 =======================================================================
   * Total *    0.00000     12.99524    38.84548    0.15928    52.00000

 Normal termination of Gaussian 16 at Thu Dec 10 00:13:05 2020.
