 Gaussian 16, Revision A.03,

 -----------------------------------------------------------
 # opt freq B3LYP/6-31G(d) empiricaldispersion=gd3bj scf=xqc
 -----------------------------------------------------------

 -------------------------------
 CID_140079416_JID_6005_neutraal
 -------------------------------
 Symbolic Z-matrix:
 Charge =  0 Multiplicity = 1

 SCF Done:  E(RB3LYP) =  -709.672805458     A.U. after   15 cycles
 SCF Done:  E(RB3LYP) =  -709.676164265     A.U. after   12 cycles
 SCF Done:  E(RB3LYP) =  -709.676409393     A.U. after   12 cycles
 SCF Done:  E(RB3LYP) =  -709.676326494     A.U. after   12 cycles
 SCF Done:  E(RB3LYP) =  -709.676647048     A.U. after   11 cycles
 SCF Done:  E(RB3LYP) =  -709.676769593     A.U. after   11 cycles
 SCF Done:  E(RB3LYP) =  -709.676925248     A.U. after   12 cycles
 SCF Done:  E(RB3LYP) =  -709.676984587     A.U. after   11 cycles
 SCF Done:  E(RB3LYP) =  -709.677459353     A.U. after   14 cycles
 SCF Done:  E(RB3LYP) =  -709.578979049     A.U. after   15 cycles
 SCF Done:  E(RB3LYP) =  -709.680679287     A.U. after    9 cycles
 SCF Done:  E(RB3LYP) =  -709.680681772     A.U. after    9 cycles
 SCF Done:  E(RB3LYP) =  -709.680683577     A.U. after    9 cycles
 SCF Done:  E(RB3LYP) =  -709.680684120     A.U. after    8 cycles
 SCF Done:  E(RB3LYP) =  -709.680684196     A.U. after    7 cycles
 Optimization completed.
    -- Stationary point found.
 Normal termination of Gaussian 16 at Thu Dec 10 21:22:08 2020.

 --------------------------------------------------------------------
 #N Geom=AllCheck Guess=TCheck SCRF=Check GenChk RB3LYP/6-31G(d) Freq
 --------------------------------------------------------------------

 Structure from the checkpoint file:  "JID_6005.chk"
 -------------------------------
 CID_140079416_JID_6005_neutraal
 -------------------------------
 Charge =  0 Multiplicity = 1

 SCF Done:  E(RB3LYP) =  -709.680684196     A.U. after    1 cycles

  Exact polarizability: 219.226  -1.077 103.876   5.942   8.442 117.626
 Approx polarizability: 296.660  -6.987 157.872  17.745  16.700 202.276

                      1                      2                      3
                      A                      A                      A
 Frequencies --     34.2133                45.1420                49.3042
 Red. masses --      5.0688                 5.4532                 5.4712
 Frc consts  --      0.0035                 0.0065                 0.0078
 IR Inten    --      0.3519                 0.6185                 0.8086

                      4                      5                      6
                      A                      A                      A
 Frequencies --     67.1542               102.2786               157.7945
 Red. masses --      4.9444                 2.9701                 5.3684
 Frc consts  --      0.0131                 0.0183                 0.0788
 IR Inten    --      0.1784                 1.1038                 1.3452

                      7                      8                      9
                      A                      A                      A
 Frequencies --    186.4268               225.1712               272.0392
 Red. masses --      4.1476                 4.1922                 2.8423
 Frc consts  --      0.0849                 0.1252                 0.1239
 IR Inten    --      0.8143                 0.4177                 0.0534

                     10                     11                     12
                      A                      A                      A
 Frequencies --    288.8038               334.9513               376.9987
 Red. masses --      3.3169                 4.0353                 2.7132
 Frc consts  --      0.1630                 0.2667                 0.2272
 IR Inten    --      0.5734                 5.8374                 6.9361

                     13                     14                     15
                      A                      A                      A
 Frequencies --    417.7660               427.2299               462.5203
 Red. masses --      3.1297                 2.7571                 2.3058
 Frc consts  --      0.3218                 0.2965                 0.2906
 IR Inten    --      0.0516                 7.4190                28.0815

                     16                     17                     18
                      A                      A                      A
 Frequencies --    488.5948               507.1685               536.7155
 Red. masses --      2.2952                 4.2646                 3.3887
 Frc consts  --      0.3228                 0.6463                 0.5751
 IR Inten    --     62.9421                 3.0293                16.4903

                     19                     20                     21
                      A                      A                      A
 Frequencies --    543.1486               590.5474               605.8725
 Red. masses --      2.0049                 3.3681                 1.2383
 Frc consts  --      0.3485                 0.6921                 0.2678
 IR Inten    --     46.3825                16.0522                70.4310

                     22                     23                     24
                      A                      A                      A
 Frequencies --    634.8197               642.3890               704.1966
 Red. masses --      6.0273                 3.9193                 2.0761
 Frc consts  --      1.4311                 0.9529                 0.6066
 IR Inten    --      2.0208                20.3212                11.7155

                     25                     26                     27
                      A                      A                      A
 Frequencies --    712.4482               743.8869               761.3188
 Red. masses --      2.7615                 3.3350                 1.7287
 Frc consts  --      0.8259                 1.0873                 0.5903
 IR Inten    --     32.4168                53.9164                51.6869

                     28                     29                     30
                      A                      A                      A
 Frequencies --    785.4624               823.0308               848.8636
 Red. masses --      3.6150                 1.2611                 2.2612
 Frc consts  --      1.3140                 0.5033                 0.9600
 IR Inten    --     16.7883                 0.8380                 3.0077

                     31                     32                     33
                      A                      A                      A
 Frequencies --    862.8724               876.1674               894.0204
 Red. masses --      3.3791                 1.5242                 1.8154
 Frc consts  --      1.4823                 0.6894                 0.8549
 IR Inten    --      6.5971                 7.2689                 6.4128

                     34                     35                     36
                      A                      A                      A
 Frequencies --    932.0510               944.4023               948.1884
 Red. masses --      2.2025                 1.7454                 1.3284
 Frc consts  --      1.1273                 0.9172                 0.7036
 IR Inten    --      7.5791                 4.4708                 0.0358

                     37                     38                     39
                      A                      A                      A
 Frequencies --    975.5236               978.0638              1012.2834
 Red. masses --      1.2274                 2.6215                 5.6073
 Frc consts  --      0.6882                 1.4775                 3.3854
 IR Inten    --      0.1686                 3.3720                 1.4123

                     40                     41                     42
                      A                      A                      A
 Frequencies --   1031.4980              1062.3352              1065.6228
 Red. masses --      2.1902                 2.0777                 2.7504
 Frc consts  --      1.3730                 1.3815                 1.8402
 IR Inten    --     10.4528                 2.5309                24.8266

                     43                     44                     45
                      A                      A                      A
 Frequencies --   1093.8574              1115.4005              1135.9872
 Red. masses --      2.3618                 1.7152                 1.7530
 Frc consts  --      1.6650                 1.2572                 1.3328
 IR Inten    --     41.1373                10.4740                 7.9144

                     46                     47                     48
                      A                      A                      A
 Frequencies --   1143.3062              1192.2116              1200.3755
 Red. masses --      1.9422                 1.0905                 1.5752
 Frc consts  --      1.4958                 0.9133                 1.3373
 IR Inten    --     20.9202                 0.9849               172.6655

                     49                     50                     51
                      A                      A                      A
 Frequencies --   1205.4781              1219.5142              1221.8817
 Red. masses --      1.4513                 1.2334                 1.4028
 Frc consts  --      1.2426                 1.0808                 1.2340
 IR Inten    --     90.1038                 6.4222                47.8428

                     52                     53                     54
                      A                      A                      A
 Frequencies --   1286.3423              1301.0620              1342.2529
 Red. masses --      1.6050                 1.4152                 1.4506
 Frc consts  --      1.5647                 1.4115                 1.5398
 IR Inten    --     24.5081                52.8378                37.8248

                     55                     56                     57
                      A                      A                      A
 Frequencies --   1348.8285              1361.5890              1368.3610
 Red. masses --      1.6389                 1.7620                 1.5476
 Frc consts  --      1.7567                 1.9246                 1.7073
 IR Inten    --     48.6119                 9.4990                35.3254

                     58                     59                     60
                      A                      A                      A
 Frequencies --   1377.6711              1390.0020              1394.8684
 Red. masses --      2.4165                 1.6154                 1.5610
 Frc consts  --      2.7023                 1.8389                 1.7895
 IR Inten    --     19.5931                18.7070                16.7919

                     61                     62                     63
                      A                      A                      A
 Frequencies --   1409.1135              1432.7878              1483.8139
 Red. masses --      1.5109                 2.7922                 1.7969
 Frc consts  --      1.7676                 3.3772                 2.3309
 IR Inten    --      2.8623                53.1649                35.4476

                     64                     65                     66
                      A                      A                      A
 Frequencies --   1503.2456              1518.0383              1527.5208
 Red. masses --      1.0890                 1.0936                 1.1008
 Frc consts  --      1.4499                 1.4849                 1.5133
 IR Inten    --      2.7556                 6.5741                 6.2111

                     67                     68                     69
                      A                      A                      A
 Frequencies --   1546.6275              1557.0527              1646.8509
 Red. masses --      1.8007                 2.1357                 4.8284
 Frc consts  --      2.5378                 3.0507                 7.7154
 IR Inten    --      1.7781               195.7838                 7.5942

                     70                     71                     72
                      A                      A                      A
 Frequencies --   1670.5919              1720.9346              1814.8806
 Red. masses --      5.6649                 7.3546                 9.7956
 Frc consts  --      9.3150                12.8333                19.0099
 IR Inten    --    160.2372                15.5436               338.2974

                     73                     74                     75
                      A                      A                      A
 Frequencies --   3029.2470              3034.4541              3041.4029
 Red. masses --      1.0737                 1.0711                 1.0690
 Frc consts  --      5.8053                 5.8110                 5.8262
 IR Inten    --     10.7185                 7.5345                21.0542

                     76                     77                     78
                      A                      A                      A
 Frequencies --   3050.2237              3094.8319              3100.9427
 Red. masses --      1.0756                 1.0957                 1.0917
 Frc consts  --      5.8962                 6.1833                 6.1848
 IR Inten    --     47.5763                41.8848                13.8647

                     79                     80                     81
                      A                      A                      A
 Frequencies --   3106.4986              3168.7085              3183.7321
 Red. masses --      1.0966                 1.0871                 1.0864
 Frc consts  --      6.2352                 6.4310                 6.4878
 IR Inten    --     29.3834                14.6643                 3.5702

                     82                     83                     84
                      A                      A                      A
 Frequencies --   3192.4873              3209.7556              3215.8894
 Red. masses --      1.0918                 1.0930                 1.0904
 Frc consts  --      6.5561                 6.6345                 6.6440
 IR Inten    --     28.0381                43.9728                 1.9949

                     85                     86                     87
                      A                      A                      A
 Frequencies --   3216.7954              3581.6443              3701.3025
 Red. masses --      1.0950                 1.0756                 1.0642
 Frc consts  --      6.6761                 8.1292                 8.5901
 IR Inten    --      7.7998                10.7116                72.2904

 - Thermochemistry -
 -------------------
 Temperature   298.150 Kelvin.  Pressure   1.00000 Atm.
 Atom     1 has atomic number  6 and mass  12.00000

 Molecular mass:   217.11028 amu.
 Principal axes and moments of inertia in atomic units:
                           1         2         3
     Eigenvalues --  1241.175748031.151778405.03944
           X            1.00000  -0.00315  -0.00014
           Y            0.00315   0.99983   0.01841
           Z            0.00008  -0.01841   0.99983
 This molecule is an asymmetric top.
 Rotational symmetry number  1.
 Warning -- assumption of classical behavior for rotation
           may cause significant error
 Rotational temperatures (Kelvin)      0.06978     0.01078     0.01030
 Rotational constants (GHZ):           1.45406     0.22472     0.21472
 Zero-point vibrational energy     684369.5 (Joules/Mol)
                                  163.56824 (Kcal/Mol)
 Warning -- explicit consideration of  21 degrees of freedom as
           vibrations may cause significant error
 Vibrational temperatures:     49.23    64.95    70.94    96.62   147.16
          (Kelvin)            227.03   268.23   323.97   391.40   415.52
                              481.92   542.42   601.07   614.69   665.46
                              702.98   729.70   772.21   781.47   849.67
                              871.72   913.36   924.25  1013.18  1025.05
                             1070.29  1095.37  1130.11  1184.16  1221.33
                             1241.48  1260.61  1286.30  1341.01  1358.78
                             1364.23  1403.56  1407.22  1456.45  1484.10
                             1528.46  1533.19  1573.82  1604.81  1634.43
                             1644.96  1715.33  1727.07  1734.41  1754.61
                             1758.02  1850.76  1871.94  1931.20  1940.66
                             1959.02  1968.77  1982.16  1999.90  2006.90
                             2027.40  2061.46  2134.88  2162.84  2184.12
                             2197.76  2225.25  2240.25  2369.45  2403.61
                             2476.04  2611.21  4358.41  4365.90  4375.90
                             4388.59  4452.77  4461.56  4469.56  4559.06
                             4580.68  4593.28  4618.12  4626.95  4628.25
                             5153.19  5325.35

 Zero-point correction=                           0.260663 (Hartree/Particle)
 Thermal correction to Energy=                    0.274636
 Thermal correction to Enthalpy=                  0.275580
 Thermal correction to Gibbs Free Energy=         0.218361
 Sum of electronic and zero-point Energies=           -709.420022
 Sum of electronic and thermal Energies=              -709.406048
 Sum of electronic and thermal Enthalpies=            -709.405104
 Sum of electronic and thermal Free Energies=         -709.462323

                     E (Thermal)             CV                S
                      KCal/Mol        Cal/Mol-Kelvin    Cal/Mol-Kelvin
 Total                  172.337             54.857            120.428
 Electronic               0.000              0.000              0.000
 Translational            0.889              2.981             42.029
 Rotational               0.889              2.981             32.793
 Vibrational            170.559             48.895             45.605
 Vibration     1          0.594              1.983              5.569
 Vibration     2          0.595              1.979              5.020
 Vibration     3          0.595              1.978              4.845
 Vibration     4          0.598              1.970              4.235
 Vibration     5          0.604              1.947              3.410
 Vibration     6          0.621              1.894              2.576
 Vibration     7          0.632              1.858              2.263
 Vibration     8          0.650              1.803              1.917
 Vibration     9          0.675              1.725              1.583
 Vibration    10          0.685              1.695              1.481
 Vibration    11          0.716              1.606              1.236
 Vibration    12          0.748              1.519              1.051
 Vibration    13          0.781              1.432              0.900
 Vibration    14          0.789              1.411              0.868
 Vibration    15          0.820              1.333              0.759
 Vibration    16          0.844              1.275              0.687
 Vibration    17          0.862              1.234              0.640
 Vibration    18          0.892              1.169              0.572
 Vibration    19          0.898              1.155              0.559
 Vibration    20          0.948              1.052              0.466
 Vibration    21          0.965              1.019              0.440

 Optimization completed.
    -- Stationary point found.
 Normal termination of Gaussian 16 at Thu Dec 10 21:32:01 2020.

 ----------------------------------------------------------------------
 # B3LYP/6-311++G(d,p) empiricaldispersion=gd3bj scf=xqc pop=npa geom=c
 heck
 ----------------------------------------------------------------------

 ---------------------------------------
 CID_140079416_JID_6005_Energie_neutraal
 ---------------------------------------
 Structure from the checkpoint file:  "JID_6005.chk"
 Charge =  0 Multiplicity = 1

 SCF Done:  E(RB3LYP) =  -709.885444880     A.U. after   15 cycles
 Normal termination of Gaussian 16 at Thu Dec 10 21:36:08 2020.

 ----------------------------------------------------------------------
 # B3LYP/6-311++G(d,p) empiricaldispersion=gd3bj scf=xqc pop=npa geom=c
 heck
 ----------------------------------------------------------------------

 -------------------------------------
 CID_140079416_JID_6005_Energie_kation
 -------------------------------------
 Structure from the checkpoint file:  "JID_6005.chk"
 Charge =  1 Multiplicity = 2

 SCF Done:  E(UB3LYP) =  -709.610794371     A.U. after   23 cycles
 Normal termination of Gaussian 16 at Thu Dec 10 21:45:51 2020.
 Gaussian 16:  ES64L-G16RevA.03 25-Dec-2016

 ----------------------------------------------------------------------
 # B3LYP/6-311++G(d,p) empiricaldispersion=gd3bj scf=xqc pop=npa geom=c
 heck
 ----------------------------------------------------------------------

 ------------------------------------
 CID_140079416_JID_6005_Energie_anion
 ------------------------------------
 Structure from the checkpoint file:  "JID_6005.chk"
 Charge = -1 Multiplicity = 2

                         Standard orientation:
 ---------------------------------------------------------------------
 Center     Atomic      Atomic             Coordinates (Angstroms)
 Number     Number       Type             X           Y           Z
 ---------------------------------------------------------------------
      1          6           0       -1.051434    1.940825   -0.701562
      2          6           0       -0.195959    1.616790    0.525255
      3          6           0       -0.141120    0.095194    0.764714
      4          6           0       -1.496953   -0.548977    0.619176
      5          6           0       -2.550791    0.066136    0.058948
      6          6           0       -2.493873    1.471884   -0.490269
      7          6           0       -3.868164   -0.611447   -0.046792
      8          8           0       -4.855332   -0.106602   -0.546058
      9          8           0       -3.889870   -1.867721    0.470606
     10          7           0        0.775175   -0.621371   -0.121807
     11          6           0        2.155976   -0.425982   -0.085793
     12          6           0        2.929293   -0.806499   -1.199004
     13          6           0        4.312658   -0.674775   -1.183526
     14          6           0        4.967540   -0.157146   -0.062848
     15          6           0        4.207032    0.225246    1.040779
     16          6           0        2.818068    0.099085    1.037781
     17          1           0       -1.031922    3.014632   -0.915614
     18          1           0       -0.626395    1.438724   -1.581859
     19          1           0        0.823041    2.000329    0.413412
     20          1           0       -0.630531    2.100129    1.411098
     21          1           0        0.198195   -0.094903    1.790852
     22          1           0       -1.586276   -1.573628    0.965917
     23          1           0       -3.012586    2.146991    0.205916
     24          1           0       -3.069970    1.516133   -1.420139
     25          1           0       -4.800001   -2.188324    0.333400
     26          1           0        0.406052   -0.756091   -1.054653
     27          1           0        2.430281   -1.213742   -2.075873
     28          1           0        4.883685   -0.977459   -2.057280
     29          1           0        6.047914   -0.052213   -0.053484
     30          1           0        4.695114    0.633652    1.921820
     31          1           0        2.255151    0.407948    1.911613
 ---------------------------------------------------------------------

 SCF Done:  E(UB3LYP) =  -709.885191835     A.U. after   33 cycles
 SCF Done:  E(UB3LYP) =  -709.885191835     a.u. after    1 cycles

 The electronic state is 2-A.
 Alpha  occ. eigenvalues --  -19.02704 -18.95350 -14.21203 -10.13484 -10.11279
 Alpha  occ. eigenvalues --  -10.09224 -10.07670 -10.07663 -10.07046 -10.06843
 Alpha  occ. eigenvalues --  -10.06552 -10.05794 -10.05640 -10.04680 -10.03257
 Alpha  occ. eigenvalues --  -10.02012  -0.96245  -0.86815  -0.83092  -0.74720
 Alpha  occ. eigenvalues --   -0.71014  -0.64999  -0.64278  -0.63476  -0.60385
 Alpha  occ. eigenvalues --   -0.53165  -0.51814  -0.49726  -0.49369  -0.46499
 Alpha  occ. eigenvalues --   -0.43059  -0.40728  -0.38845  -0.37883  -0.36272
 Alpha  occ. eigenvalues --   -0.34852  -0.34323  -0.33364  -0.32480  -0.32188
 Alpha  occ. eigenvalues --   -0.31167  -0.30494  -0.29543  -0.28032  -0.27179
 Alpha  occ. eigenvalues --   -0.26538  -0.26125  -0.25719  -0.24559  -0.22608
 Alpha  occ. eigenvalues --   -0.21459  -0.20684  -0.18843  -0.18633  -0.15725
 Alpha  occ. eigenvalues --   -0.13552  -0.13324  -0.10040   0.04693
 Alpha virt. eigenvalues --    0.05984   0.07358   0.07838   0.08336   0.08969
 Alpha virt. eigenvalues --    0.09015   0.09422   0.09843   0.10694   0.11225
 Alpha virt. eigenvalues --    0.11675   0.12525   0.13303   0.13691   0.13915

  Beta  occ. eigenvalues --  -19.02665 -18.95051 -14.21140 -10.13197 -10.11259
  Beta  occ. eigenvalues --  -10.09248 -10.07658 -10.07653 -10.07047 -10.06845
  Beta  occ. eigenvalues --  -10.06540 -10.05791 -10.05633 -10.04690 -10.03163
  Beta  occ. eigenvalues --  -10.01575  -0.95972  -0.86384  -0.82993  -0.74664
  Beta  occ. eigenvalues --   -0.70838  -0.64964  -0.64193  -0.63077  -0.60240
  Beta  occ. eigenvalues --   -0.52944  -0.51648  -0.49541  -0.49114  -0.46376
  Beta  occ. eigenvalues --   -0.42985  -0.40487  -0.38751  -0.37744  -0.36103
  Beta  occ. eigenvalues --   -0.34677  -0.34204  -0.33151  -0.32426  -0.32104
  Beta  occ. eigenvalues --   -0.30432  -0.30219  -0.29235  -0.27842  -0.27132
  Beta  occ. eigenvalues --   -0.26402  -0.26036  -0.25521  -0.24507  -0.22549
  Beta  occ. eigenvalues --   -0.21358  -0.20528  -0.18746  -0.17524  -0.15716
  Beta  occ. eigenvalues --   -0.13250  -0.11431  -0.09976
  Beta virt. eigenvalues --    0.06571   0.07684   0.07880   0.08325   0.08958
  Beta virt. eigenvalues --    0.09127   0.09434   0.09841   0.10752   0.10839
  Beta virt. eigenvalues --    0.11261   0.11589   0.12438   0.13334   0.13702

 Mulliken charges and spin densities:
               1          2
     1  C   -0.143764  -0.142244
     2  C   -0.215909  -0.100770
     3  C   -0.346602  -0.127362
     4  C   -0.239467   0.318914
     5  C    0.629783  -0.023768
     6  C   -0.839122   0.149620
     7  C   -0.134760   0.207781
     8  O   -0.417080   0.104267
     9  O   -0.234811   0.009830
    10  N    0.115180   0.031090
    11  C   -0.090994  -0.305139
    12  C   -0.462467   0.462211
    13  C    0.061333  -0.283561
    14  C    0.524705  -0.968014
    15  C   -0.276254   0.198306
    16  C    0.268599  -0.099100
    17  H    0.107210   0.046119
    18  H    0.077765   0.033839
    19  H    0.141660  -0.015605
    20  H    0.029297   0.099091
    21  H    0.105569   0.068284
    22  H    0.198708  -0.010984
    23  H    0.105513   0.052574
    24  H    0.173937   0.000140
    25  H    0.256039   0.003849
    26  H    0.192905  -0.011722
    27  H    0.083662   0.044353
    28  H   -0.300308   0.461249
    29  H   -0.337250   0.469828
    30  H   -0.209319   0.381128
    31  H    0.176242  -0.054204
 Sum of Mulliken charges =  -1.00000   1.00000

 Dipole moment (field-independent basis, Debye):
    X=              0.2555    Y=              0.3480    Z=              0.2516  Tot=              0.4997
 Quadrupole moment (field-independent basis, Debye-Ang):
   XX=           -203.5084   YY=           -112.4002   ZZ=           -110.2675
   XY=              5.0778   XZ=             -0.4443   YZ=              1.4426

 Summary of Natural Population Analysis:

                                       Natural Population
                Natural  -----------------------------------------------
    Atom  No    Charge         Core      Valence    Rydberg      Total
 -----------------------------------------------------------------------
      C    1   -0.18867      0.99964     2.18117    0.00786     3.18867
      C    2   -0.19503      0.99962     2.18825    0.00716     3.19503
      C    3   -0.02758      0.99958     2.01482    0.01318     3.02758
      C    4    0.00748      0.99948     1.98380    0.00923     2.99252
      C    5   -0.06156      0.99943     2.05257    0.00956     3.06156
      C    6   -0.19908      0.99961     2.19099    0.00848     3.19908
      C    7    0.42467      0.99964     1.55064    0.02505     2.57533
      O    8   -0.30639      0.99987     3.30066    0.00586     4.30639
      O    9   -0.35523      0.99988     3.34844    0.00691     4.35523
      N   10   -0.30422      0.99967     2.79393    0.01062     3.80422
      C   11    0.09611      0.99949     1.89320    0.01120     2.90389
      C   12   -0.12550      0.99953     2.11684    0.00912     3.12550
      C   13   -0.09472      0.99957     2.08451    0.01063     3.09472
      C   14   -0.13227      0.99956     2.12198    0.01073     3.13227
      C   15   -0.09231      0.99958     2.08215    0.01059     3.09231
      C   16   -0.13707      0.99952     2.12872    0.00883     3.13707
      H   17    0.09432      0.00000     0.40448    0.00120     0.40568
      H   18    0.08994      0.00000     0.40851    0.00155     0.41006
      H   19    0.10030      0.00000     0.39850    0.00120     0.39970
      H   20    0.09601      0.00000     0.40283    0.00116     0.40399
      H   21    0.09785      0.00000     0.40041    0.00175     0.40215
      H   22    0.09969      0.00000     0.39899    0.00131     0.40031
      H   23    0.09736      0.00000     0.40075    0.00190     0.40264
      H   24    0.10746      0.00000     0.39126    0.00128     0.39254
      H   25    0.22904      0.00000     0.26640    0.00456     0.27096
      H   26    0.18369      0.00000     0.31385    0.00246     0.31631
      H   27    0.09635      0.00000     0.40227    0.00137     0.40365
      H   28    0.09929      0.00000     0.39966    0.00105     0.40071
      H   29    0.09997      0.00000     0.39887    0.00116     0.40003
      H   30    0.09821      0.00000     0.40093    0.00086     0.40179
      H   31    0.10188      0.00000     0.39659    0.00152     0.39812
 =======================================================================
   * Total *   -0.00000     15.99367    41.81699    0.18934    58.00000

 Normal termination of Gaussian 16 at Thu Dec 10 21:58:57 2020.
