 Gaussian 16, Revision A.03,

 -----------------------------------------------------------
 # opt freq B3LYP/6-31G(d) empiricaldispersion=gd3bj scf=xqc
 -----------------------------------------------------------

 -------------------------------
 CID_121512955_JID_7849_neutraal
 -------------------------------
 Symbolic Z-matrix:
 Charge =  0 Multiplicity = 1

 SCF Done:  E(RB3LYP) =  -1460.26412558     A.U. after   15 cycles
 SCF Done:  E(RB3LYP) =  -1460.26965117     A.U. after   13 cycles
 SCF Done:  E(RB3LYP) =  -1460.26744736     A.U. after   15 cycles
 SCF Done:  E(RB3LYP) =  -1460.27076475     A.U. after   12 cycles
 SCF Done:  E(RB3LYP) =  -1460.27193809     A.U. after   13 cycles
 SCF Done:  E(RB3LYP) =  -1460.27003540     A.U. after   13 cycles
 SCF Done:  E(RB3LYP) =  -1460.27236987     A.U. after   13 cycles
 SCF Done:  E(RB3LYP) =  -1460.26842298     A.U. after   13 cycles
 SCF Done:  E(RB3LYP) =  -1460.27331900     A.U. after   13 cycles
 SCF Done:  E(RB3LYP) =  -1460.27460756     A.U. after   12 cycles
 SCF Done:  E(RB3LYP) =  -1460.28179042     A.U. after    9 cycles
 SCF Done:  E(RB3LYP) =  -1460.28179132     A.U. after    8 cycles
 SCF Done:  E(RB3LYP) =  -1460.28179190     A.U. after    8 cycles
 SCF Done:  E(RB3LYP) =  -1460.28179206     A.U. after    7 cycles
 SCF Done:  E(RB3LYP) =  -1460.28179209     A.U. after    7 cycles
 Optimization completed.
    -- Stationary point found.
 Normal termination of Gaussian 16 at Fri Dec 11 13:59:14 2020.

 --------------------------------------------------------------------
 #N Geom=AllCheck Guess=TCheck SCRF=Check GenChk RB3LYP/6-31G(d) Freq
 --------------------------------------------------------------------

 Structure from the checkpoint file:  "JID_7849.chk"
 -------------------------------
 CID_121512955_JID_7849_neutraal
 -------------------------------
 Charge =  0 Multiplicity = 1

 SCF Done:  E(RB3LYP) =  -1460.28179209     A.U. after    1 cycles

  Exact polarizability: 188.431 -13.522 158.159  10.839   9.089 134.707
 Approx polarizability: 285.172 -33.941 272.671  33.215  23.203 228.089

                      1                      2                      3
                      A                      A                      A
 Frequencies --     41.6799                54.7649                67.8679
 Red. masses --      5.9745                 4.0724                 4.2196
 Frc consts  --      0.0061                 0.0072                 0.0115
 IR Inten    --      0.2012                 3.6275                 0.9053

                      4                      5                      6
                      A                      A                      A
 Frequencies --     89.1726                96.7022               103.5813
 Red. masses --      6.5993                 5.3771                 4.9624
 Frc consts  --      0.0309                 0.0296                 0.0314
 IR Inten    --      5.1375                 1.3204                 1.7133

                      7                      8                      9
                      A                      A                      A
 Frequencies --    135.3711               170.9413               171.6516
 Red. masses --      4.0448                 1.4522                 1.9579
 Frc consts  --      0.0437                 0.0250                 0.0340
 IR Inten    --      1.1022                 0.3617                 3.9840

                     10                     11                     12
                      A                      A                      A
 Frequencies --    176.2215               192.1812               210.7602
 Red. masses --      1.3024                 2.0072                 4.1904
 Frc consts  --      0.0238                 0.0437                 0.1097
 IR Inten    --      0.2576                 2.5663                 3.7751

                     13                     14                     15
                      A                      A                      A
 Frequencies --    257.1443               265.3575               281.8883
 Red. masses --      4.6272                 4.1625                 2.5142
 Frc consts  --      0.1803                 0.1727                 0.1177
 IR Inten    --      0.8015                 2.3293                 1.8998

                     16                     17                     18
                      A                      A                      A
 Frequencies --    299.7007               327.7441               356.8082
 Red. masses --      2.4843                 4.4932                 1.1337
 Frc consts  --      0.1315                 0.2844                 0.0850
 IR Inten    --      2.3011                 2.5948                85.0455

                     19                     20                     21
                      A                      A                      A
 Frequencies --    376.3696               402.2549               437.7616
 Red. masses --      2.9063                 4.9589                 2.6298
 Frc consts  --      0.2426                 0.4728                 0.2969
 IR Inten    --      6.2063                 8.0542                13.3579

                     22                     23                     24
                      A                      A                      A
 Frequencies --    453.0710               513.4172               553.6928
 Red. masses --      8.4832                 6.8225                 7.4540
 Frc consts  --      1.0260                 1.0596                 1.3464
 IR Inten    --      1.9845                 0.4615                 2.3694

                     25                     26                     27
                      A                      A                      A
 Frequencies --    585.2145               633.8241               657.8519
 Red. masses --      3.7817                 6.1020                 5.6064
 Frc consts  --      0.7631                 1.4443                 1.4295
 IR Inten    --      1.5538                 1.0094                12.8138

                     28                     29                     30
                      A                      A                      A
 Frequencies --    670.9983               683.2495               687.6813
 Red. masses --      4.4421                 5.4018                 5.2635
 Frc consts  --      1.1784                 1.4858                 1.4666
 IR Inten    --      7.6959                11.3162                 0.4306

                     31                     32                     33
                      A                      A                      A
 Frequencies --    702.8055               704.5954               748.0455
 Red. masses --      9.8606                 6.3754                 3.8141
 Frc consts  --      2.8696                 1.8648                 1.2575
 IR Inten    --      0.8178                 2.0508                 8.7596

                     34                     35                     36
                      A                      A                      A
 Frequencies --    800.3702               819.1985               881.8114
 Red. masses --      1.2338                 3.7983                 2.8805
 Frc consts  --      0.4657                 1.5018                 1.3197
 IR Inten    --     18.8827                14.8516                13.5390

                     37                     38                     39
                      A                      A                      A
 Frequencies --    886.6129               922.4617               938.7640
 Red. masses --      2.1336                 1.5360                 1.6340
 Frc consts  --      0.9882                 0.7701                 0.8484
 IR Inten    --     12.3910                40.4766                58.7908

                     40                     41                     42
                      A                      A                      A
 Frequencies --    974.1099              1006.8934              1035.5730
 Red. masses --      2.0243                 3.4982                 1.8355
 Frc consts  --      1.1317                 2.0896                 1.1598
 IR Inten    --     18.6661                 1.7206                15.9883

                     43                     44                     45
                      A                      A                      A
 Frequencies --   1078.4760              1079.7436              1100.2276
 Red. masses --      1.5157                 2.3960                 9.7289
 Frc consts  --      1.0387                 1.6458                 6.9387
 IR Inten    --      2.1020                18.4645                 4.6640

                     46                     47                     48
                      A                      A                      A
 Frequencies --   1121.1742              1144.3285              1168.5946
 Red. masses --      1.8271                 2.1506                 1.3031
 Frc consts  --      1.3532                 1.6592                 1.0485
 IR Inten    --      9.7731                22.8843                 0.3511

                     49                     50                     51
                      A                      A                      A
 Frequencies --   1184.0924              1187.2335              1232.9353
 Red. masses --      1.5278                 2.0127                 1.3733
 Frc consts  --      1.2621                 1.6715                 1.2300
 IR Inten    --      2.0392                 1.8043                 3.6110

                     52                     53                     54
                      A                      A                      A
 Frequencies --   1241.2951              1257.5499              1268.8057
 Red. masses --      3.4336                 1.2014                 1.2898
 Frc consts  --      3.1171                 1.1194                 1.2234
 IR Inten    --      1.2634                 5.0031                18.0548

                     55                     56                     57
                      A                      A                      A
 Frequencies --   1289.1352              1354.3785              1355.5188
 Red. masses --      1.6419                 3.4347                 3.5514
 Frc consts  --      1.6077                 3.7121                 3.8447
 IR Inten    --      3.2796                 6.3509                10.0452

                     58                     59                     60
                      A                      A                      A
 Frequencies --   1371.4025              1380.7928              1441.5431
 Red. masses --      1.4049                 1.6520                 4.1974
 Frc consts  --      1.5567                 1.8557                 5.1391
 IR Inten    --      6.6224                 7.7080                 2.4251

                     61                     62                     63
                      A                      A                      A
 Frequencies --   1442.2108              1456.0678              1459.3135
 Red. masses --      1.7260                 1.3640                 1.6429
 Frc consts  --      2.1152                 1.7039                 2.0614
 IR Inten    --      9.8495                 5.0967                35.4980

                     64                     65                     66
                      A                      A                      A
 Frequencies --   1492.2284              1492.9943              1495.0652
 Red. masses --      1.4545                 2.0130                 1.3774
 Frc consts  --      1.9083                 2.6437                 1.8139
 IR Inten    --      8.5436                28.6940                20.6603

                     67                     68                     69
                      A                      A                      A
 Frequencies --   1508.7605              1517.2634              1522.5824
 Red. masses --      1.1051                 1.8847                 1.0939
 Frc consts  --      1.4822                 2.5564                 1.4941
 IR Inten    --     20.4588                20.6535                30.6125

                     70                     71                     72
                      A                      A                      A
 Frequencies --   1524.3569              1528.3318              1531.9321
 Red. masses --      1.1530                 1.2474                 1.1175
 Frc consts  --      1.5785                 1.7168                 1.5451
 IR Inten    --      8.0711                 3.8018                 2.8911

                     73                     74                     75
                      A                      A                      A
 Frequencies --   1561.1543              1593.4329              1695.2528
 Red. masses --      3.1921                 4.3258                 1.0860
 Frc consts  --      4.5838                 6.4712                 1.8389
 IR Inten    --     37.6225                17.8991                58.4463

                     76                     77                     78
                      A                      A                      A
 Frequencies --   3002.0730              3031.9340              3055.4073
 Red. masses --      1.0707                 1.0630                 1.0413
 Frc consts  --      5.6855                 5.7574                 5.7273
 IR Inten    --     56.8213                18.6564                12.0483

                     79                     80                     81
                      A                      A                      A
 Frequencies --   3075.0233              3076.7882              3089.7852
 Red. masses --      1.0593                 1.0705                 1.0942
 Frc consts  --      5.9018                 5.9707                 6.1547
 IR Inten    --     29.6041                14.9868                43.4601

                     82                     83                     84
                      A                      A                      A
 Frequencies --   3097.1433              3112.9562              3143.4060
 Red. masses --      1.0614                 1.0986                 1.1064
 Frc consts  --      5.9984                 6.2723                 6.4414
 IR Inten    --      9.8012                 7.7715                 9.3343

                     85                     86                     87
                      A                      A                      A
 Frequencies --   3157.4030              3164.6221              3187.2761
 Red. masses --      1.1049                 1.1001                 1.1021
 Frc consts  --      6.4899                 6.4915                 6.5963
 IR Inten    --      2.1580                 5.3772                 1.1034

                     88                     89                     90
                      A                      A                      A
 Frequencies --   3242.2906              3471.0355              3556.3245
 Red. masses --      1.0939                 1.0501                 1.0925
 Frc consts  --      6.7751                 7.4540                 8.1409
 IR Inten    --      1.0024                10.0513                 2.9678

 - Thermochemistry -
 -------------------
 Temperature   298.150 Kelvin.  Pressure   1.00000 Atm.
 Atom     1 has atomic number  6 and mass  12.00000

 Molecular mass:   269.07689 amu.
 Principal axes and moments of inertia in atomic units:
                           1         2         3
     Eigenvalues --  3007.152335750.846847007.85979
           X            0.99953  -0.03018  -0.00493
           Y            0.03019   0.99954   0.00284
           Z            0.00484  -0.00298   0.99998
 This molecule is an asymmetric top.
 Rotational symmetry number  1.
 Warning -- assumption of classical behavior for rotation
           may cause significant error
 Rotational temperatures (Kelvin)      0.02880     0.01506     0.01236
 Rotational constants (GHZ):           0.60015     0.31382     0.25753
 Zero-point vibrational energy     675398.5 (Joules/Mol)
                                  161.42411 (Kcal/Mol)
 Warning -- explicit consideration of  25 degrees of freedom as
           vibrations may cause significant error
 Vibrational temperatures:     59.97    78.79    97.65   128.30   139.13
          (Kelvin)            149.03   194.77   245.95   246.97   253.54
                              276.51   303.24   369.97   381.79   405.57
                              431.20   471.55   513.37   541.51   578.76
                              629.84   651.87   738.69   796.64   841.99
                              911.93   946.50   965.42   983.04   989.42
                             1011.18  1013.76  1076.27  1151.55  1178.64
                             1268.73  1275.64  1327.22  1350.67  1401.53
                             1448.69  1489.96  1551.69  1553.51  1582.98
                             1613.12  1646.43  1681.35  1703.64  1708.16
                             1773.92  1785.95  1809.33  1825.53  1854.78
                             1948.65  1950.29  1973.14  1986.65  2074.06
                             2075.02  2094.96  2099.63  2146.98  2148.09
                             2151.07  2170.77  2183.00  2190.66  2193.21
                             2198.93  2204.11  2246.15  2292.59  2439.09
                             4319.31  4362.28  4396.05  4424.27  4426.81
                             4445.51  4456.10  4478.85  4522.66  4542.80
                             4553.19  4585.78  4664.93  4994.05  5116.76

 Zero-point correction=                           0.257246 (Hartree/Particle)
 Thermal correction to Energy=                    0.274446
 Thermal correction to Enthalpy=                  0.275390
 Thermal correction to Gibbs Free Energy=         0.212019
 Sum of electronic and zero-point Energies=          -1460.024546
 Sum of electronic and thermal Energies=             -1460.007346
 Sum of electronic and thermal Enthalpies=           -1460.006402
 Sum of electronic and thermal Free Energies=        -1460.069774

                     E (Thermal)             CV                S
                      KCal/Mol        Cal/Mol-Kelvin    Cal/Mol-Kelvin
 Total                  172.218             63.884            133.377
 Electronic               0.000              0.000              0.000
 Translational            0.889              2.981             42.668
 Rotational               0.889              2.981             33.160
 Vibrational            170.440             57.922             57.549
 Vibration     1          0.594              1.981              5.178
 Vibration     2          0.596              1.976              4.637
 Vibration     3          0.598              1.970              4.214
 Vibration     4          0.602              1.957              3.678
 Vibration     5          0.603              1.952              3.520
 Vibration     6          0.605              1.946              3.386
 Vibration     7          0.613              1.918              2.868
 Vibration     8          0.626              1.878              2.425
 Vibration     9          0.626              1.877              2.417
 Vibration    10          0.628              1.872              2.368
 Vibration    11          0.634              1.851              2.207
 Vibration    12          0.643              1.824              2.037
 Vibration    13          0.667              1.751              1.681
 Vibration    14          0.671              1.737              1.626
 Vibration    15          0.681              1.707              1.522
 Vibration    16          0.692              1.674              1.419
 Vibration    17          0.711              1.620              1.271
 Vibration    18          0.732              1.561              1.136
 Vibration    19          0.747              1.520              1.054
 Vibration    20          0.768              1.465              0.954
 Vibration    21          0.798              1.388              0.834
 Vibration    22          0.812              1.354              0.787
 Vibration    23          0.868              1.220              0.625
 Vibration    24          0.909              1.132              0.537
 Vibration    25          0.942              1.063              0.476

 Optimization completed.
    -- Stationary point found.
 Normal termination of Gaussian 16 at Fri Dec 11 14:14:29 2020.

 ----------------------------------------------------------------------
 # B3LYP/6-311++G(d,p) empiricaldispersion=gd3bj scf=xqc pop=npa geom=c
 heck
 ----------------------------------------------------------------------

 ---------------------------------------
 CID_121512955_JID_7849_Energie_neutraal
 ---------------------------------------
 Structure from the checkpoint file:  "JID_7849.chk"
 Charge =  0 Multiplicity = 1

 SCF Done:  E(RB3LYP) =  -1460.51724625     A.U. after   16 cycles
 Normal termination of Gaussian 16 at Fri Dec 11 14:22:23 2020.

 ----------------------------------------------------------------------
 # B3LYP/6-311++G(d,p) empiricaldispersion=gd3bj scf=xqc pop=npa geom=c
 heck
 ----------------------------------------------------------------------

 -------------------------------------
 CID_121512955_JID_7849_Energie_kation
 -------------------------------------
 Structure from the checkpoint file:  "JID_7849.chk"
 Charge =  1 Multiplicity = 2

 SCF Done:  E(UB3LYP) =  -1460.21483273     A.U. after   30 cycles
 Normal termination of Gaussian 16 at Fri Dec 11 14:43:32 2020.
 Gaussian 16:  ES64L-G16RevA.03 25-Dec-2016

 ----------------------------------------------------------------------
 # B3LYP/6-311++G(d,p) empiricaldispersion=gd3bj scf=xqc pop=npa geom=c
 heck
 ----------------------------------------------------------------------

 ------------------------------------
 CID_121512955_JID_7849_Energie_anion
 ------------------------------------
 Structure from the checkpoint file:  "JID_7849.chk"
 Charge = -1 Multiplicity = 2

                         Standard orientation:
 ---------------------------------------------------------------------
 Center     Atomic      Atomic             Coordinates (Angstroms)
 Number     Number       Type             X           Y           Z
 ---------------------------------------------------------------------
      1          6           0        0.022257   -1.160765    1.826112
      2          6           0       -1.148450   -1.213981    0.891194
      3          6           0       -2.058360   -0.210267    0.642515
      4         16           0       -3.251148   -0.763228   -0.512677
      5          6           0       -2.429640   -2.301082   -0.560359
      6          7           0       -1.378728   -2.392916    0.198015
      7          6           0       -2.064018    1.189886    1.141002
      8         16           0       -1.286419    2.414082   -0.045293
      9          6           0        0.331660    1.735660   -0.072077
     10          7           0        1.282635    1.997525    0.802419
     11          7           0        2.355352    1.193164    0.497176
     12          6           0        2.031213    0.461731   -0.555065
     13          7           0        0.762538    0.767241   -0.961140
     14          6           0        0.033065    0.154076   -2.059001
     15          6           0        2.880940   -0.593087   -1.188095
     16          6           0        4.092134   -0.952238   -0.319567
     17          7           0        3.644321   -1.455439    0.982099
     18          1           0       -0.156843   -1.811743    2.690452
     19          1           0        0.929866   -1.526253    1.333889
     20          1           0        0.217188   -0.148746    2.185270
     21          1           0       -2.798878   -3.107084   -1.184002
     22          1           0       -3.076167    1.573867    1.295061
     23          1           0       -1.520036    1.272277    2.083000
     24          1           0       -0.137756   -0.905750   -1.851738
     25          1           0       -0.927789    0.658079   -2.156307
     26          1           0        0.597675    0.260268   -2.989428
     27          1           0        2.274851   -1.495507   -1.337503
     28          1           0        3.217462   -0.259787   -2.180324
     29          1           0        4.647612   -1.747710   -0.828124
     30          1           0        4.755951   -0.075715   -0.254044
     31          1           0        4.431220   -1.871384    1.476604
     32          1           0        3.339086   -0.655103    1.534779
 ---------------------------------------------------------------------

 SCF Done:  E(UB3LYP) =  -1460.51629155     A.U. after   33 cycles
 SCF Done:  E(UB3LYP) =  -1460.51629155     a.u. after    1 cycles

 The electronic state is 2-A.
 Alpha  occ. eigenvalues --  -88.74319 -88.73111 -14.26940 -14.21018 -14.20820
 Alpha  occ. eigenvalues --  -14.19369 -14.17768 -10.13501 -10.12673 -10.10480
 Alpha  occ. eigenvalues --  -10.10114 -10.09209 -10.08687 -10.08527 -10.07423
 Alpha  occ. eigenvalues --  -10.06858 -10.04445  -7.83026  -7.81742  -5.79296
 Alpha  occ. eigenvalues --   -5.78964  -5.78645  -5.78146  -5.77785  -5.77101
 Alpha  occ. eigenvalues --   -0.95182  -0.82891  -0.81631  -0.78978  -0.72795
 Alpha  occ. eigenvalues --   -0.69400  -0.65709  -0.64877  -0.62615  -0.62107
 Alpha  occ. eigenvalues --   -0.57092  -0.54278  -0.53626  -0.47887  -0.46265
 Alpha  occ. eigenvalues --   -0.45288  -0.41217  -0.40882  -0.39585  -0.38101
 Alpha  occ. eigenvalues --   -0.36836  -0.36264  -0.34079  -0.33833  -0.31877
 Alpha  occ. eigenvalues --   -0.31064  -0.30830  -0.30282  -0.29754  -0.28473
 Alpha  occ. eigenvalues --   -0.28018  -0.27435  -0.26528  -0.26244  -0.25639
 Alpha  occ. eigenvalues --   -0.23693  -0.22522  -0.20490  -0.18045  -0.15777
 Alpha  occ. eigenvalues --   -0.15249  -0.15018  -0.14591  -0.14200  -0.12830
 Alpha  occ. eigenvalues --   -0.11315   0.04553
 Alpha virt. eigenvalues --    0.06142   0.07414   0.08413   0.08736   0.09055
 Alpha virt. eigenvalues --    0.09864   0.10275   0.10483   0.11777   0.11856
 Alpha virt. eigenvalues --    0.12134   0.12603   0.12907   0.13221   0.13557

  Beta  occ. eigenvalues --  -88.74271 -88.73055 -14.26895 -14.21025 -14.20748
  Beta  occ. eigenvalues --  -14.19365 -14.17752 -10.13491 -10.12664 -10.10469
  Beta  occ. eigenvalues --  -10.10103 -10.09088 -10.08514 -10.08316 -10.07327
  Beta  occ. eigenvalues --  -10.06691 -10.04452  -7.82983  -7.81685  -5.79278
  Beta  occ. eigenvalues --   -5.78946  -5.78482  -5.78053  -5.77704  -5.77061
  Beta  occ. eigenvalues --   -0.95126  -0.82604  -0.81549  -0.78966  -0.72660
  Beta  occ. eigenvalues --   -0.69126  -0.65525  -0.64657  -0.62478  -0.62054
  Beta  occ. eigenvalues --   -0.56842  -0.54139  -0.53440  -0.47740  -0.46174
  Beta  occ. eigenvalues --   -0.44969  -0.41128  -0.40689  -0.39513  -0.38044
  Beta  occ. eigenvalues --   -0.36750  -0.36057  -0.34035  -0.33667  -0.31660
  Beta  occ. eigenvalues --   -0.30969  -0.30560  -0.30130  -0.29551  -0.28381
  Beta  occ. eigenvalues --   -0.27954  -0.27272  -0.26379  -0.26172  -0.25092
  Beta  occ. eigenvalues --   -0.23263  -0.22311  -0.20424  -0.17825  -0.15222
  Beta  occ. eigenvalues --   -0.15094  -0.14974  -0.14487  -0.13923  -0.12552
  Beta  occ. eigenvalues --   -0.10109
  Beta virt. eigenvalues --    0.06573   0.07797   0.08440   0.08753   0.09017
  Beta virt. eigenvalues --    0.09528   0.09889   0.10330   0.11139   0.11848
  Beta virt. eigenvalues --    0.12043   0.12216   0.12628   0.12969   0.13417

 Mulliken charges and spin densities:
               1          2
     1  C   -0.933621   0.056308
     2  C   -0.869337  -0.030634
     3  C    1.249581   0.110819
     4  S   -0.330165   0.064895
     5  C   -0.006855   0.298729
     6  N    0.085075  -0.008165
     7  C   -1.059823   0.065864
     8  S   -0.386229   0.222203
     9  C   -0.170602   0.224407
    10  N    0.188503  -0.048309
    11  N   -0.266422   0.076766
    12  C    0.195330  -0.271454
    13  N    0.241097   0.026712
    14  C    0.089774  -0.345810
    15  C   -0.203963   0.041334
    16  C    0.208096  -0.909333
    17  N   -0.436570   0.063501
    18  H    0.151631   0.002026
    19  H    0.261831  -0.011039
    20  H    0.122380  -0.001278
    21  H    0.164337   0.032029
    22  H    0.225035  -0.005212
    23  H    0.209149  -0.000393
    24  H    0.210459  -0.041860
    25  H    0.054703   0.057079
    26  H   -0.398789   0.583004
    27  H    0.184393  -0.002515
    28  H   -0.130404   0.307431
    29  H   -0.214695   0.371560
    30  H    0.133837   0.032997
    31  H    0.215773   0.023141
    32  H    0.216493   0.015197
 Sum of Mulliken charges =  -1.00000   1.00000

 Dipole moment (field-independent basis, Debye):
    X=             -1.0678    Y=             -0.6931    Z=              0.7931  Tot=              1.4999
 Quadrupole moment (field-independent basis, Debye-Ang):
   XX=           -155.4645   YY=           -158.6194   ZZ=           -138.2998
   XY=             -6.5685   XZ=              3.5290   YZ=             -0.3145

 Summary of Natural Population Analysis:

                                       Natural Population
                Natural  -----------------------------------------------
    Atom  No    Charge         Core      Valence    Rydberg      Total
 -----------------------------------------------------------------------
      C    1   -0.30228      0.99962     2.29756    0.00509     3.30228
      C    2    0.07483      0.99942     1.91059    0.01516     2.92517
      C    3   -0.10968      0.99940     2.09506    0.01522     3.10968
      S    4    0.17750      4.99943     2.80395    0.01912     7.82250
      C    5    0.00831      0.99966     1.97393    0.01809     2.99169
      N    6   -0.25456      0.99967     2.74329    0.01160     3.75456
      C    7   -0.23064      0.99951     2.22149    0.00964     3.23064
      S    8    0.11765      4.99954     2.86320    0.01961     7.88235
      C    9    0.09705      0.99954     1.87912    0.02429     2.90295
      N   10   -0.15582      0.99967     2.64225    0.01390     3.65582
      N   11   -0.18598      0.99968     2.67382    0.01248     3.68598
      C   12    0.19573      0.99959     1.78722    0.01746     2.80427
      N   13   -0.21135      0.99955     2.69804    0.01376     3.71135
      C   14   -0.18465      0.99963     2.17606    0.00896     3.18465
      C   15   -0.21766      0.99959     2.20833    0.00974     3.21766
      C   16   -0.08627      0.99965     2.07499    0.01163     3.08627
      N   17   -0.42675      0.99977     2.91752    0.00946     3.92675
      H   18    0.10115      0.00000     0.39799    0.00085     0.39885
      H   19    0.11559      0.00000     0.38278    0.00163     0.38441
      H   20    0.10468      0.00000     0.39436    0.00096     0.39532
      H   21    0.08816      0.00000     0.41063    0.00121     0.41184
      H   22    0.10456      0.00000     0.39457    0.00087     0.39544
      H   23    0.10979      0.00000     0.38907    0.00114     0.39021
      H   24    0.10901      0.00000     0.38951    0.00148     0.39099
      H   25    0.11594      0.00000     0.38263    0.00144     0.38406
      H   26    0.09757      0.00000     0.40107    0.00136     0.40243
      H   27    0.11054      0.00000     0.38762    0.00184     0.38946
      H   28    0.10687      0.00000     0.39159    0.00155     0.39313
      H   29    0.08980      0.00000     0.40918    0.00102     0.41020
      H   30    0.08398      0.00000     0.41435    0.00167     0.41602
      H   31    0.17006      0.00000     0.32855    0.00139     0.32994
      H   32    0.18689      0.00000     0.31105    0.00206     0.31311
 =======================================================================
   * Total *    0.00000     24.99293    45.75137    0.25570    71.00000

 Normal termination of Gaussian 16 at Fri Dec 11 15:07:01 2020.
