 Gaussian 16, Revision A.03,

 -----------------------------------------------------------
 # opt freq B3LYP/6-31G(d) empiricaldispersion=gd3bj scf=xqc
 -----------------------------------------------------------

 ------------------------------
 CID_144716042_JID_551_neutraal
 ------------------------------
 Symbolic Z-matrix:
 Charge =  0 Multiplicity = 1

 SCF Done:  E(RB3LYP) =  -782.874536032     A.U. after   14 cycles
 SCF Done:  E(RB3LYP) =  -782.882587547     A.U. after   14 cycles
 SCF Done:  E(RB3LYP) =  -782.882942985     A.U. after   14 cycles
 SCF Done:  E(RB3LYP) =  -782.884044289     A.U. after   14 cycles
 SCF Done:  E(RB3LYP) =  -782.881436471     A.U. after   14 cycles
 SCF Done:  E(RB3LYP) =  -782.885498902     A.U. after   13 cycles
 SCF Done:  E(RB3LYP) =  -782.886895291     A.U. after   15 cycles
 SCF Done:  E(RB3LYP) =  -782.888007775     A.U. after   14 cycles
 SCF Done:  E(RB3LYP) =  -782.888180661     A.U. after   10 cycles
 SCF Done:  E(RB3LYP) =  -782.888278174     A.U. after   11 cycles
 SCF Done:  E(RB3LYP) =  -782.888568185     A.U. after    8 cycles
 SCF Done:  E(RB3LYP) =  -782.888568209     A.U. after    7 cycles
 SCF Done:  E(RB3LYP) =  -782.888568236     A.U. after    7 cycles
 SCF Done:  E(RB3LYP) =  -782.888568258     A.U. after    6 cycles
 SCF Done:  E(RB3LYP) =  -782.888568263     A.U. after    7 cycles
 SCF Done:  E(RB3LYP) =  -782.888568265     A.U. after    7 cycles
 Optimization completed.
    -- Stationary point found.
 Normal termination of Gaussian 16 at Tue Dec  8 13:12:54 2020.

 --------------------------------------------------------------------
 #N Geom=AllCheck Guess=TCheck SCRF=Check GenChk RB3LYP/6-31G(d) Freq
 --------------------------------------------------------------------

 Structure from the checkpoint file:  "JID_551.chk"
 ------------------------------
 CID_144716042_JID_551_neutraal
 ------------------------------
 Charge =  0 Multiplicity = 1

 SCF Done:  E(RB3LYP) =  -782.888568265     A.U. after    1 cycles

  Exact polarizability: 103.698 -21.033 100.511 -11.437 -11.121 103.775
 Approx polarizability: 152.602 -37.107 148.365 -25.717 -23.899 173.001

                      1                      2                      3
                      A                      A                      A
 Frequencies --     12.2575                39.8650                50.9374
 Red. masses --      2.3905                 3.4135                 3.7774
 Frc consts  --      0.0002                 0.0032                 0.0058
 IR Inten    --      0.1106                 0.1531                 0.0931

                      4                      5                      6
                      A                      A                      A
 Frequencies --     89.0428                93.1537               107.1806
 Red. masses --      1.3816                 3.4356                 1.1804
 Frc consts  --      0.0065                 0.0176                 0.0080
 IR Inten    --      0.1964                 0.1087                 0.6209

                      7                      8                      9
                      A                      A                      A
 Frequencies --    114.1286               141.3662               193.6396
 Red. masses --      1.3817                 3.0452                 1.0821
 Frc consts  --      0.0106                 0.0359                 0.0239
 IR Inten    --      0.1159                 7.4166                31.6206

                     10                     11                     12
                      A                      A                      A
 Frequencies --    214.4930               248.8851               270.4532
 Red. masses --      1.9764                 1.6668                 2.6496
 Frc consts  --      0.0536                 0.0608                 0.1142
 IR Inten    --     20.3747                29.2003                 0.7247

                     13                     14                     15
                      A                      A                      A
 Frequencies --    293.7388               303.2942               330.9449
 Red. masses --      3.6738                 3.3159                 1.0240
 Frc consts  --      0.1868                 0.1797                 0.0661
 IR Inten    --      1.7141                 2.7177                 0.9616

                     16                     17                     18
                      A                      A                      A
 Frequencies --    432.5194               501.6126               515.3577
 Red. masses --      4.0123                 7.3678                 3.9147
 Frc consts  --      0.4422                 1.0923                 0.6126
 IR Inten    --      1.6785                 4.5038                29.4791

                     19                     20                     21
                      A                      A                      A
 Frequencies --    572.6219               623.9566               678.6970
 Red. masses --      7.3116                 2.6261                 3.1219
 Frc consts  --      1.4125                 0.6024                 0.8473
 IR Inten    --      4.3313                26.6129                93.8826

                     22                     23                     24
                      A                      A                      A
 Frequencies --    703.5803               725.4919               762.3921
 Red. masses --      3.4166                 1.6203                 1.4365
 Frc consts  --      0.9965                 0.5025                 0.4920
 IR Inten    --     12.8972               220.7543                65.7391

                     25                     26                     27
                      A                      A                      A
 Frequencies --    781.8326               834.8008               843.8180
 Red. masses --      1.8187                 1.0567                 1.0568
 Frc consts  --      0.6550                 0.4339                 0.4433
 IR Inten    --    256.1573                 2.9264                 8.7936

                     28                     29                     30
                      A                      A                      A
 Frequencies --    911.5747              1013.4272              1062.8491
 Red. masses --      2.2657                 3.2732                 1.3667
 Frc consts  --      1.1093                 1.9806                 0.9096
 IR Inten    --      2.5502                 0.1884                 4.4526

                     31                     32                     33
                      A                      A                      A
 Frequencies --   1086.9372              1115.8055              1159.5904
 Red. masses --      1.5746                 1.4992                 2.3185
 Frc consts  --      1.0961                 1.0997                 1.8369
 IR Inten    --      0.8667                 7.7337                23.3444

                     34                     35                     36
                      A                      A                      A
 Frequencies --   1207.4247              1238.0190              1240.9239
 Red. masses --      2.6262                 1.4615                 1.4554
 Frc consts  --      2.2558                 1.3198                 1.3205
 IR Inten    --     14.0339                 0.3598                 0.3237

                     37                     38                     39
                      A                      A                      A
 Frequencies --   1261.1742              1333.2242              1432.3983
 Red. masses --      1.9220                 2.3762                 1.2183
 Frc consts  --      1.8012                 2.4885                 1.4727
 IR Inten    --      2.6411                34.0197                 0.9516

                     40                     41                     42
                      A                      A                      A
 Frequencies --   1443.4086              1455.2663              1467.7655
 Red. masses --      1.3878                 1.2520                 2.7848
 Frc consts  --      1.7036                 1.5622                 3.5347
 IR Inten    --      3.3908                 1.9171                24.4849

                     43                     44                     45
                      A                      A                      A
 Frequencies --   1510.6049              1522.7877              1529.8715
 Red. masses --      1.0589                 1.0716                 1.0311
 Frc consts  --      1.4237                 1.4640                 1.4218
 IR Inten    --      5.8252                 3.9267                 6.8941

                     46                     47                     48
                      A                      A                      A
 Frequencies --   1533.6916              1537.5173              1549.2300
 Red. masses --      1.0302                 1.0580                 1.0494
 Frc consts  --      1.4278                 1.4735                 1.4840
 IR Inten    --      2.7587                 7.4076                 3.6954

                     49                     50                     51
                      A                      A                      A
 Frequencies --   1592.6947              1659.5137              1689.2262
 Red. masses --      5.1029                 2.9128                 1.1871
 Frc consts  --      7.6266                 4.7263                 1.9958
 IR Inten    --     69.1587                42.3933                43.5508

                     52                     53                     54
                      A                      A                      A
 Frequencies --   1694.3511              3018.1802              3041.4231
 Red. masses --      1.3768                 1.0407                 1.0372
 Frc consts  --      2.3288                 5.5857                 5.6530
 IR Inten    --    109.1481                58.6082                41.6042

                     55                     56                     57
                      A                      A                      A
 Frequencies --   3047.7887              3067.2374              3091.2825
 Red. masses --      1.0384                 1.0975                 1.1012
 Frc consts  --      5.6829                 6.0835                 6.2002
 IR Inten    --     28.8600                31.8352                18.4246

                     58                     59                     60
                      A                      A                      A
 Frequencies --   3101.4124              3103.1617              3127.6015
 Red. masses --      1.0988                 1.0992                 1.1017
 Frc consts  --      6.2273                 6.2362                 6.3493
 IR Inten    --     19.6356                32.0797                36.4827

                     61                     62                     63
                      A                      A                      A
 Frequencies --   3133.4065              3204.5245              3513.4203
 Red. masses --      1.1019                 1.0926                 1.0487
 Frc consts  --      6.3741                 6.6106                 7.6269
 IR Inten    --     38.6218                11.9471                 2.4064

                     64                     65                     66
                      A                      A                      A
 Frequencies --   3519.6038              3611.3123              3614.9195
 Red. masses --      1.0482                 1.0954                 1.0965
 Frc consts  --      7.6505                 8.4167                 8.4423
 IR Inten    --      8.6228                 3.4679                 8.4627

 - Thermochemistry -
 -------------------
 Temperature   298.150 Kelvin.  Pressure   1.00000 Atm.
 Atom     1 has atomic number  6 and mass  12.00000

 Molecular mass:   158.08777 amu.
 Principal axes and moments of inertia in atomic units:
                           1         2         3
     Eigenvalues --  1596.449912169.316052513.04215
           X            0.99968   0.00258   0.02502
           Y           -0.00269   0.99999   0.00417
           Z           -0.02501  -0.00423   0.99968
 This molecule is an asymmetric top.
 Rotational symmetry number  1.
 Warning -- assumption of classical behavior for rotation
           may cause significant error
 Rotational temperatures (Kelvin)      0.05425     0.03993     0.03447
 Rotational constants (GHZ):           1.13047     0.83194     0.71815
 Zero-point vibrational energy     537868.6 (Joules/Mol)
                                  128.55369 (Kcal/Mol)
 Warning -- explicit consideration of  19 degrees of freedom as
           vibrations may cause significant error
 Vibrational temperatures:     17.64    57.36    73.29   128.11   134.03
          (Kelvin)            154.21   164.21   203.39   278.60   308.61
                              358.09   389.12   422.62   436.37   476.16
                              622.30   721.71   741.48   823.88   897.73
                              976.49  1012.30  1043.82  1096.91  1124.88
                             1201.09  1214.07  1311.55  1458.10  1529.20
                             1563.86  1605.40  1668.39  1737.21  1781.23
                             1785.41  1814.55  1918.21  2060.90  2076.74
                             2093.80  2111.79  2173.42  2190.95  2201.14
                             2206.64  2212.14  2229.00  2291.53  2387.67
                             2430.42  2437.79  4342.49  4375.93  4385.09
                             4413.07  4447.67  4462.24  4464.76  4499.92
                             4508.27  4610.60  5055.03  5063.92  5195.87
                             5201.06

 Zero-point correction=                           0.204863 (Hartree/Particle)
 Thermal correction to Energy=                    0.219171
 Thermal correction to Enthalpy=                  0.220115
 Thermal correction to Gibbs Free Energy=         0.161658
 Sum of electronic and zero-point Energies=           -782.683705
 Sum of electronic and thermal Energies=              -782.669397
 Sum of electronic and thermal Enthalpies=            -782.668453
 Sum of electronic and thermal Free Energies=         -782.726911

                     E (Thermal)             CV                S
                      KCal/Mol        Cal/Mol-Kelvin    Cal/Mol-Kelvin
 Total                  137.532             48.465            123.034
 Electronic               0.000              0.000              0.000
 Translational            0.889              2.981             41.083
 Rotational               0.889              2.981             30.543
 Vibrational            135.754             42.503             51.408
 Vibration     1          0.593              1.987              7.607
 Vibration     2          0.594              1.981              5.266
 Vibration     3          0.595              1.977              4.781
 Vibration     4          0.602              1.957              3.681
 Vibration     5          0.602              1.954              3.593
 Vibration     6          0.606              1.943              3.319
 Vibration     7          0.607              1.938              3.197
 Vibration     8          0.615              1.912              2.785
 Vibration     9          0.635              1.849              2.193
 Vibration    10          0.644              1.819              2.005
 Vibration    11          0.662              1.765              1.738
 Vibration    12          0.674              1.728              1.593
 Vibration    13          0.689              1.685              1.452
 Vibration    14          0.695              1.667              1.399
 Vibration    15          0.713              1.614              1.255
 Vibration    16          0.793              1.399              0.850
 Vibration    17          0.857              1.246              0.654
 Vibration    18          0.870              1.216              0.621
 Vibration    19          0.929              1.090              0.499

 Optimization completed.
    -- Stationary point found.
 Normal termination of Gaussian 16 at Tue Dec  8 13:23:19 2020.

 ----------------------------------------------------------------------
 # B3LYP/6-311++G(d,p) empiricaldispersion=gd3bj scf=xqc pop=npa geom=c
 heck
 ----------------------------------------------------------------------

 --------------------------------------
 CID_144716042_JID_551_Energie_neutraal
 --------------------------------------
 Structure from the checkpoint file:  "JID_551.chk"
 Charge =  0 Multiplicity = 1

 SCF Done:  E(RB3LYP) =  -783.039815805     A.U. after   15 cycles
 Normal termination of Gaussian 16 at Tue Dec  8 13:27:07 2020.

 ----------------------------------------------------------------------
 # B3LYP/6-311++G(d,p) empiricaldispersion=gd3bj scf=xqc pop=npa geom=c
 heck
 ----------------------------------------------------------------------

 ------------------------------------
 CID_144716042_JID_551_Energie_kation
 ------------------------------------
 Structure from the checkpoint file:  "JID_551.chk"
 Charge =  1 Multiplicity = 2

 SCF Done:  E(UB3LYP) =  -782.784811740     A.U. after   19 cycles
 Normal termination of Gaussian 16 at Tue Dec  8 13:31:43 2020.
 Gaussian 16:  ES64L-G16RevA.03 25-Dec-2016

 ----------------------------------------------------------------------
 # B3LYP/6-311++G(d,p) empiricaldispersion=gd3bj scf=xqc pop=npa geom=c
 heck
 ----------------------------------------------------------------------

 -----------------------------------
 CID_144716042_JID_551_Energie_anion
 -----------------------------------
 Structure from the checkpoint file:  "JID_551.chk"
 Charge = -1 Multiplicity = 2

                         Standard orientation:
 ---------------------------------------------------------------------
 Center     Atomic      Atomic             Coordinates (Angstroms)
 Number     Number       Type             X           Y           Z
 ---------------------------------------------------------------------
      1          6           0       -1.871652   -1.567355   -1.233129
      2          6           0       -2.876356   -1.625735   -0.081170
      3          6           0       -0.674222    2.354531   -0.925152
      4          6           0        0.075995    1.267238   -0.223208
      5          6           0       -0.179899    0.692136    0.993758
      6          6           0        0.697306   -0.402552    1.313598
      7          6           0        1.614823   -0.654423    0.331862
      8         16           0        1.429074    0.454947   -1.011839
      9          7           0        2.669838   -1.570671    0.334260
     10          7           0       -1.250590    1.035696    1.842925
     11          1           0       -2.074530   -2.339379   -1.985515
     12          1           0       -0.848988   -1.706784   -0.868915
     13          1           0       -1.901825   -0.595282   -1.737777
     14          1           0       -3.902586   -1.473872   -0.437754
     15          1           0       -2.845716   -2.600464    0.421163
     16          1           0       -2.658896   -0.857087    0.667528
     17          1           0       -1.128426    3.042664   -0.200152
     18          1           0       -1.484718    1.969790   -1.560778
     19          1           0       -0.015803    2.957276   -1.560658
     20          1           0        0.618721   -0.983695    2.226846
     21          1           0        2.821915   -2.020553   -0.562595
     22          1           0        2.562367   -2.274114    1.057578
     23          1           0       -1.671377    1.928179    1.607535
     24          1           0       -0.986016    1.035938    2.823253
 ---------------------------------------------------------------------

 SCF Done:  E(UB3LYP) =  -783.027767807     A.U. after   31 cycles

 The electronic state is 2-A.
 Alpha  occ. eigenvalues --  -88.75519 -14.21698 -14.20583 -10.12489 -10.09551
 Alpha  occ. eigenvalues --  -10.07376 -10.07018 -10.05146 -10.04599 -10.04572
 Alpha  occ. eigenvalues --   -7.84178  -5.80497  -5.80141  -5.79691  -0.82276
 Alpha  occ. eigenvalues --   -0.80222  -0.73165  -0.64618  -0.64124  -0.60515
 Alpha  occ. eigenvalues --   -0.55529  -0.50460  -0.46273  -0.44546  -0.40549
 Alpha  occ. eigenvalues --   -0.38680  -0.37715  -0.33431  -0.32607  -0.32434
 Alpha  occ. eigenvalues --   -0.31997  -0.31441  -0.27638  -0.26995  -0.26079
 Alpha  occ. eigenvalues --   -0.25715  -0.24055  -0.23249  -0.23228  -0.21902
 Alpha  occ. eigenvalues --   -0.17612  -0.11672  -0.07736   0.04404
 Alpha virt. eigenvalues --    0.06149   0.07692   0.08251   0.08995   0.09926
 Alpha virt. eigenvalues --    0.10330   0.10877   0.11060   0.11494   0.12573
 Alpha virt. eigenvalues --    0.12881   0.13665   0.13832   0.14781   0.15493

  Beta  occ. eigenvalues --  -88.75513 -14.21631 -14.20531 -10.12479 -10.09547
  Beta  occ. eigenvalues --  -10.07374 -10.06978 -10.05125 -10.04586 -10.04561
  Beta  occ. eigenvalues --   -7.84169  -5.80490  -5.80135  -5.79685  -0.82203
  Beta  occ. eigenvalues --   -0.80144  -0.73109  -0.64568  -0.64106  -0.60467
  Beta  occ. eigenvalues --   -0.55461  -0.50419  -0.46207  -0.44474  -0.40478
  Beta  occ. eigenvalues --   -0.38608  -0.37637  -0.33397  -0.32575  -0.32413
  Beta  occ. eigenvalues --   -0.31952  -0.31414  -0.27599  -0.26959  -0.26039
  Beta  occ. eigenvalues --   -0.25682  -0.24030  -0.23229  -0.23214  -0.21863
  Beta  occ. eigenvalues --   -0.17573  -0.11643  -0.07701
  Beta virt. eigenvalues --    0.06888   0.07568   0.08419   0.08454   0.09779
  Beta virt. eigenvalues --    0.10192   0.10477   0.11041   0.11447   0.12029
  Beta virt. eigenvalues --    0.12723   0.13309   0.13849   0.14386   0.14796

 Mulliken charges and spin densities:
               1          2
     1  C   -0.111504  -0.160553
     2  C   -0.340484  -0.206851
     3  C    2.415885  -3.024821
     4  C   -1.773977   1.993680
     5  C    0.148188  -0.427331
     6  C    1.084850  -1.070548
     7  C    0.483631  -0.798822
     8  S   -0.335288   0.319869
     9  N   -0.345708   0.062449
    10  N   -0.516930   0.221958
    11  H   -0.046334   0.171446
    12  H    0.033318   0.116516
    13  H    0.101257  -0.002195
    14  H    0.018908   0.083902
    15  H    0.022277   0.088983
    16  H    0.149925   0.055456
    17  H   -0.418583   0.558791
    18  H    0.018684   0.153273
    19  H   -0.083769   0.212044
    20  H   -0.545906   0.707700
    21  H   -0.205168   0.448894
    22  H   -0.381668   0.643914
    23  H   -0.201195   0.428894
    24  H   -0.170408   0.423352
 Sum of Mulliken charges =  -1.00000   1.00000

 Dipole moment (field-independent basis, Debye):
    X=             -0.6882    Y=              0.9764    Z=             -3.3943  Tot=              3.5984
 Quadrupole moment (field-independent basis, Debye-Ang):
   XX=           -117.3421   YY=           -119.5211   ZZ=           -104.7826
   XY=             13.6555   XZ=             -0.1426   YZ=             -0.1384

 Summary of Natural Population Analysis:

                                       Natural Population
                Natural  -----------------------------------------------
    Atom  No    Charge         Core      Valence    Rydberg      Total
 -----------------------------------------------------------------------
      C    1   -0.28574      0.99968     2.28182    0.00423     3.28574
      C    2   -0.28962      0.99968     2.28591    0.00404     3.28962
      C    3   -0.29648      0.99962     2.28935    0.00751     3.29648
      C    4   -0.14086      0.99943     2.12777    0.01365     3.14086
      C    5    0.05939      0.99938     1.92714    0.01409     2.94061
      C    6   -0.17014      0.99941     2.15799    0.01274     3.17014
      C    7    0.01540      0.99949     1.96905    0.01605     2.98460
      S    8    0.17310      4.99940     2.80843    0.01907     7.82690
      N    9   -0.40178      0.99970     2.88947    0.01261     3.90178
      N   10   -0.39992      0.99972     2.88943    0.01077     3.89992
      H   11    0.08766      0.00000     0.41134    0.00101     0.41234
      H   12    0.10309      0.00000     0.39516    0.00175     0.39691
      H   13    0.09445      0.00000     0.40418    0.00137     0.40555
      H   14    0.08736      0.00000     0.41154    0.00110     0.41264
      H   15    0.09088      0.00000     0.40800    0.00112     0.40912
      H   16    0.10926      0.00000     0.38873    0.00200     0.39074
      H   17    0.10535      0.00000     0.39280    0.00185     0.39465
      H   18    0.10034      0.00000     0.39827    0.00139     0.39966
      H   19    0.10216      0.00000     0.39685    0.00099     0.39784
      H   20    0.10689      0.00000     0.39154    0.00157     0.39311
      H   21    0.18668      0.00000     0.31021    0.00311     0.31332
      H   22    0.19175      0.00000     0.30105    0.00720     0.30825
      H   23    0.18590      0.00000     0.31051    0.00359     0.31410
      H   24    0.18487      0.00000     0.31212    0.00301     0.31513
 =======================================================================
   * Total *    0.00000     13.99550    28.85866    0.14584    43.00000

 Normal termination of Gaussian 16 at Tue Dec  8 13:40:45 2020.
