 Gaussian 16, Revision A.03,

 -----------------------------------------------------------
 # opt freq B3LYP/6-31G(d) empiricaldispersion=gd3bj scf=xqc
 -----------------------------------------------------------

 ------------------------------
 CID_14220961_JID_4928_neutraal
 ------------------------------
 Symbolic Z-matrix:
 Charge =  0 Multiplicity = 1

 SCF Done:  E(RB3LYP) =  -955.204370368     A.U. after   14 cycles
 SCF Done:  E(RB3LYP) =  -955.207578502     A.U. after   13 cycles
 SCF Done:  E(RB3LYP) =  -955.207446924     A.U. after   13 cycles
 SCF Done:  E(RB3LYP) =  -955.208184054     A.U. after   13 cycles
 SCF Done:  E(RB3LYP) =  -955.208618158     A.U. after   12 cycles
 SCF Done:  E(RB3LYP) =  -955.208824390     A.U. after   12 cycles
 SCF Done:  E(RB3LYP) =  -955.208954564     A.U. after   12 cycles
 SCF Done:  E(RB3LYP) =  -955.209006373     A.U. after   11 cycles
 SCF Done:  E(RB3LYP) =  -955.209023171     A.U. after   10 cycles
 SCF Done:  E(RB3LYP) =  -955.209032465     A.U. after   10 cycles
 SCF Done:  E(RB3LYP) =  -955.211162647     A.U. after   12 cycles
 SCF Done:  E(RB3LYP) =  -955.211183560     A.U. after   11 cycles
 SCF Done:  E(RB3LYP) =  -955.211186011     A.U. after   10 cycles
 SCF Done:  E(RB3LYP) =  -955.211186568     A.U. after    8 cycles
 SCF Done:  E(RB3LYP) =  -955.211186686     A.U. after    8 cycles
 Optimization completed.
    -- Stationary point found.
 Normal termination of Gaussian 16 at Thu Dec 10 11:10:14 2020.

 --------------------------------------------------------------------
 #N Geom=AllCheck Guess=TCheck SCRF=Check GenChk RB3LYP/6-31G(d) Freq
 --------------------------------------------------------------------

 Structure from the checkpoint file:  "JID_4928.chk"
 ------------------------------
 CID_14220961_JID_4928_neutraal
 ------------------------------
 Charge =  0 Multiplicity = 1

 SCF Done:  E(RB3LYP) =  -955.211186686     A.U. after    1 cycles

  Exact polarizability: 149.835 -26.585 132.332  -5.809  -0.387 115.629
 Approx polarizability: 196.059 -55.235 217.790 -10.179  -0.871 201.705

                      1                      2                      3
                      A                      A                      A
 Frequencies --     27.6360                40.8556                47.9151
 Red. masses --      4.3348                 4.0454                 5.1008
 Frc consts  --      0.0020                 0.0040                 0.0069
 IR Inten    --      0.7825                 0.4560                 0.1038

                      4                      5                      6
                      A                      A                      A
 Frequencies --     54.1283               126.5286               144.4176
 Red. masses --      3.7047                 3.3155                 1.1983
 Frc consts  --      0.0064                 0.0313                 0.0147
 IR Inten    --      0.1922                 0.2303                 0.5826

                      7                      8                      9
                      A                      A                      A
 Frequencies --    195.8492               205.5904               256.4240
 Red. masses --      2.9475                 4.0256                 2.9377
 Frc consts  --      0.0666                 0.1003                 0.1138
 IR Inten    --      0.1035                 2.1501                 7.2013

                     10                     11                     12
                      A                      A                      A
 Frequencies --    290.3407               317.5531               390.4298
 Red. masses --      5.8268                 3.6813                 4.4638
 Frc consts  --      0.2894                 0.2187                 0.4009
 IR Inten    --      1.1650                 2.2242                 2.5663

                     13                     14                     15
                      A                      A                      A
 Frequencies --    413.7301               416.2189               421.8901
 Red. masses --      4.6624                 2.2021                 3.7346
 Frc consts  --      0.4702                 0.2248                 0.3916
 IR Inten    --      0.3808                 0.2269                 0.4855

                     16                     17                     18
                      A                      A                      A
 Frequencies --    504.3755               595.6647               632.4452
 Red. masses --      3.3115                 3.5184                 6.4256
 Frc consts  --      0.4963                 0.7355                 1.5143
 IR Inten    --      7.7096                 5.2585                 0.0223

                     19                     20                     21
                      A                      A                      A
 Frequencies --    670.5151               708.4745               712.5813
 Red. masses --      4.5988                 2.2754                 6.1327
 Frc consts  --      1.2182                 0.6729                 1.8347
 IR Inten    --      2.1146                19.1646                 2.1276

                     22                     23                     24
                      A                      A                      A
 Frequencies --    731.7482               749.5010               764.5095
 Red. masses --      4.8786                 3.6828                 1.7372
 Frc consts  --      1.5391                 1.2189                 0.5982
 IR Inten    --      2.5425                32.7058                18.6635

                     25                     26                     27
                      A                      A                      A
 Frequencies --    850.2973               858.6755               894.6829
 Red. masses --      2.7801                 1.2582                 1.6952
 Frc consts  --      1.1843                 0.5466                 0.7995
 IR Inten    --      7.9340                 0.5747                 6.8094

                     28                     29                     30
                      A                      A                      A
 Frequencies --    929.8582               950.2508               973.1633
 Red. masses --      1.3558                 3.4001                 1.3551
 Frc consts  --      0.6907                 1.8089                 0.7561
 IR Inten    --      1.4238                24.2191                 0.2540

                     31                     32                     33
                      A                      A                      A
 Frequencies --    979.6392              1000.9190              1002.8397
 Red. masses --      2.7117                 1.2693                 7.0213
 Frc consts  --      1.5333                 0.7492                 4.1604
 IR Inten    --     10.1353                 0.4051               137.1369

                     34                     35                     36
                      A                      A                      A
 Frequencies --   1021.0134              1050.3845              1054.1748
 Red. masses --      6.3908                 1.8662                 2.8704
 Frc consts  --      3.9253                 1.2131                 1.8794
 IR Inten    --      2.9063                13.1652                 2.6375

                     37                     38                     39
                      A                      A                      A
 Frequencies --   1081.7211              1098.2058              1107.2201
 Red. masses --      1.5823                 2.6272                 1.6032
 Frc consts  --      1.0909                 1.8668                 1.1580
 IR Inten    --      3.8352                 2.5148                 2.8553

                     40                     41                     42
                      A                      A                      A
 Frequencies --   1113.9327              1118.0235              1188.5543
 Red. masses --      2.4566                 2.6843                 1.1836
 Frc consts  --      1.7960                 1.9769                 0.9852
 IR Inten    --      7.7124                 1.5032                 5.1809

                     43                     44                     45
                      A                      A                      A
 Frequencies --   1194.8563              1211.8567              1260.1378
 Red. masses --      1.0978                 1.1376                 1.7232
 Frc consts  --      0.9234                 0.9843                 1.6122
 IR Inten    --      0.0143                 0.4904                65.4404

                     46                     47                     48
                      A                      A                      A
 Frequencies --   1265.9701              1282.1832              1331.5855
 Red. masses --      1.4182                 1.2757                 2.3725
 Frc consts  --      1.3392                 1.2357                 2.4785
 IR Inten    --     45.4090                13.0442                 0.6620

                     49                     50                     51
                      A                      A                      A
 Frequencies --   1352.0964              1358.5471              1368.5301
 Red. masses --      1.2872                 2.1090                 1.5787
 Frc consts  --      1.3865                 2.2934                 1.7421
 IR Inten    --      4.4863                 1.5920                41.1123

                     52                     53                     54
                      A                      A                      A
 Frequencies --   1409.0206              1442.4879              1487.4865
 Red. masses --      1.3814                 1.4881                 1.9552
 Frc consts  --      1.6158                 1.8244                 2.5488
 IR Inten    --      0.7486                27.8875                 3.3239

                     55                     56                     57
                      A                      A                      A
 Frequencies --   1492.7036              1504.9048              1507.8103
 Red. masses --      1.1469                 1.0442                 1.0629
 Frc consts  --      1.5056                 1.3934                 1.4238
 IR Inten    --      9.1926                 8.0822                 9.5146

                     58                     59                     60
                      A                      A                      A
 Frequencies --   1528.1508              1531.0061              1637.0400
 Red. masses --      2.0584                 1.0995                 5.5110
 Frc consts  --      2.8321                 1.5185                 8.7017
 IR Inten    --     13.0704                 4.6454                 1.3243

                     61                     62                     63
                      A                      A                      A
 Frequencies --   1646.5463              1762.1690              3065.5790
 Red. masses --      5.4438                 8.8168                 1.0381
 Frc consts  --      8.6956                16.1309                 5.7477
 IR Inten    --      3.8065               109.8205                11.3682

                     64                     65                     66
                      A                      A                      A
 Frequencies --   3073.0922              3077.8702              3085.1302
 Red. masses --      1.0632                 1.0609                 1.0824
 Frc consts  --      5.9158                 5.9215                 6.0701
 IR Inten    --     18.1664                13.6883                18.6471

                     67                     68                     69
                      A                      A                      A
 Frequencies --   3113.9835              3121.4356              3131.4564
 Red. masses --      1.1061                 1.1006                 1.1065
 Frc consts  --      6.3192                 6.3183                 6.3928
 IR Inten    --     18.6731                 8.9435                10.6921

                     70                     71                     72
                      A                      A                      A
 Frequencies --   3179.2955              3187.2910              3194.7645
 Red. masses --      1.1013                 1.0851                 1.0880
 Frc consts  --      6.5589                 6.4947                 6.5428
 IR Inten    --      5.9292                 0.7288                 4.5470

                     73                     74                     75
                      A                      A                      A
 Frequencies --   3204.7311              3211.0362              3217.3231
 Red. masses --      1.0918                 1.0943                 1.0978
 Frc consts  --      6.6064                 6.6479                 6.6949
 IR Inten    --     14.6980                20.8368                11.6656

 - Thermochemistry -
 -------------------
 Temperature   298.150 Kelvin.  Pressure   1.00000 Atm.
 Atom     1 has atomic number  6 and mass  12.00000

 Molecular mass:   207.07179 amu.
 Principal axes and moments of inertia in atomic units:
                           1         2         3
     Eigenvalues --  1644.472224948.188465815.57996
           X            0.99996  -0.00867  -0.00383
           Y            0.00869   0.99995   0.00480
           Z            0.00379  -0.00484   0.99998
 This molecule is an asymmetric top.
 Rotational symmetry number  1.
 Warning -- assumption of classical behavior for rotation
           may cause significant error
 Rotational temperatures (Kelvin)      0.05267     0.01750     0.01489
 Rotational constants (GHZ):           1.09746     0.36473     0.31033
 Zero-point vibrational energy     580972.1 (Joules/Mol)
                                  138.85567 (Kcal/Mol)
 Warning -- explicit consideration of  17 degrees of freedom as
           vibrations may cause significant error
 Vibrational temperatures:     39.76    58.78    68.94    77.88   182.05
          (Kelvin)            207.78   281.78   295.80   368.94   417.74
                              456.89   561.74   595.27   598.85   607.01
                              725.68   857.03   909.95   964.72  1019.34
                             1025.25  1052.82  1078.36  1099.96  1223.39
                             1235.44  1287.25  1337.86  1367.20  1400.16
                             1409.48  1440.10  1442.86  1469.01  1511.27
                             1516.72  1556.36  1580.07  1593.04  1602.70
                             1608.59  1710.06  1719.13  1743.59  1813.06
                             1821.45  1844.78  1915.85  1945.37  1954.65
                             1969.01  2027.27  2075.42  2140.16  2147.67
                             2165.22  2169.40  2198.67  2202.78  2355.34
                             2369.01  2535.37  4410.68  4421.49  4428.37
                             4438.81  4480.33  4491.05  4505.47  4574.30
                             4585.80  4596.55  4610.89  4619.96  4629.01

 Zero-point correction=                           0.221281 (Hartree/Particle)
 Thermal correction to Energy=                    0.234452
 Thermal correction to Enthalpy=                  0.235396
 Thermal correction to Gibbs Free Energy=         0.179172
 Sum of electronic and zero-point Energies=           -954.989906
 Sum of electronic and thermal Energies=              -954.976734
 Sum of electronic and thermal Enthalpies=            -954.975790
 Sum of electronic and thermal Free Energies=         -955.032014

                     E (Thermal)             CV                S
                      KCal/Mol        Cal/Mol-Kelvin    Cal/Mol-Kelvin
 Total                  147.121             49.070            118.334
 Electronic               0.000              0.000              0.000
 Translational            0.889              2.981             41.888
 Rotational               0.889              2.981             32.226
 Vibrational            145.344             43.109             44.220
 Vibration     1          0.593              1.984              5.992
 Vibration     2          0.594              1.981              5.217
 Vibration     3          0.595              1.978              4.902
 Vibration     4          0.596              1.976              4.661
 Vibration     5          0.611              1.927              2.998
 Vibration     6          0.616              1.909              2.745
 Vibration     7          0.636              1.846              2.172
 Vibration     8          0.640              1.832              2.082
 Vibration     9          0.666              1.752              1.686
 Vibration    10          0.686              1.692              1.472
 Vibration    11          0.704              1.640              1.323
 Vibration    12          0.758              1.491              0.998
 Vibration    13          0.777              1.440              0.914
 Vibration    14          0.779              1.435              0.905
 Vibration    15          0.784              1.423              0.886
 Vibration    16          0.860              1.240              0.647
 Vibration    17          0.953              1.041              0.457

 Optimization completed.
    -- Stationary point found.
 Normal termination of Gaussian 16 at Thu Dec 10 11:17:30 2020.

 ----------------------------------------------------------------------
 # B3LYP/6-311++G(d,p) empiricaldispersion=gd3bj scf=xqc pop=npa geom=c
 heck
 ----------------------------------------------------------------------

 --------------------------------------
 CID_14220961_JID_4928_Energie_neutraal
 --------------------------------------
 Structure from the checkpoint file:  "JID_4928.chk"
 Charge =  0 Multiplicity = 1

 SCF Done:  E(RB3LYP) =  -955.387671968     A.U. after   15 cycles
 Normal termination of Gaussian 16 at Thu Dec 10 11:20:44 2020.

 ----------------------------------------------------------------------
 # B3LYP/6-311++G(d,p) empiricaldispersion=gd3bj scf=xqc pop=npa geom=c
 heck
 ----------------------------------------------------------------------

 ------------------------------------
 CID_14220961_JID_4928_Energie_kation
 ------------------------------------
 Structure from the checkpoint file:  "JID_4928.chk"
 Charge =  1 Multiplicity = 2

 SCF Done:  E(UB3LYP) =  -955.086511035     A.U. after   25 cycles
 Normal termination of Gaussian 16 at Thu Dec 10 11:28:19 2020.
 Gaussian 16:  ES64L-G16RevA.03 25-Dec-2016

 ----------------------------------------------------------------------
 # B3LYP/6-311++G(d,p) empiricaldispersion=gd3bj scf=xqc pop=npa geom=c
 heck
 ----------------------------------------------------------------------

 -----------------------------------
 CID_14220961_JID_4928_Energie_anion
 -----------------------------------
 Structure from the checkpoint file:  "JID_4928.chk"
 Charge = -1 Multiplicity = 2

                         Standard orientation:
 ---------------------------------------------------------------------
 Center     Atomic      Atomic             Coordinates (Angstroms)
 Number     Number       Type             X           Y           Z
 ---------------------------------------------------------------------
      1          6           0       -4.586939   -0.987397    0.372652
      2          6           0       -3.161153   -0.726467    0.022251
      3          7           0       -2.243365   -1.594449   -0.126883
      4          6           0       -1.014052   -0.855228   -0.444936
      5          6           0       -1.434430    0.641581   -0.500051
      6          8           0       -2.845759    0.596958   -0.148070
      7          6           0       -0.734328    1.573070    0.483134
      8         16           0        0.918750    2.143075   -0.083661
      9          6           0        1.869078    0.624830    0.007759
     10          6           0        2.285759   -0.004453   -1.170121
     11          6           0        3.026057   -1.185990   -1.106960
     12          6           0        3.343320   -1.748847    0.129218
     13          6           0        2.934708   -1.117729    1.306588
     14          6           0        2.211071    0.072139    1.248478
     15          1           0       -4.849788   -0.469822    1.301737
     16          1           0       -4.743414   -2.059822    0.493330
     17          1           0       -5.246998   -0.604704   -0.413423
     18          1           0       -0.593936   -1.203561   -1.393565
     19          1           0       -0.261274   -1.045672    0.326424
     20          1           0       -1.365550    1.058336   -1.509645
     21          1           0       -1.318687    2.491789    0.592447
     22          1           0       -0.652687    1.106289    1.470051
     23          1           0        2.019343    0.429381   -2.128723
     24          1           0        3.344325   -1.671603   -2.025066
     25          1           0        3.910279   -2.673959    0.176922
     26          1           0        3.188102   -1.547862    2.271396
     27          1           0        1.905367    0.574428    2.161354
 ---------------------------------------------------------------------

 SCF Done:  E(UB3LYP) =  -955.375318260     A.U. after   33 cycles
 SCF Done:  E(UB3LYP) =  -955.375318260     a.u. after    1 cycles

 The electronic state is 2-A.
 Alpha  occ. eigenvalues --  -88.73222 -19.04999 -14.18793 -10.15563 -10.12815
 Alpha  occ. eigenvalues --  -10.09006 -10.08986 -10.07902 -10.07248 -10.06706
 Alpha  occ. eigenvalues --  -10.06560 -10.06340 -10.06097 -10.05597  -7.81769
 Alpha  occ. eigenvalues --   -5.78162  -5.77804  -5.77159  -0.98108  -0.79846
 Alpha  occ. eigenvalues --   -0.75147  -0.70852  -0.66979  -0.63869  -0.63398
 Alpha  occ. eigenvalues --   -0.59277  -0.55019  -0.50648  -0.49734  -0.46956
 Alpha  occ. eigenvalues --   -0.45138  -0.40923  -0.39560  -0.37931  -0.35528
 Alpha  occ. eigenvalues --   -0.34643  -0.34312  -0.33042  -0.31673  -0.31369
 Alpha  occ. eigenvalues --   -0.30736  -0.29542  -0.28995  -0.28337  -0.26754
 Alpha  occ. eigenvalues --   -0.24900  -0.24553  -0.24099  -0.23761  -0.21060
 Alpha  occ. eigenvalues --   -0.17247  -0.15513  -0.15118  -0.14470  -0.11880
 Alpha  occ. eigenvalues --    0.04930
 Alpha virt. eigenvalues --    0.06550   0.07254   0.08208   0.08677   0.08999
 Alpha virt. eigenvalues --    0.09331   0.09648   0.10346   0.10805   0.10983
 Alpha virt. eigenvalues --    0.12098   0.12466   0.12950   0.13246   0.13714

  Beta  occ. eigenvalues --  -88.73219 -19.04980 -14.18789 -10.15560 -10.12808
  Beta  occ. eigenvalues --  -10.09006 -10.08881 -10.07695 -10.07200 -10.06742
  Beta  occ. eigenvalues --  -10.06551 -10.06297 -10.05990 -10.05369  -7.81765
  Beta  occ. eigenvalues --   -5.78151  -5.77805  -5.77155  -0.98082  -0.79833
  Beta  occ. eigenvalues --   -0.74878  -0.70731  -0.66784  -0.63686  -0.63154
  Beta  occ. eigenvalues --   -0.59152  -0.54887  -0.50473  -0.49667  -0.46715
  Beta  occ. eigenvalues --   -0.45092  -0.40823  -0.39489  -0.37861  -0.35478
  Beta  occ. eigenvalues --   -0.34487  -0.34178  -0.32974  -0.31621  -0.31301
  Beta  occ. eigenvalues --   -0.30572  -0.29463  -0.28944  -0.28241  -0.26292
  Beta  occ. eigenvalues --   -0.24803  -0.24420  -0.23987  -0.23593  -0.20819
  Beta  occ. eigenvalues --   -0.17231  -0.15007  -0.14555  -0.14166  -0.11540
  Beta virt. eigenvalues --    0.07067   0.07518   0.08224   0.08574   0.09102
  Beta virt. eigenvalues --    0.09151   0.09793   0.09959   0.10573   0.10943
  Beta virt. eigenvalues --    0.11318   0.12190   0.12594   0.12906   0.13392

 Mulliken charges and spin densities:
               1          2
     1  C    2.259870  -2.762379
     2  C   -1.168692   1.287490
     3  N   -0.063663   0.044657
     4  C   -0.625337   0.036099
     5  C   -0.663779   0.304999
     6  O   -0.042579   0.035359
     7  C    0.247455  -0.586080
     8  S    0.115806  -0.209276
     9  C    0.955151   0.175407
    10  C   -0.612579   0.104556
    11  C   -0.363498   0.058847
    12  C   -0.044295  -0.073345
    13  C   -0.283272  -0.053941
    14  C   -0.436551   0.093590
    15  H   -0.480688   0.652284
    16  H   -0.082202   0.241813
    17  H   -0.461372   0.627622
    18  H    0.164744   0.010077
    19  H    0.289791  -0.017846
    20  H    0.065668   0.125263
    21  H   -0.155539   0.400118
    22  H    0.100603   0.086715
    23  H    0.121409   0.036404
    24  H    0.053469   0.083852
    25  H    0.084084   0.022210
    26  H    0.040210   0.107839
    27  H   -0.014212   0.167665
 Sum of Mulliken charges =  -1.00000   1.00000

 Dipole moment (field-independent basis, Debye):
    X=              5.3369    Y=             -0.3491    Z=             -1.6370  Tot=              5.5933
 Quadrupole moment (field-independent basis, Debye-Ang):
   XX=           -174.7821   YY=           -125.5862   ZZ=           -109.4684
   XY=             -5.2452   XZ=              3.9360   YZ=             -0.9995

 Summary of Natural Population Analysis:

                                       Natural Population
                Natural  -----------------------------------------------
    Atom  No    Charge         Core      Valence    Rydberg      Total
 -----------------------------------------------------------------------
      C    1   -0.31163      0.99961     2.30605    0.00597     3.31163
      C    2    0.28857      0.99959     1.69193    0.01992     2.71143
      N    3   -0.26636      0.99966     2.75686    0.00983     3.76636
      C    4   -0.11483      0.99961     2.10363    0.01159     3.11483
      C    5    0.04798      0.99954     1.93870    0.01379     2.95202
      O    6   -0.28602      0.99987     3.27654    0.00961     4.28602
      C    7   -0.24466      0.99955     2.23282    0.01229     3.24466
      S    8    0.09793      4.99956     2.88345    0.01907     7.90207
      C    9   -0.06392      0.99939     2.05252    0.01200     3.06392
      C   10   -0.10428      0.99949     2.09453    0.01027     3.10428
      C   11   -0.10014      0.99957     2.09044    0.01013     3.10014
      C   12   -0.06704      0.99957     2.05716    0.01031     3.06704
      C   13   -0.11131      0.99957     2.10208    0.00966     3.11131
      C   14   -0.08998      0.99949     2.07949    0.01100     3.08998
      H   15    0.11264      0.00000     0.38525    0.00211     0.38736
      H   16    0.11113      0.00000     0.38750    0.00137     0.38887
      H   17    0.11093      0.00000     0.38728    0.00180     0.38907
      H   18    0.09865      0.00000     0.40012    0.00123     0.40135
      H   19    0.10402      0.00000     0.39382    0.00215     0.39598
      H   20    0.09019      0.00000     0.40830    0.00152     0.40981
      H   21    0.11116      0.00000     0.38717    0.00167     0.38884
      H   22    0.10087      0.00000     0.39754    0.00159     0.39913
      H   23    0.10079      0.00000     0.39809    0.00111     0.39921
      H   24    0.09522      0.00000     0.40384    0.00095     0.40478
      H   25    0.09310      0.00000     0.40607    0.00082     0.40690
      H   26    0.09668      0.00000     0.40246    0.00086     0.40332
      H   27    0.10030      0.00000     0.39862    0.00107     0.39970
 =======================================================================
   * Total *   -0.00000     17.99407    36.82223    0.18370    55.00000

 Normal termination of Gaussian 16 at Thu Dec 10 11:39:03 2020.
