 Gaussian 16, Revision A.03,

 -----------------------------------------------------------
 # opt freq B3LYP/6-31G(d) empiricaldispersion=gd3bj scf=xqc
 -----------------------------------------------------------

 ------------------------------
 CID_59830298_JID_3054_neutraal
 ------------------------------
 Symbolic Z-matrix:
 Charge =  0 Multiplicity = 1

 SCF Done:  E(RB3LYP) =  -623.780720587     A.U. after   15 cycles
 SCF Done:  E(RB3LYP) =  -623.786119040     A.U. after   13 cycles
 SCF Done:  E(RB3LYP) =  -623.787451851     A.U. after   12 cycles
 SCF Done:  E(RB3LYP) =  -623.787608923     A.U. after   11 cycles
 SCF Done:  E(RB3LYP) =  -623.787637506     A.U. after   10 cycles
 SCF Done:  E(RB3LYP) =  -623.787648585     A.U. after   10 cycles
 SCF Done:  E(RB3LYP) =  -623.787654798     A.U. after    9 cycles
 SCF Done:  E(RB3LYP) =  -623.787656612     A.U. after    9 cycles
 SCF Done:  E(RB3LYP) =  -623.787656924     A.U. after    7 cycles
 Optimization completed.
    -- Stationary point found.
 Normal termination of Gaussian 16 at Wed Dec  9 22:18:55 2020.

 --------------------------------------------------------------------
 #N Geom=AllCheck Guess=TCheck SCRF=Check GenChk RB3LYP/6-31G(d) Freq
 --------------------------------------------------------------------

 Structure from the checkpoint file:  "JID_3054.chk"
 ------------------------------
 CID_59830298_JID_3054_neutraal
 ------------------------------
 Charge =  0 Multiplicity = 1

 SCF Done:  E(RB3LYP) =  -623.787656924     A.U. after    1 cycles

  Exact polarizability: 166.208   1.665 106.621   0.001   0.002  45.565
 Approx polarizability: 241.289  16.344 189.418   0.004   0.007  70.451

                      1                      2                      3
                      A                      A                      A
 Frequencies --     61.6417                86.0783               112.4987
 Red. masses --      5.3528                 3.7081                 5.6883
 Frc consts  --      0.0120                 0.0162                 0.0424
 IR Inten    --      3.7153                 0.0249                 2.4184

                      4                      5                      6
                      A                      A                      A
 Frequencies --    138.9231               167.6519               239.6163
 Red. masses --      5.5516                 1.1213                 4.6319
 Frc consts  --      0.0631                 0.0186                 0.1567
 IR Inten    --      0.8272                 0.1156                 7.1998

                      7                      8                      9
                      A                      A                      A
 Frequencies --    250.2699               289.8004               319.7344
 Red. masses --      3.6372                 7.3165                 7.2092
 Frc consts  --      0.1342                 0.3620                 0.4342
 IR Inten    --      5.4622                 2.5111                 0.4788

                     10                     11                     12
                      A                      A                      A
 Frequencies --    424.7174               476.9406               513.6110
 Red. masses --      6.5670                 2.8616                 6.2275
 Frc consts  --      0.6979                 0.3835                 0.9679
 IR Inten    --      1.9409                 3.8173                 2.2098

                     13                     14                     15
                      A                      A                      A
 Frequencies --    628.7296               637.6066               660.1688
 Red. masses --      3.5412                 5.3710                 4.7323
 Frc consts  --      0.8248                 1.2865                 1.2152
 IR Inten    --     10.4693                 3.1143                 8.9047

                     16                     17                     18
                      A                      A                      A
 Frequencies --    735.4837               757.0323               787.3731
 Red. masses --      2.8963                 8.4669                 2.3753
 Frc consts  --      0.9231                 2.8589                 0.8676
 IR Inten    --      0.2996                17.9346                19.8513

                     19                     20                     21
                      A                      A                      A
 Frequencies --    808.1413               839.2812               886.0880
 Red. masses --      2.5685                 1.5083                 6.4473
 Frc consts  --      0.9883                 0.6260                 2.9825
 IR Inten    --      0.4111                24.2895                48.2107

                     22                     23                     24
                      A                      A                      A
 Frequencies --    902.8538               933.0135               980.9310
 Red. masses --      1.6286                 5.5264                 5.4453
 Frc consts  --      0.7822                 2.8345                 3.0871
 IR Inten    --     20.5778                22.4791                26.0397

                     25                     26                     27
                      A                      A                      A
 Frequencies --    986.4720              1007.5781              1069.5104
 Red. masses --      1.4338                 9.8733                 3.7060
 Frc consts  --      0.8221                 5.9057                 2.4976
 IR Inten    --      0.7110                16.5610                87.5125

                     28                     29                     30
                      A                      A                      A
 Frequencies --   1089.3388              1114.9380              1137.1721
 Red. masses --      2.2215                 3.7919                 5.8477
 Frc consts  --      1.5532                 2.7772                 4.4554
 IR Inten    --     17.5367               104.4990                30.2159

                     31                     32                     33
                      A                      A                      A
 Frequencies --   1184.2232              1205.1543              1235.5318
 Red. masses --      1.2663                 1.4992                 1.3971
 Frc consts  --      1.0463                 1.2829                 1.2566
 IR Inten    --      0.6250                 5.9819                 7.7147

                     34                     35                     36
                      A                      A                      A
 Frequencies --   1255.8136              1308.8381              1332.1197
 Red. masses --      2.4505                 6.2385                 3.4199
 Frc consts  --      2.2770                 6.2965                 3.5756
 IR Inten    --     48.3360                12.8626                13.4331

                     37                     38                     39
                      A                      A                      A
 Frequencies --   1352.3656              1383.0210              1428.5816
 Red. masses --      2.5439                 2.0002                 3.1101
 Frc consts  --      2.7412                 2.2542                 3.7397
 IR Inten    --     25.2752                13.9213               273.9078

                     40                     41                     42
                      A                      A                      A
 Frequencies --   1493.9297              1510.6348              1523.9690
 Red. masses --      1.7170                 1.0486                 1.1084
 Frc consts  --      2.2578                 1.4099                 1.5167
 IR Inten    --      4.0538                 5.5573                12.6336

                     43                     44                     45
                      A                      A                      A
 Frequencies --   1525.7257              1571.6731              1593.3310
 Red. masses --      1.9731                 6.0701                 6.8702
 Frc consts  --      2.7061                 8.8343                10.2762
 IR Inten    --     57.6714                84.5150                88.3907

                     46                     47                     48
                      A                      A                      A
 Frequencies --   1630.9295              1662.2630              3072.5786
 Red. masses --      7.5080                 7.5033                 1.0294
 Frc consts  --     11.7665                12.2152                 5.7259
 IR Inten    --    179.2044               390.8110                44.5213

                     49                     50                     51
                      A                      A                      A
 Frequencies --   3146.3382              3178.1523              3185.1960
 Red. masses --      1.1074                 1.1070                 1.0909
 Frc consts  --      6.4588                 6.5880                 6.5211
 IR Inten    --     22.6047                25.3518                32.3792

                     52                     53                     54
                      A                      A                      A
 Frequencies --   3256.4091              3302.3477              3338.4419
 Red. masses --      1.0930                 1.0989                 1.1006
 Frc consts  --      6.8286                 7.0611                 7.2269
 IR Inten    --      0.3434                 0.4425                 4.2875

 - Thermochemistry -
 -------------------
 Temperature   298.150 Kelvin.  Pressure   1.00000 Atm.
 Atom     1 has atomic number  6 and mass  12.00000

 Molecular mass:   177.05383 amu.
 Principal axes and moments of inertia in atomic units:
                           1         2         3
     Eigenvalues --   737.094464293.233605018.95128
           X            0.99999   0.00325  -0.00000
           Y           -0.00325   0.99999  -0.00000
           Z            0.00000   0.00000   1.00000
 This molecule is an asymmetric top.
 Rotational symmetry number  1.
 Warning -- assumption of classical behavior for rotation
           may cause significant error
 Rotational temperatures (Kelvin)      0.11751     0.02017     0.01726
 Rotational constants (GHZ):           2.44845     0.42037     0.35959
 Zero-point vibrational energy     393097.5 (Joules/Mol)
                                   93.95255 (Kcal/Mol)
 Warning -- explicit consideration of  12 degrees of freedom as
           vibrations may cause significant error
 Vibrational temperatures:     88.69   123.85   161.86   199.88   241.21
          (Kelvin)            344.75   360.08   416.96   460.03   611.07
                              686.21   738.97   904.60   917.37   949.84
                             1058.20  1089.20  1132.85  1162.74  1207.54
                             1274.88  1299.01  1342.40  1411.34  1419.31
                             1449.68  1538.79  1567.32  1604.15  1636.14
                             1703.83  1733.95  1777.65  1806.84  1883.13
                             1916.62  1945.75  1989.86  2055.41  2149.43
                             2173.47  2192.65  2195.18  2261.29  2292.45
                             2346.54  2391.63  4420.76  4526.88  4572.65
                             4582.79  4685.25  4751.34  4803.27

 Zero-point correction=                           0.149723 (Hartree/Particle)
 Thermal correction to Energy=                    0.160014
 Thermal correction to Enthalpy=                  0.160958
 Thermal correction to Gibbs Free Energy=         0.112828
 Sum of electronic and zero-point Energies=           -623.637934
 Sum of electronic and thermal Energies=              -623.627643
 Sum of electronic and thermal Enthalpies=            -623.626699
 Sum of electronic and thermal Free Energies=         -623.674828

                     E (Thermal)             CV                S
                      KCal/Mol        Cal/Mol-Kelvin    Cal/Mol-Kelvin
 Total                  100.410             38.267            101.297
 Electronic               0.000              0.000              0.000
 Translational            0.889              2.981             41.421
 Rotational               0.889              2.981             31.141
 Vibrational             98.633             32.305             28.735
 Vibration     1          0.597              1.973              4.404
 Vibration     2          0.601              1.959              3.747
 Vibration     3          0.607              1.939              3.225
 Vibration     4          0.615              1.914              2.819
 Vibration     5          0.624              1.882              2.462
 Vibration     6          0.657              1.780              1.806
 Vibration     7          0.663              1.762              1.729
 Vibration     8          0.686              1.693              1.475
 Vibration     9          0.706              1.636              1.311
 Vibration    10          0.787              1.416              0.876
 Vibration    11          0.834              1.301              0.718
 Vibration    12          0.869              1.220              0.625

                           ! Non-Optimized Parameters !
 Normal termination of Gaussian 16 at Wed Dec  9 22:22:42 2020.

 ----------------------------------------------------------------------
 # B3LYP/6-311++G(d,p) empiricaldispersion=gd3bj scf=xqc pop=npa geom=c
 heck
 ----------------------------------------------------------------------

 --------------------------------------
 CID_59830298_JID_3054_Energie_neutraal
 --------------------------------------
 Structure from the checkpoint file:  "JID_3054.chk"
 Charge =  0 Multiplicity = 1

 SCF Done:  E(RB3LYP) =  -623.954766386     A.U. after   15 cycles
 Normal termination of Gaussian 16 at Wed Dec  9 22:24:01 2020.

 ----------------------------------------------------------------------
 # B3LYP/6-311++G(d,p) empiricaldispersion=gd3bj scf=xqc pop=npa geom=c
 heck
 ----------------------------------------------------------------------

 ------------------------------------
 CID_59830298_JID_3054_Energie_kation
 ------------------------------------
 Structure from the checkpoint file:  "JID_3054.chk"
 Charge =  1 Multiplicity = 2

 SCF Done:  E(UB3LYP) =  -623.633344543     A.U. after   24 cycles
 Normal termination of Gaussian 16 at Wed Dec  9 22:26:42 2020.
 Gaussian 16:  ES64L-G16RevA.03 25-Dec-2016

 ----------------------------------------------------------------------
 # B3LYP/6-311++G(d,p) empiricaldispersion=gd3bj scf=xqc pop=npa geom=c
 heck
 ----------------------------------------------------------------------

 -----------------------------------
 CID_59830298_JID_3054_Energie_anion
 -----------------------------------
 Structure from the checkpoint file:  "JID_3054.chk"
 Charge = -1 Multiplicity = 2

                         Standard orientation:
 ---------------------------------------------------------------------
 Center     Atomic      Atomic             Coordinates (Angstroms)
 Number     Number       Type             X           Y           Z
 ---------------------------------------------------------------------
      1          6           0       -4.288782   -0.781935    0.000389
      2          8           0       -2.925685   -1.226113   -0.000249
      3          6           0       -1.975385   -0.279358   -0.000300
      4          7           0       -2.323250    1.006999   -0.000126
      5          6           0       -1.307051    1.883534    0.000084
      6          7           0       -0.008687    1.617182    0.000233
      7          6           0        0.320236    0.299976   -0.000031
      8          6           0       -0.637838   -0.703497   -0.000428
      9          6           0        1.746745   -0.009908    0.000073
     10          6           0        2.797935    0.857442   -0.000081
     11          8           0        3.950227    0.121914   -0.000174
     12          6           0        3.526512   -1.172775    0.000214
     13          7           0        2.242662   -1.316509    0.000324
     14          1           0       -4.884834   -1.695166    0.000819
     15          1           0       -4.502927   -0.182601   -0.888568
     16          1           0       -4.501948   -0.182275    0.889370
     17          1           0       -1.588407    2.934898    0.000046
     18          1           0       -0.369967   -1.752002   -0.000903
     19          1           0        2.889935    1.930008   -0.000207
     20          1           0        4.292507   -1.933855    0.000291
 ---------------------------------------------------------------------

 SCF Done:  E(UB3LYP) =  -623.954559024     A.U. after   22 cycles

 The electronic state is 2-A.
 Alpha  occ. eigenvalues --  -19.04782 -19.02028 -14.17208 -14.13809 -14.13477
 Alpha  occ. eigenvalues --  -10.11631 -10.10393 -10.10314 -10.07340 -10.05198
 Alpha  occ. eigenvalues --  -10.03676 -10.03043 -10.00241  -0.98554  -0.94485
 Alpha  occ. eigenvalues --   -0.81224  -0.77964  -0.71813  -0.63963  -0.61568
 Alpha  occ. eigenvalues --   -0.58030  -0.50830  -0.49155  -0.45438  -0.44709
 Alpha  occ. eigenvalues --   -0.40865  -0.37916  -0.35639  -0.34759  -0.33054
 Alpha  occ. eigenvalues --   -0.31098  -0.30922  -0.29942  -0.29157  -0.26998
 Alpha  occ. eigenvalues --   -0.25809  -0.23627  -0.22000  -0.21523  -0.18896
 Alpha  occ. eigenvalues --   -0.15812  -0.15179  -0.13910  -0.10736  -0.09994
 Alpha  occ. eigenvalues --   -0.08883   0.06254
 Alpha virt. eigenvalues --    0.08426   0.09382   0.10814   0.11760   0.11965
 Alpha virt. eigenvalues --    0.12388   0.12651   0.13172   0.13723   0.15131
 Alpha virt. eigenvalues --    0.16429   0.17315   0.17437   0.17823   0.18252

  Beta  occ. eigenvalues --  -19.04569 -19.01978 -14.17191 -14.13767 -14.13104
  Beta  occ. eigenvalues --  -10.11696 -10.10317 -10.10296 -10.07336 -10.04699
  Beta  occ. eigenvalues --  -10.03693 -10.02565 -10.00152  -0.98203  -0.94360
  Beta  occ. eigenvalues --   -0.80826  -0.77853  -0.71271  -0.63528  -0.61178
  Beta  occ. eigenvalues --   -0.57746  -0.50352  -0.48930  -0.45069  -0.44475
  Beta  occ. eigenvalues --   -0.40682  -0.37734  -0.35501  -0.34559  -0.32196
  Beta  occ. eigenvalues --   -0.30895  -0.30741  -0.29726  -0.28927  -0.26036
  Beta  occ. eigenvalues --   -0.25643  -0.23387  -0.21840  -0.20763  -0.18153
  Beta  occ. eigenvalues --   -0.15718  -0.13589  -0.13575  -0.09757  -0.09705
  Beta  occ. eigenvalues --   -0.07056
  Beta virt. eigenvalues --    0.08408   0.09333   0.10767   0.11726   0.12338
  Beta virt. eigenvalues --    0.12349   0.12544   0.13017   0.13150   0.14063
  Beta virt. eigenvalues --    0.15093   0.16373   0.17393   0.17543   0.17854

 Mulliken charges and spin densities:
               1          2
     1  C   -0.310313  -0.002662
     2  O   -0.180332   0.006351
     3  C   -0.440850   0.023564
     4  N   -0.226441   0.163622
     5  C    0.037694   0.032883
     6  N   -0.115140   0.024897
     7  C   -0.346930   0.262139
     8  C    0.178544   0.150770
     9  C   -0.176181  -0.066602
    10  C   -0.504937   0.419297
    11  O   -0.079674   0.019786
    12  C    0.192419  -0.018030
    13  N   -0.135779   0.016484
    14  H    0.118072  -0.000277
    15  H    0.162180   0.000677
    16  H    0.162239   0.000674
    17  H    0.142965  -0.001530
    18  H    0.215634  -0.004890
    19  H    0.146496  -0.029867
    20  H    0.160334   0.002713
 Sum of Mulliken charges =  -1.00000   1.00000

 Dipole moment (field-independent basis, Debye):
    X=             -1.4292    Y=             -1.5618    Z=             -0.0000  Tot=              2.1170
 Quadrupole moment (field-independent basis, Debye-Ang):
   XX=            -99.3453   YY=            -88.8924   ZZ=            -81.8754
   XY=             -0.9289   XZ=             -0.0039   YZ=             -0.0004

 Summary of Natural Population Analysis:

                                       Natural Population
                Natural  -----------------------------------------------
    Atom  No    Charge         Core      Valence    Rydberg      Total
 -----------------------------------------------------------------------
      C    1   -0.10279      0.99961     2.09445    0.00873     3.10279
      O    2   -0.27524      0.99985     3.26555    0.00984     4.27524
      C    3    0.28888      0.99948     1.69605    0.01559     2.71112
      N    4   -0.25845      0.99966     2.74835    0.01043     3.75845
      C    5    0.13831      0.99969     1.84240    0.01960     2.86169
      N    6   -0.26155      0.99969     2.75034    0.01152     3.76155
      C    7    0.17286      0.99950     1.81275    0.01489     2.82714
      C    8   -0.13924      0.99948     2.13259    0.00717     3.13924
      C    9    0.00741      0.99951     1.97638    0.01671     2.99259
      C   10    0.15511      0.99947     1.82982    0.01559     2.84489
      O   11   -0.22733      0.99988     3.21883    0.00863     4.22733
      C   12    0.14259      0.99967     1.83808    0.01967     2.85741
      N   13   -0.24261      0.99971     2.73457    0.00834     3.74261
      H   14    0.07985      0.00000     0.41929    0.00086     0.42015
      H   15    0.08703      0.00000     0.41159    0.00138     0.41297
      H   16    0.08704      0.00000     0.41157    0.00138     0.41296
      H   17    0.06915      0.00000     0.42952    0.00134     0.43085
      H   18    0.10744      0.00000     0.39119    0.00137     0.39256
      H   19    0.09242      0.00000     0.40678    0.00081     0.40758
      H   20    0.07913      0.00000     0.41977    0.00109     0.42087
 =======================================================================
   * Total *    0.00000     12.99519    32.82987    0.17494    46.00000

 Normal termination of Gaussian 16 at Wed Dec  9 22:29:10 2020.
