 Gaussian 16, Revision A.03,

 -----------------------------------------------------------
 # opt freq B3LYP/6-31G(d) empiricaldispersion=gd3bj scf=xqc
 -----------------------------------------------------------

 --------------------------------
 CID_114727718_JID_10525_neutraal
 --------------------------------
 Symbolic Z-matrix:
 Charge =  0 Multiplicity = 1

 SCF Done:  E(RB3LYP) =  -843.435216627     A.U. after   15 cycles
 SCF Done:  E(RB3LYP) =  -843.438944821     A.U. after   12 cycles
 SCF Done:  E(RB3LYP) =  -843.439188064     A.U. after   12 cycles
 SCF Done:  E(RB3LYP) =  -843.439230819     A.U. after   11 cycles
 SCF Done:  E(RB3LYP) =  -843.439252071     A.U. after   10 cycles
 SCF Done:  E(RB3LYP) =  -843.439254805     A.U. after    9 cycles
 SCF Done:  E(RB3LYP) =  -843.439255507     A.U. after    8 cycles
 SCF Done:  E(RB3LYP) =  -843.439255861     A.U. after    8 cycles
 SCF Done:  E(RB3LYP) =  -843.439256079     A.U. after    8 cycles
 SCF Done:  E(RB3LYP) =  -843.439256135     A.U. after    7 cycles
 SCF Done:  E(RB3LYP) =  -843.439256148     A.U. after    6 cycles
 Optimization completed.
    -- Stationary point found.
 Normal termination of Gaussian 16 at Thu Dec 17 20:10:09 2020.

 --------------------------------------------------------------------
 #N Geom=AllCheck Guess=TCheck SCRF=Check GenChk RB3LYP/6-31G(d) Freq
 --------------------------------------------------------------------

 Structure from the checkpoint file:  "JID_10525.chk"
 --------------------------------
 CID_114727718_JID_10525_neutraal
 --------------------------------
 Charge =  0 Multiplicity = 1

 SCF Done:  E(RB3LYP) =  -843.439256148     A.U. after    1 cycles

  Exact polarizability: 234.143  -9.862 154.232  -8.155  -1.873 178.970
 Approx polarizability: 324.041 -13.301 223.348 -24.743  -7.794 318.645

                      1                      2                      3
                      A                      A                      A
 Frequencies --     23.8300                26.3343                35.2518
 Red. masses --      3.5168                 3.8370                 4.5761
 Frc consts  --      0.0012                 0.0016                 0.0034
 IR Inten    --      0.1747                 0.3729                 0.8811

                      4                      5                      6
                      A                      A                      A
 Frequencies --     37.2448                52.2805                74.0368
 Red. masses --      4.8218                 4.0394                 2.7134
 Frc consts  --      0.0039                 0.0065                 0.0088
 IR Inten    --      0.0190                 0.8129                 0.3330

                      7                      8                      9
                      A                      A                      A
 Frequencies --    127.2476               140.9119               190.3160
 Red. masses --      2.3109                 4.9297                 2.6707
 Frc consts  --      0.0220                 0.0577                 0.0570
 IR Inten    --      0.3802                 1.6830                 2.0737

                     10                     11                     12
                      A                      A                      A
 Frequencies --    214.2360               231.8334               257.1551
 Red. masses --      2.9903                 3.6616                 2.5293
 Frc consts  --      0.0809                 0.1160                 0.0985
 IR Inten    --      2.4474                 1.8876                 0.4734

                     13                     14                     15
                      A                      A                      A
 Frequencies --    258.9058               268.2783               304.7305
 Red. masses --      3.3959                 3.7665                 2.2726
 Frc consts  --      0.1341                 0.1597                 0.1243
 IR Inten    --      2.5828                 0.4960                 1.2846

                     16                     17                     18
                      A                      A                      A
 Frequencies --    351.8663               404.7692               416.1573
 Red. masses --      5.0715                 2.6197                 3.5660
 Frc consts  --      0.3700                 0.2529                 0.3639
 IR Inten    --      0.3503                 0.6296                 4.4750

                     19                     20                     21
                      A                      A                      A
 Frequencies --    443.2730               453.1805               494.6568
 Red. masses --      3.2067                 4.4536                 3.3772
 Frc consts  --      0.3712                 0.5389                 0.4869
 IR Inten    --      3.0745                 4.8961                 1.1728

                     22                     23                     24
                      A                      A                      A
 Frequencies --    544.6815               571.3622               582.9424
 Red. masses --      4.0471                 5.1183                 3.8437
 Frc consts  --      0.7074                 0.9845                 0.7696
 IR Inten    --      1.9117                 5.4919                 0.0427

                     25                     26                     27
                      A                      A                      A
 Frequencies --    628.1113               638.1722               667.8464
 Red. masses --      6.9019                 6.8593                 3.8843
 Frc consts  --      1.6043                 1.6459                 1.0207
 IR Inten    --      0.5664                 1.4312                 9.6348

                     28                     29                     30
                      A                      A                      A
 Frequencies --    698.9977               735.4746               754.1394
 Red. masses --      4.1167                 4.2170                 1.8064
 Frc consts  --      1.1851                 1.3440                 0.6053
 IR Inten    --      4.1361                10.7868                 7.1484

                     31                     32                     33
                      A                      A                      A
 Frequencies --    761.3805               765.1995               771.7453
 Red. masses --      1.8988                 1.4855                 1.6301
 Frc consts  --      0.6485                 0.5125                 0.5720
 IR Inten    --     42.6658                17.3303                33.3927

                     34                     35                     36
                      A                      A                      A
 Frequencies --    796.3767               808.7087               816.9830
 Red. masses --      1.8109                 1.7687                 1.8317
 Frc consts  --      0.6767                 0.6815                 0.7203
 IR Inten    --     40.0725                 5.6077                59.5202

                     37                     38                     39
                      A                      A                      A
 Frequencies --    861.5764               865.9894               880.6593
 Red. masses --      3.2035                 1.4604                 3.1066
 Frc consts  --      1.4011                 0.6453                 1.4195
 IR Inten    --      1.9858                 0.9635                53.2536

                     40                     41                     42
                      A                      A                      A
 Frequencies --    899.2305               903.0947               918.3608
 Red. masses --      4.2412                 1.3929                 2.0975
 Frc consts  --      2.0206                 0.6693                 1.0423
 IR Inten    --      0.6180                 0.7545                 1.9257

                     43                     44                     45
                      A                      A                      A
 Frequencies --    928.9583               936.6143               970.1286
 Red. masses --      1.3490                 1.6623                 1.2304
 Frc consts  --      0.6859                 0.8592                 0.6823
 IR Inten    --      2.2084                29.7678                 0.0043

                     46                     47                     48
                      A                      A                      A
 Frequencies --    974.4123               977.1483              1003.4558
 Red. masses --      1.8550                 3.0716                 1.2883
 Frc consts  --      1.0377                 1.7279                 0.7643
 IR Inten    --      6.3949                12.3579                 0.0237

                     49                     50                     51
                      A                      A                      A
 Frequencies --   1016.7159              1024.8250              1041.0118
 Red. masses --      6.1471                 1.5461                 2.0761
 Frc consts  --      3.7438                 0.9567                 1.3256
 IR Inten    --      5.4906                22.5127                 5.3348

                     52                     53                     54
                      A                      A                      A
 Frequencies --   1075.6534              1081.2489              1125.8055
 Red. masses --      2.6211                 2.4676                 1.6198
 Frc consts  --      1.7868                 1.6997                 1.2096
 IR Inten    --      5.8891                 0.9395                 5.4505

                     55                     56                     57
                      A                      A                      A
 Frequencies --   1134.2891              1148.9232              1160.6491
 Red. masses --      1.8682                 2.6814                 1.4304
 Frc consts  --      1.4162                 2.0854                 1.1353
 IR Inten    --     11.5024                44.0680                11.7172

                     58                     59                     60
                      A                      A                      A
 Frequencies --   1164.7962              1184.0171              1184.5992
 Red. masses --      1.7291                 1.2780                 1.1496
 Frc consts  --      1.3822                 1.0556                 0.9505
 IR Inten    --      4.3314                 2.8244                 1.4604

                     61                     62                     63
                      A                      A                      A
 Frequencies --   1190.0562              1217.3826              1225.0153
 Red. masses --      1.6417                 3.0663                 2.4111
 Frc consts  --      1.3698                 2.6774                 2.1318
 IR Inten    --      4.3512                20.5243                19.3552

                     64                     65                     66
                      A                      A                      A
 Frequencies --   1275.9514              1285.2441              1291.2341
 Red. masses --      1.5822                 2.8995                 3.2554
 Frc consts  --      1.5176                 2.8219                 3.1979
 IR Inten    --      0.1316                33.6387                43.0671

                     67                     68                     69
                      A                      A                      A
 Frequencies --   1306.7112              1315.6346              1322.4230
 Red. masses --      1.4841                 1.6338                 2.7618
 Frc consts  --      1.4930                 1.6662                 2.8457
 IR Inten    --      5.2572                 3.2801                 1.7256

                     70                     71                     72
                      A                      A                      A
 Frequencies --   1341.3459              1365.3838              1367.8362
 Red. masses --      1.4816                 1.4338                 1.7237
 Frc consts  --      1.5706                 1.5749                 1.9001
 IR Inten    --      7.4787                 9.3704                18.2466

                     73                     74                     75
                      A                      A                      A
 Frequencies --   1394.8164              1407.7844              1426.3128
 Red. masses --      1.3765                 4.8242                 1.3920
 Frc consts  --      1.5779                 5.6331                 1.6685
 IR Inten    --      5.1716                 0.5345                 0.8118

                     76                     77                     78
                      A                      A                      A
 Frequencies --   1446.4184              1478.4647              1499.0576
 Red. masses --      1.2684                 2.1600                 2.5399
 Frc consts  --      1.5635                 2.7818                 3.3628
 IR Inten    --      9.4110                27.4668                36.9445

                     79                     80                     81
                      A                      A                      A
 Frequencies --   1509.8364              1521.0789              1521.9729
 Red. masses --      1.0829                 1.1416                 2.0491
 Frc consts  --      1.4545                 1.5562                 2.7966
 IR Inten    --      0.9110                 5.6631                19.8850

                     82                     83                     84
                      A                      A                      A
 Frequencies --   1524.8285              1532.2892              1540.8069
 Red. masses --      2.5522                 1.1080                 1.1001
 Frc consts  --      3.4963                 1.5328                 1.5387
 IR Inten    --      2.0472                39.2552                 9.9222

                     85                     86                     87
                      A                      A                      A
 Frequencies --   1551.2997              1633.3265              1641.7276
 Red. masses --      1.0936                 6.0241                 6.2920
 Frc consts  --      1.5505                 9.4687                 9.9917
 IR Inten    --     19.2039                20.1688                 6.8511

                     88                     89                     90
                      A                      A                      A
 Frequencies --   1648.7223              1655.8844              1675.1065
 Red. masses --      5.5976                 7.0332                 7.1642
 Frc consts  --      8.9649                11.3622                11.8442
 IR Inten    --     37.2742                11.0120                 0.6026

                     91                     92                     93
                      A                      A                      A
 Frequencies --   2966.2927              3039.1439              3046.8671
 Red. masses --      1.0702                 1.0696                 1.0359
 Frc consts  --      5.5479                 5.8208                 5.6659
 IR Inten    --     62.7519                14.0375                21.3882

                     94                     95                     96
                      A                      A                      A
 Frequencies --   3053.2068              3065.8899              3081.0505
 Red. masses --      1.0822                 1.0841                 1.1018
 Frc consts  --      5.9441                 6.0037                 6.1626
 IR Inten    --     61.0597                18.4905                15.1621

                     97                     98                     99
                      A                      A                      A
 Frequencies --   3114.6300              3115.5654              3174.0070
 Red. masses --      1.1022                 1.1024                 1.0890
 Frc consts  --      6.2997                 6.3049                 6.4641
 IR Inten    --     49.4946                59.0912                23.6007

                    100                    101                    102
                      A                      A                      A
 Frequencies --   3187.0821              3189.6332              3199.2144
 Red. masses --      1.0856                 1.0874                 1.0900
 Frc consts  --      6.4971                 6.5184                 6.5731
 IR Inten    --      1.4404                 4.0946                14.9388

                    103                    104                    105
                      A                      A                      A
 Frequencies --   3203.5668              3209.7757              3217.8553
 Red. masses --      1.0931                 1.0948                 1.0974
 Frc consts  --      6.6096                 6.6456                 6.6951
 IR Inten    --     19.1180                32.7088                21.0929

                    106                    107                    108
                      A                      A                      A
 Frequencies --   3224.6538              3266.2466              3500.1195
 Red. masses --      1.0950                 1.0967                 1.0720
 Frc consts  --      6.7088                 6.8932                 7.7377
 IR Inten    --      9.4069                 4.4037                 3.9374

 - Thermochemistry -
 -------------------
 Temperature   298.150 Kelvin.  Pressure   1.00000 Atm.
 Atom     1 has atomic number  6 and mass  12.00000

 Molecular mass:   266.14191 amu.
 Principal axes and moments of inertia in atomic units:
                           1         2         3
     Eigenvalues --  3783.778028395.14372**********
           X            0.99968   0.02501  -0.00327
           Y           -0.02505   0.99961  -0.01249
           Z            0.00296   0.01257   0.99992
 This molecule is an asymmetric top.
 Rotational symmetry number  1.
 Warning -- assumption of classical behavior for rotation
           may cause significant error
 Rotational temperatures (Kelvin)      0.02289     0.01032     0.00850
 Rotational constants (GHZ):           0.47697     0.21497     0.17711
 Zero-point vibrational energy     836067.3 (Joules/Mol)
                                  199.82488 (Kcal/Mol)
 Warning -- explicit consideration of  24 degrees of freedom as
           vibrations may cause significant error
 Vibrational temperatures:     34.29    37.89    50.72    53.59    75.22
          (Kelvin)            106.52   183.08   202.74   273.82   308.24
                              333.56   369.99   372.51   385.99   438.44
                              506.26   582.37   598.76   637.77   652.03
                              711.70   783.68   822.06   838.72   903.71
                              918.19   960.88  1005.70  1058.18  1085.04
                             1095.46  1100.95  1110.37  1145.81  1163.55
                             1175.46  1239.62  1245.97  1267.07  1293.79
                             1299.35  1321.32  1336.56  1347.58  1395.80
                             1401.96  1405.90  1443.75  1462.83  1474.49
                             1497.78  1547.63  1555.68  1619.78  1631.99
                             1653.04  1669.92  1675.88  1703.54  1704.37
                             1712.23  1751.54  1762.52  1835.81  1849.18
                             1857.80  1880.07  1892.90  1902.67  1929.90
                             1964.48  1968.01  2006.83  2025.49  2052.15
                             2081.07  2127.18  2156.81  2172.32  2188.49
                             2189.78  2193.89  2204.62  2216.88  2231.97
                             2349.99  2362.08  2372.14  2382.45  2410.10
                             4267.83  4372.65  4383.76  4392.88  4411.13
                             4432.94  4481.26  4482.60  4566.69  4585.50
                             4589.17  4602.96  4609.22  4618.15  4629.78
                             4639.56  4699.40  5035.89

 Zero-point correction=                           0.318441 (Hartree/Particle)
 Thermal correction to Energy=                    0.335769
 Thermal correction to Enthalpy=                  0.336713
 Thermal correction to Gibbs Free Energy=         0.270216
 Sum of electronic and zero-point Energies=           -843.120815
 Sum of electronic and thermal Energies=              -843.103488
 Sum of electronic and thermal Enthalpies=            -843.102543
 Sum of electronic and thermal Free Energies=         -843.169040

                     E (Thermal)             CV                S
                      KCal/Mol        Cal/Mol-Kelvin    Cal/Mol-Kelvin
 Total                  210.698             66.983            139.954
 Electronic               0.000              0.000              0.000
 Translational            0.889              2.981             42.636
 Rotational               0.889              2.981             34.136
 Vibrational            208.921             61.021             63.182
 Vibration     1          0.593              1.985              6.286
 Vibration     2          0.593              1.985              6.088
 Vibration     3          0.594              1.982              5.510
 Vibration     4          0.594              1.982              5.400
 Vibration     5          0.596              1.977              4.729
 Vibration     6          0.599              1.966              4.043
 Vibration     7          0.611              1.926              2.987
 Vibration     8          0.615              1.912              2.791
 Vibration     9          0.634              1.853              2.225
 Vibration    10          0.644              1.819              2.007
 Vibration    11          0.653              1.792              1.865
 Vibration    12          0.667              1.751              1.681
 Vibration    13          0.668              1.748              1.669
 Vibration    14          0.673              1.731              1.607
 Vibration    15          0.696              1.665              1.391
 Vibration    16          0.728              1.571              1.158
 Vibration    17          0.770              1.460              0.945
 Vibration    18          0.779              1.435              0.905
 Vibration    19          0.803              1.376              0.816
 Vibration    20          0.812              1.354              0.786
 Vibration    21          0.850              1.262              0.672
 Vibration    22          0.900              1.151              0.555
 Vibration    23          0.928              1.093              0.502
 Vibration    24          0.940              1.068              0.480

                           ! Non-Optimized Parameters !
 Normal termination of Gaussian 16 at Thu Dec 17 20:29:08 2020.

 ----------------------------------------------------------------------
 # B3LYP/6-311++G(d,p) empiricaldispersion=gd3bj scf=xqc pop=npa geom=c
 heck
 ----------------------------------------------------------------------

 ----------------------------------------
 CID_114727718_JID_10525_Energie_neutraal
 ----------------------------------------
 Structure from the checkpoint file:  "JID_10525.chk"
 Charge =  0 Multiplicity = 1

 SCF Done:  E(RB3LYP) =  -843.660005700     A.U. after   15 cycles
 Normal termination of Gaussian 16 at Thu Dec 17 20:37:55 2020.

 ----------------------------------------------------------------------
 # B3LYP/6-311++G(d,p) empiricaldispersion=gd3bj scf=xqc pop=npa geom=c
 heck
 ----------------------------------------------------------------------

 --------------------------------------
 CID_114727718_JID_10525_Energie_kation
 --------------------------------------
 Structure from the checkpoint file:  "JID_10525.chk"
 Charge =  1 Multiplicity = 2

 SCF Done:  E(UB3LYP) =  -843.379111765     A.U. after   27 cycles
 Normal termination of Gaussian 16 at Thu Dec 17 21:00:07 2020.
 Gaussian 16:  ES64L-G16RevA.03 25-Dec-2016

 ----------------------------------------------------------------------
 # B3LYP/6-311++G(d,p) empiricaldispersion=gd3bj scf=xqc pop=npa geom=c
 heck
 ----------------------------------------------------------------------

 -------------------------------------
 CID_114727718_JID_10525_Energie_anion
 -------------------------------------
 Structure from the checkpoint file:  "JID_10525.chk"
 Charge = -1 Multiplicity = 2

                         Standard orientation:
 ---------------------------------------------------------------------
 Center     Atomic      Atomic             Coordinates (Angstroms)
 Number     Number       Type             X           Y           Z
 ---------------------------------------------------------------------
      1          6           0       -3.551398   -2.856147    1.249191
      2          6           0       -3.422705   -2.918841   -0.276579
      3          6           0       -2.816101   -1.655677   -0.889027
      4          7           0       -1.430650   -1.469560   -0.451697
      5          6           0       -0.828624   -0.250286   -0.979571
      6          6           0       -1.415715    1.044952   -0.393350
      7          6           0       -1.329234    2.256035   -1.086450
      8          6           0       -1.841354    3.407025   -0.495338
      9          6           0       -2.420635    3.310031    0.770267
     10          6           0       -2.458671    2.058168    1.381533
     11          7           0       -1.970569    0.945821    0.819979
     12          6           0        0.652825   -0.262564   -0.759948
     13          6           0        1.712932   -0.209040   -1.607656
     14          6           0        2.900440   -0.226864   -0.786436
     15          6           0        4.283551   -0.199364   -1.012516
     16          6           0        5.136655   -0.234301    0.087473
     17          6           0        4.636243   -0.296760    1.400584
     18          6           0        3.264205   -0.326382    1.651173
     19          6           0        2.432495   -0.289041    0.541250
     20          8           0        1.061869   -0.305403    0.557097
     21          1           0       -2.570700   -2.830269    1.737315
     22          1           0       -4.082447   -3.732856    1.635902
     23          1           0       -4.102441   -1.960705    1.561250
     24          1           0       -2.808338   -3.781108   -0.563511
     25          1           0       -4.416055   -3.069448   -0.719192
     26          1           0       -2.806725   -1.749219   -1.983310
     27          1           0       -3.459352   -0.791505   -0.644436
     28          1           0       -1.422145   -1.375371    0.563124
     29          1           0       -0.980280   -0.236538   -2.065515
     30          1           0       -0.861618    2.288429   -2.066501
     31          1           0       -1.791293    4.362017   -1.011019
     32          1           0       -2.834301    4.179594    1.271090
     33          1           0       -2.902403    1.938296    2.368200
     34          1           0        1.660003   -0.172553   -2.686801
     35          1           0        4.680862   -0.153195   -2.022352
     36          1           0        6.211335   -0.213871   -0.068938
     37          1           0        5.329834   -0.322757    2.235741
     38          1           0        2.860191   -0.375218    2.656600
 ---------------------------------------------------------------------

 SCF Done:  E(UB3LYP) =  -843.653772214     A.U. after   33 cycles
 SCF Done:  E(UB3LYP) =  -843.653772214     a.u. after    1 cycles

 The electronic state is 2-A.
 Alpha  occ. eigenvalues --  -19.05419 -14.17498 -14.15597 -10.10488 -10.09948
 Alpha  occ. eigenvalues --  -10.08941 -10.07803 -10.07156 -10.06925 -10.06530
 Alpha  occ. eigenvalues --  -10.06040 -10.05639 -10.05617 -10.05338 -10.05269
 Alpha  occ. eigenvalues --  -10.05169 -10.04788 -10.04363 -10.04323 -10.04269
 Alpha  occ. eigenvalues --   -0.98089  -0.81474  -0.78511  -0.73576  -0.68690
 Alpha  occ. eigenvalues --   -0.67116  -0.66699  -0.64185  -0.62760  -0.61364
 Alpha  occ. eigenvalues --   -0.57604  -0.54624  -0.50417  -0.49801  -0.48404
 Alpha  occ. eigenvalues --   -0.47830  -0.46886  -0.45152  -0.39933  -0.39732
 Alpha  occ. eigenvalues --   -0.37854  -0.37241  -0.36449  -0.34969  -0.34623
 Alpha  occ. eigenvalues --   -0.33308  -0.32754  -0.32237  -0.31690  -0.30762
 Alpha  occ. eigenvalues --   -0.30049  -0.29613  -0.28387  -0.27708  -0.27087
 Alpha  occ. eigenvalues --   -0.26485  -0.25636  -0.25052  -0.24198  -0.23658
 Alpha  occ. eigenvalues --   -0.23472  -0.23011  -0.22945  -0.21879  -0.17548
 Alpha  occ. eigenvalues --   -0.16067  -0.13361  -0.12671  -0.12316  -0.11361
 Alpha  occ. eigenvalues --   -0.10029   0.05312
 Alpha virt. eigenvalues --    0.06832   0.07801   0.08163   0.08488   0.08804
 Alpha virt. eigenvalues --    0.09166   0.09627   0.09912   0.10287   0.10575
 Alpha virt. eigenvalues --    0.11230   0.11440   0.11745   0.12133   0.12496

  Beta  occ. eigenvalues --  -19.05366 -14.17459 -14.15190 -10.10520 -10.09750
  Beta  occ. eigenvalues --  -10.08966 -10.07798 -10.07161 -10.06783 -10.06526
  Beta  occ. eigenvalues --  -10.06033 -10.05678 -10.05584 -10.05229 -10.05163
  Beta  occ. eigenvalues --  -10.05011 -10.04852 -10.04335 -10.04223 -10.03989
  Beta  occ. eigenvalues --   -0.97972  -0.81083  -0.78273  -0.73414  -0.68529
  Beta  occ. eigenvalues --   -0.66957  -0.66223  -0.64003  -0.62583  -0.61099
  Beta  occ. eigenvalues --   -0.57521  -0.54473  -0.50175  -0.49679  -0.48149
  Beta  occ. eigenvalues --   -0.47723  -0.46699  -0.44969  -0.39831  -0.39606
  Beta  occ. eigenvalues --   -0.37723  -0.37156  -0.36350  -0.34764  -0.34440
  Beta  occ. eigenvalues --   -0.33098  -0.32578  -0.32151  -0.31601  -0.30694
  Beta  occ. eigenvalues --   -0.29991  -0.29536  -0.28229  -0.27472  -0.26885
  Beta  occ. eigenvalues --   -0.26410  -0.25006  -0.24948  -0.24088  -0.23451
  Beta  occ. eigenvalues --   -0.23326  -0.22929  -0.22629  -0.21801  -0.16936
  Beta  occ. eigenvalues --   -0.14356  -0.12636  -0.12230  -0.11808  -0.11268
  Beta  occ. eigenvalues --   -0.09279
  Beta virt. eigenvalues --    0.06984   0.07764   0.08134   0.08427   0.09147
  Beta virt. eigenvalues --    0.09517   0.09576   0.09848   0.10102   0.10577
  Beta virt. eigenvalues --    0.11045   0.11337   0.11488   0.12024   0.12052

 Mulliken charges and spin densities:
               1          2
     1  C   -0.361530  -0.177968
     2  C   -0.275096  -0.059418
     3  C   -0.038820  -0.054166
     4  N    0.402819   0.005824
     5  C   -0.635775  -0.037794
     6  C    0.005669   0.122417
     7  C   -0.038847  -0.007064
     8  C   -0.740184   0.191409
     9  C   -0.011578   0.100164
    10  C   -0.170900   0.012396
    11  N    0.096057   0.178023
    12  C   -0.895717   0.116359
    13  C    0.009764   0.018095
    14  C    1.047896   0.017071
    15  C   -0.191676   0.130918
    16  C    0.012590  -0.025190
    17  C   -0.321926   0.077436
    18  C   -0.363930   0.060779
    19  C   -0.717299  -0.011190
    20  O    0.080127   0.004561
    21  H    0.080883   0.057398
    22  H   -0.059329   0.192053
    23  H    0.136476  -0.000168
    24  H    0.139054  -0.001768
    25  H   -0.021341   0.146024
    26  H    0.090641   0.009281
    27  H    0.132875   0.003744
    28  H    0.344277  -0.055772
    29  H    0.201962   0.004273
    30  H    0.113490   0.006472
    31  H    0.126529  -0.020817
    32  H    0.120179   0.000387
    33  H    0.120626   0.011132
    34  H    0.120164  -0.000006
    35  H    0.102739  -0.009494
    36  H    0.113607   0.002189
    37  H    0.121457  -0.006784
    38  H    0.124067  -0.000806
 Sum of Mulliken charges =  -1.00000   1.00000

 Dipole moment (field-independent basis, Debye):
    X=              0.0739    Y=             -0.0055    Z=             -1.7149  Tot=              1.7165
 Quadrupole moment (field-independent basis, Debye-Ang):
   XX=           -174.6226   YY=           -151.8770   ZZ=           -126.3160
   XY=             -0.2845   XZ=              0.7411   YZ=             -0.5644

 Summary of Natural Population Analysis:

                                       Natural Population
                Natural  -----------------------------------------------
    Atom  No    Charge         Core      Valence    Rydberg      Total
 -----------------------------------------------------------------------
      C    1   -0.28875      0.99967     2.28419    0.00488     3.28875
      C    2   -0.19200      0.99964     2.18415    0.00821     3.19200
      C    3   -0.08541      0.99963     2.07573    0.01005     3.08541
      N    4   -0.33694      0.99974     2.82498    0.01222     3.83694
      C    5   -0.04339      0.99951     2.02860    0.01528     3.04339
      C    6    0.12798      0.99952     1.85749    0.01501     2.87202
      C    7   -0.13441      0.99951     2.12723    0.00768     3.13441
      C    8   -0.03603      0.99958     2.02710    0.00936     3.03603
      C    9   -0.12294      0.99957     2.11466    0.00871     3.12294
      C   10    0.02505      0.99960     1.96143    0.01392     2.97495
      N   11   -0.20487      0.99966     2.69153    0.01367     3.70487
      C   12    0.21610      0.99943     1.76996    0.01451     2.78390
      C   13   -0.15217      0.99945     2.14591    0.00681     3.15217
      C   14   -0.05217      0.99950     2.04369    0.00898     3.05217
      C   15   -0.07028      0.99942     2.06099    0.00987     3.07028
      C   16   -0.12977      0.99961     2.12014    0.01002     3.12977
      C   17   -0.09550      0.99959     2.08652    0.00939     3.09550
      C   18   -0.10697      0.99952     2.09878    0.00868     3.10697
      C   19    0.15100      0.99936     1.83731    0.01234     2.84900
      O   20   -0.23942      0.99985     3.23147    0.00811     4.23942
      H   21    0.09844      0.00000     0.40039    0.00118     0.40156
      H   22    0.09363      0.00000     0.40525    0.00112     0.40637
      H   23    0.09884      0.00000     0.39992    0.00124     0.40116
      H   24    0.09440      0.00000     0.40391    0.00169     0.40560
      H   25    0.09075      0.00000     0.40768    0.00157     0.40925
      H   26    0.08547      0.00000     0.41315    0.00139     0.41453
      H   27    0.08505      0.00000     0.41298    0.00197     0.41495
      H   28    0.18326      0.00000     0.31248    0.00426     0.31674
      H   29    0.10035      0.00000     0.39845    0.00120     0.39965
      H   30    0.09633      0.00000     0.40258    0.00110     0.40367
      H   31    0.08840      0.00000     0.41054    0.00106     0.41160
      H   32    0.09267      0.00000     0.40626    0.00108     0.40733
      H   33    0.08072      0.00000     0.41809    0.00119     0.41928
      H   34    0.10230      0.00000     0.39683    0.00086     0.39770
      H   35    0.09545      0.00000     0.40396    0.00059     0.40455
      H   36    0.09214      0.00000     0.40680    0.00105     0.40786
      H   37    0.09142      0.00000     0.40756    0.00102     0.40858
      H   38    0.10137      0.00000     0.39762    0.00100     0.39863
 =======================================================================
   * Total *    0.00008     19.99134    50.77630    0.23228    70.99992

 Normal termination of Gaussian 16 at Thu Dec 17 21:27:51 2020.
