 Gaussian 16, Revision A.03,

 -----------------------------------------------------------
 # opt freq B3LYP/6-31G(d) empiricaldispersion=gd3bj scf=xqc
 -----------------------------------------------------------

 -------------------------------
 CID_132395449_JID_9658_neutraal
 -------------------------------
 Symbolic Z-matrix:
 Charge =  0 Multiplicity = 1

 SCF Done:  E(RB3LYP) =  -821.377699569     A.U. after   14 cycles
 SCF Done:  E(RB3LYP) =  -821.381435344     A.U. after   12 cycles
 SCF Done:  E(RB3LYP) =  -821.381856126     A.U. after   11 cycles
 SCF Done:  E(RB3LYP) =  -821.381915758     A.U. after   11 cycles
 SCF Done:  E(RB3LYP) =  -821.381926275     A.U. after    9 cycles
 SCF Done:  E(RB3LYP) =  -821.381930215     A.U. after    9 cycles
 SCF Done:  E(RB3LYP) =  -821.381930659     A.U. after    8 cycles
 SCF Done:  E(RB3LYP) =  -821.381930727     A.U. after    7 cycles
 SCF Done:  E(RB3LYP) =  -821.381930770     A.U. after    7 cycles
 SCF Done:  E(RB3LYP) =  -821.381930809     A.U. after    7 cycles
 SCF Done:  E(RB3LYP) =  -821.382186838     A.U. after    9 cycles
 SCF Done:  E(RB3LYP) =  -821.382185948     A.U. after    9 cycles
 SCF Done:  E(RB3LYP) =  -821.382186335     A.U. after    9 cycles
 SCF Done:  E(RB3LYP) =  -821.382186829     A.U. after    8 cycles
 SCF Done:  E(RB3LYP) =  -821.382186977     A.U. after    7 cycles
 Optimization completed.
    -- Stationary point found.
 Normal termination of Gaussian 16 at Thu Dec 17 20:36:26 2020.

 --------------------------------------------------------------------
 #N Geom=AllCheck Guess=TCheck SCRF=Check GenChk RB3LYP/6-31G(d) Freq
 --------------------------------------------------------------------

 Structure from the checkpoint file:  "JID_9658.chk"
 -------------------------------
 CID_132395449_JID_9658_neutraal
 -------------------------------
 Charge =  0 Multiplicity = 1

 SCF Done:  E(RB3LYP) =  -821.382186977     A.U. after    1 cycles

  Exact polarizability: 303.939  -1.397 170.108   8.851 -10.801  93.570
 Approx polarizability: 384.342  -5.387 301.862  14.619 -25.111 143.815

                      1                      2                      3
                      A                      A                      A
 Frequencies --     22.6324                37.9995                49.7421
 Red. masses --      4.0819                 4.6656                 1.3110
 Frc consts  --      0.0012                 0.0040                 0.0019
 IR Inten    --      0.1099                 1.2780                 0.5403

                      4                      5                      6
                      A                      A                      A
 Frequencies --     56.7997                69.5299               102.8304
 Red. masses --      2.2293                 3.8448                 5.1980
 Frc consts  --      0.0042                 0.0110                 0.0324
 IR Inten    --      0.1643                 1.4497                 1.0436

                      7                      8                      9
                      A                      A                      A
 Frequencies --    132.4306               189.5555               198.5217
 Red. masses --      4.1045                 4.4486                 4.5033
 Frc consts  --      0.0424                 0.0942                 0.1046
 IR Inten    --      0.9914                 1.5026                 0.6850

                     10                     11                     12
                      A                      A                      A
 Frequencies --    204.5892               255.1321               269.9342
 Red. masses --      5.2059                 2.3010                 3.7554
 Frc consts  --      0.1284                 0.0882                 0.1612
 IR Inten    --      1.1562                 3.3265                 8.2821

                     13                     14                     15
                      A                      A                      A
 Frequencies --    325.0377               359.3429               386.3312
 Red. masses --      3.0956                 3.9913                 2.2931
 Frc consts  --      0.1927                 0.3037                 0.2016
 IR Inten    --      0.3224                 2.8912                 2.8893

                     16                     17                     18
                      A                      A                      A
 Frequencies --    413.2074               418.3459               444.5972
 Red. masses --      5.0833                 3.0895                 3.8776
 Frc consts  --      0.5114                 0.3186                 0.4516
 IR Inten    --      2.2183                 0.4210                 1.5989

                     19                     20                     21
                      A                      A                      A
 Frequencies --    461.4629               481.4166               517.1428
 Red. masses --      5.2589                 3.7476                 3.1103
 Frc consts  --      0.6598                 0.5117                 0.4901
 IR Inten    --      1.2383                 1.3922                 1.6513

                     22                     23                     24
                      A                      A                      A
 Frequencies --    540.0861               555.6384               577.0513
 Red. masses --      3.1647                 5.7934                 1.7715
 Frc consts  --      0.5439                 1.0538                 0.3475
 IR Inten    --      3.4697                 8.0160                 5.3249

                     25                     26                     27
                      A                      A                      A
 Frequencies --    633.2467               654.6148               677.4572
 Red. masses --      3.0623                 6.9864                 4.9775
 Frc consts  --      0.7235                 1.7639                 1.3459
 IR Inten    --      4.7152                 0.3512                 8.7482

                     28                     29                     30
                      A                      A                      A
 Frequencies --    743.5190               754.2166               807.8455
 Red. masses --      4.7439                 5.1068                 2.1358
 Frc consts  --      1.5451                 1.7116                 0.8212
 IR Inten    --      0.4417                 3.3981               167.1136

                     31                     32                     33
                      A                      A                      A
 Frequencies --    820.4804               838.0376               842.5809
 Red. masses --      2.8212                 1.2222                 2.0794
 Frc consts  --      1.1190                 0.5057                 0.8698
 IR Inten    --     30.4698                 9.9184                39.3472

                     34                     35                     36
                      A                      A                      A
 Frequencies --    866.8959               872.2153               882.8544
 Red. masses --      1.4016                 3.0525                 1.8442
 Frc consts  --      0.6206                 1.3682                 0.8469
 IR Inten    --      0.2339                 4.8127                 4.1298

                     37                     38                     39
                      A                      A                      A
 Frequencies --    896.0781               912.1779               936.5959
 Red. masses --      3.6644                 2.4982                 2.3738
 Frc consts  --      1.7336                 1.2247                 1.2269
 IR Inten    --     18.0788                 5.1340                14.4845

                     40                     41                     42
                      A                      A                      A
 Frequencies --    984.9499               995.2129              1000.5911
 Red. masses --      1.3289                 1.3867                 1.5143
 Frc consts  --      0.7596                 0.8092                 0.8933
 IR Inten    --      0.3450                 0.3676                 1.7227

                     43                     44                     45
                      A                      A                      A
 Frequencies --   1005.8888              1007.4850              1033.0682
 Red. masses --      1.9677                 4.6763                 2.0657
 Frc consts  --      1.1730                 2.7966                 1.2989
 IR Inten    --      4.2884                 3.3421                 0.4723

                     46                     47                     48
                      A                      A                      A
 Frequencies --   1043.3602              1051.7256              1060.2613
 Red. masses --      2.5308                 2.8839                 2.0680
 Frc consts  --      1.6232                 1.8795                 1.3697
 IR Inten    --     17.0173                 6.3497                21.0792

                     49                     50                     51
                      A                      A                      A
 Frequencies --   1074.3548              1122.2453              1137.8516
 Red. masses --      1.6067                 2.2613                 3.7663
 Frc consts  --      1.0926                 1.6780                 2.8730
 IR Inten    --      6.8668                 0.4535               162.9910

                     52                     53                     54
                      A                      A                      A
 Frequencies --   1139.7861              1143.4110              1151.6915
 Red. masses --      1.5919                 1.8533                 3.2952
 Frc consts  --      1.2185                 1.4276                 2.5751
 IR Inten    --     25.4647                 2.3649                60.9040

                     55                     56                     57
                      A                      A                      A
 Frequencies --   1169.3316              1210.1377              1227.9210
 Red. masses --      2.3644                 1.1546                 1.5299
 Frc consts  --      1.9048                 0.9962                 1.3591
 IR Inten    --      2.6866                13.4689                 2.9621

                     58                     59                     60
                      A                      A                      A
 Frequencies --   1246.0319              1268.0772              1283.1078
 Red. masses --      1.5489                 6.6115                 2.2655
 Frc consts  --      1.4169                 6.2638                 2.1976
 IR Inten    --      0.9741                 1.0658                22.5619

                     61                     62                     63
                      A                      A                      A
 Frequencies --   1298.8169              1318.2017              1336.0511
 Red. masses --      1.3356                 1.3526                 1.7564
 Frc consts  --      1.3274                 1.3848                 1.8472
 IR Inten    --     42.7029                 5.1095                 1.9193

                     64                     65                     66
                      A                      A                      A
 Frequencies --   1352.2822              1359.6109              1367.3350
 Red. masses --      2.1438                 1.2808                 2.9828
 Frc consts  --      2.3098                 1.3950                 3.2857
 IR Inten    --      2.7999                 2.6367                15.1975

                     67                     68                     69
                      A                      A                      A
 Frequencies --   1382.5594              1394.4616              1414.8141
 Red. masses --      1.2739                 1.4156                 1.4964
 Frc consts  --      1.4347                 1.6218                 1.7648
 IR Inten    --     11.2652                38.4632                16.5213

                     70                     71                     72
                      A                      A                      A
 Frequencies --   1424.5220              1430.7211              1441.0580
 Red. masses --      2.2414                 1.3940                 1.7409
 Frc consts  --      2.6799                 1.6812                 2.1300
 IR Inten    --     88.3851                12.1975                66.7006

                     73                     74                     75
                      A                      A                      A
 Frequencies --   1459.7297              1491.8096              1494.6028
 Red. masses --      2.5361                 2.8391                 1.0852
 Frc consts  --      3.1840                 3.7227                 1.4283
 IR Inten    --    114.5570                88.9697                 2.1050

                     76                     77                     78
                      A                      A                      A
 Frequencies --   1504.1198              1504.9968              1506.8323
 Red. masses --      1.1724                 1.0450                 1.1221
 Frc consts  --      1.5628                 1.3946                 1.5011
 IR Inten    --      9.1254                 6.3950                 4.3791

                     79                     80                     81
                      A                      A                      A
 Frequencies --   1513.1788              1520.2665              1563.0400
 Red. masses --      1.1197                 1.1094                 2.7425
 Frc consts  --      1.5105                 1.5107                 3.9477
 IR Inten    --     32.6013                 2.3864                 3.2757

                     82                     83                     84
                      A                      A                      A
 Frequencies --   1615.3260              1623.1038              1638.5404
 Red. masses --      5.5256                 5.9490                 6.8805
 Frc consts  --      8.4947                 9.2339                10.8840
 IR Inten    --     88.8062               239.2779                84.5074

                     85                     86                     87
                      A                      A                      A
 Frequencies --   1675.0845              2950.3432              2969.5118
 Red. masses --      5.8684                 1.0820                 1.0720
 Frc consts  --      9.7016                 5.5491                 5.5696
 IR Inten    --     11.2150                28.5153                96.8309

                     88                     89                     90
                      A                      A                      A
 Frequencies --   3048.0658              3054.5855              3060.2428
 Red. masses --      1.0600                 1.0612                 1.0359
 Frc consts  --      5.8023                 5.8336                 5.7157
 IR Inten    --     41.9081                27.2800                12.2495

                     91                     92                     93
                      A                      A                      A
 Frequencies --   3096.7190              3101.2254              3107.1490
 Red. masses --      1.1009                 1.0972                 1.1055
 Frc consts  --      6.2202                 6.2171                 6.2881
 IR Inten    --     62.8729                40.1326                22.4039

                     94                     95                     96
                      A                      A                      A
 Frequencies --   3121.8738              3144.1324              3168.1876
 Red. masses --      1.1006                 1.1035                 1.0903
 Frc consts  --      6.3202                 6.4274                 6.4481
 IR Inten    --      9.3131                19.2824                36.6403

                     97                     98                     99
                      A                      A                      A
 Frequencies --   3174.8956              3219.2826              3221.6522
 Red. masses --      1.0893                 1.0941                 1.0877
 Frc consts  --      6.4695                 6.6806                 6.6516
 IR Inten    --     19.9644                15.0317                 2.1616

                    100                    101                    102
                      A                      A                      A
 Frequencies --   3233.4373              3236.6317              3460.4071
 Red. masses --      1.0915                 1.0937                 1.0735
 Frc consts  --      6.7233                 6.7504                 7.5739
 IR Inten    --      3.3903                 2.8556                 2.1785

 - Thermochemistry -
 -------------------
 Temperature   298.150 Kelvin.  Pressure   1.00000 Atm.
 Atom     1 has atomic number  6 and mass  12.00000

 Molecular mass:   255.13716 amu.
 Principal axes and moments of inertia in atomic units:
                           1         2         3
     Eigenvalues --  1300.64456********************
           X            0.99999   0.00488  -0.00039
           Y           -0.00488   0.99988  -0.01483
           Z            0.00032   0.01483   0.99989
 This molecule is an asymmetric top.
 Rotational symmetry number  1.
 Warning -- assumption of classical behavior for rotation
           may cause significant error
 Rotational temperatures (Kelvin)      0.06659     0.00657     0.00621
 Rotational constants (GHZ):           1.38757     0.13693     0.12948
 Zero-point vibrational energy     792909.2 (Joules/Mol)
                                  189.50986 (Kcal/Mol)
 Warning -- explicit consideration of  24 degrees of freedom as
           vibrations may cause significant error
 Vibrational temperatures:     32.56    54.67    71.57    81.72   100.04
          (Kelvin)            147.95   190.54   272.73   285.63   294.36
                              367.08   388.38   467.66   517.01   555.84
                              594.51   601.91   639.68   663.94   692.65
                              744.05   777.06   799.44   830.25   911.10
                              941.84   974.71  1069.76  1085.15  1162.31
                             1180.49  1205.75  1212.29  1247.27  1254.92
                             1270.23  1289.26  1312.42  1347.55  1417.12
                             1431.89  1439.63  1447.25  1449.55  1486.35
                             1501.16  1513.20  1525.48  1545.76  1614.66
                             1637.11  1639.90  1645.11  1657.03  1682.41
                             1741.12  1766.70  1792.76  1824.48  1846.11
                             1868.71  1896.60  1922.28  1945.63  1956.18
                             1967.29  1989.19  2006.32  2035.60  2049.57
                             2058.49  2073.36  2100.23  2146.38  2150.40
                             2164.09  2165.35  2168.00  2177.13  2187.32
                             2248.87  2324.09  2335.28  2357.49  2410.07
                             4244.89  4272.47  4385.49  4394.87  4403.01
                             4455.49  4461.97  4470.49  4491.68  4523.71
                             4558.32  4567.97  4631.83  4635.24  4652.20
                             4656.79  4978.75

 Zero-point correction=                           0.302003 (Hartree/Particle)
 Thermal correction to Energy=                    0.318144
 Thermal correction to Enthalpy=                  0.319088
 Thermal correction to Gibbs Free Energy=         0.256199
 Sum of electronic and zero-point Energies=           -821.080184
 Sum of electronic and thermal Energies=              -821.064043
 Sum of electronic and thermal Enthalpies=            -821.063099
 Sum of electronic and thermal Free Energies=         -821.125988

                     E (Thermal)             CV                S
                      KCal/Mol        Cal/Mol-Kelvin    Cal/Mol-Kelvin
 Total                  199.638             62.671            132.360
 Electronic               0.000              0.000              0.000
 Translational            0.889              2.981             42.510
 Rotational               0.889              2.981             33.835
 Vibrational            197.861             56.709             56.016
 Vibration     1          0.593              1.985              6.389
 Vibration     2          0.594              1.982              5.361
 Vibration     3          0.595              1.978              4.828
 Vibration     4          0.596              1.975              4.565
 Vibration     5          0.598              1.969              4.167
 Vibration     6          0.605              1.947              3.400
 Vibration     7          0.613              1.921              2.910
 Vibration     8          0.633              1.854              2.232
 Vibration     9          0.637              1.842              2.147
 Vibration    10          0.640              1.833              2.091
 Vibration    11          0.666              1.754              1.695
 Vibration    12          0.674              1.729              1.597
 Vibration    13          0.709              1.625              1.285
 Vibration    14          0.734              1.556              1.125
 Vibration    15          0.755              1.499              1.014
 Vibration    16          0.777              1.442              0.915
 Vibration    17          0.781              1.430              0.898
 Vibration    18          0.804              1.373              0.812
 Vibration    19          0.819              1.336              0.762
 Vibration    20          0.838              1.291              0.706
 Vibration    21          0.872              1.212              0.617
 Vibration    22          0.895              1.161              0.565
 Vibration    23          0.911              1.127              0.533
 Vibration    24          0.934              1.081              0.491

 Optimization completed.
    -- Stationary point found.
 Normal termination of Gaussian 16 at Thu Dec 17 20:51:00 2020.

 ----------------------------------------------------------------------
 # B3LYP/6-311++G(d,p) empiricaldispersion=gd3bj scf=xqc pop=npa geom=c
 heck
 ----------------------------------------------------------------------

 ---------------------------------------
 CID_132395449_JID_9658_Energie_neutraal
 ---------------------------------------
 Structure from the checkpoint file:  "JID_9658.chk"
 Charge =  0 Multiplicity = 1

 SCF Done:  E(RB3LYP) =  -821.597782211     A.U. after   14 cycles
 Normal termination of Gaussian 16 at Thu Dec 17 20:57:23 2020.

 ----------------------------------------------------------------------
 # B3LYP/6-311++G(d,p) empiricaldispersion=gd3bj scf=xqc pop=npa geom=c
 heck
 ----------------------------------------------------------------------

 -------------------------------------
 CID_132395449_JID_9658_Energie_kation
 -------------------------------------
 Structure from the checkpoint file:  "JID_9658.chk"
 Charge =  1 Multiplicity = 2

 SCF Done:  E(UB3LYP) =  -821.320572690     A.U. after   27 cycles
 Normal termination of Gaussian 16 at Thu Dec 17 21:14:40 2020.
 Gaussian 16:  ES64L-G16RevA.03 25-Dec-2016

 ----------------------------------------------------------------------
 # B3LYP/6-311++G(d,p) empiricaldispersion=gd3bj scf=xqc pop=npa geom=c
 heck
 ----------------------------------------------------------------------

 ------------------------------------
 CID_132395449_JID_9658_Energie_anion
 ------------------------------------
 Structure from the checkpoint file:  "JID_9658.chk"
 Charge = -1 Multiplicity = 2

                         Standard orientation:
 ---------------------------------------------------------------------
 Center     Atomic      Atomic             Coordinates (Angstroms)
 Number     Number       Type             X           Y           Z
 ---------------------------------------------------------------------
      1          6           0        5.644285    1.829322   -0.138666
      2          6           0        4.802915    0.591033    0.008416
      3          7           0        3.477219    0.748857   -0.098497
      4          6           0        2.701651   -0.340868    0.028025
      5          7           0        3.151054   -1.590605    0.256076
      6          6           0        4.471769   -1.735153    0.360773
      7          6           0        5.359640   -0.669077    0.244669
      8          6           0        1.237719   -0.154263   -0.091261
      9          6           0        0.699901    1.118933   -0.330904
     10          6           0       -0.674779    1.288605   -0.446460
     11          6           0       -1.544832    0.198750   -0.322346
     12          6           0       -1.008610   -1.071182   -0.081377
     13          6           0        0.366770   -1.246915    0.029141
     14          6           0       -3.034057    0.417717   -0.365259
     15          6           0       -3.584719    0.811220    1.022980
     16          7           0       -5.043828    0.919171    1.059680
     17          6           0       -5.663052   -0.283167    0.492817
     18          6           0       -5.085667   -0.647668   -0.874639
     19          8           0       -3.670418   -0.777684   -0.813866
     20          1           0        5.469576    2.287765   -1.118099
     21          1           0        5.359072    2.569212    0.617030
     22          1           0        6.710651    1.610443   -0.035480
     23          1           0        4.833651   -2.745795    0.545252
     24          1           0        6.431434   -0.810065    0.333406
     25          1           0        1.375569    1.960488   -0.430193
     26          1           0       -1.079779    2.279270   -0.641248
     27          1           0       -1.680148   -1.918131    0.003025
     28          1           0        0.786765   -2.229669    0.209739
     29          1           0       -3.268169    1.235021   -1.071951
     30          1           0       -3.277944    0.038389    1.738925
     31          1           0       -3.141664    1.758959    1.347455
     32          1           0       -5.330059    1.728800    0.508040
     33          1           0       -5.482142   -1.112642    1.188388
     34          1           0       -6.747004   -0.132827    0.426814
     35          1           0       -5.464129   -1.610724   -1.232470
     36          1           0       -5.357057    0.127286   -1.613991
 ---------------------------------------------------------------------

 SCF Done:  E(UB3LYP) =  -821.603359008     A.U. after   33 cycles
 SCF Done:  E(UB3LYP) =  -821.603359008     a.u. after    1 cycles

 The electronic state is 2-A.
 Alpha  occ. eigenvalues --  -19.02651 -14.21200 -14.16708 -14.15903 -10.12525
 Alpha  occ. eigenvalues --  -10.11543 -10.10754 -10.09325 -10.09319 -10.07867
 Alpha  occ. eigenvalues --  -10.07812 -10.06298 -10.03959 -10.03725 -10.03655
 Alpha  occ. eigenvalues --  -10.03362 -10.02798 -10.02740 -10.02649  -0.94383
 Alpha  occ. eigenvalues --   -0.84010  -0.81650  -0.74696  -0.72592  -0.68563
 Alpha  occ. eigenvalues --   -0.66508  -0.62146  -0.60874  -0.60246  -0.57730
 Alpha  occ. eigenvalues --   -0.55664  -0.51678  -0.49772  -0.49205  -0.46302
 Alpha  occ. eigenvalues --   -0.44524  -0.40885  -0.39195  -0.38790  -0.37588
 Alpha  occ. eigenvalues --   -0.37253  -0.36591  -0.36037  -0.34309  -0.32357
 Alpha  occ. eigenvalues --   -0.31868  -0.30963  -0.30229  -0.29301  -0.28625
 Alpha  occ. eigenvalues --   -0.28317  -0.28104  -0.27956  -0.26877  -0.26568
 Alpha  occ. eigenvalues --   -0.25853  -0.23211  -0.22829  -0.21345  -0.20543
 Alpha  occ. eigenvalues --   -0.18415  -0.17461  -0.16295  -0.16221  -0.12953
 Alpha  occ. eigenvalues --   -0.12120  -0.10887  -0.09984   0.04160
 Alpha virt. eigenvalues --    0.05551   0.07406   0.07539   0.08565   0.08865
 Alpha virt. eigenvalues --    0.09073   0.09103   0.10481   0.10816   0.11031
 Alpha virt. eigenvalues --    0.11503   0.12089   0.12167   0.12559   0.12614

  Beta  occ. eigenvalues --  -19.02640 -14.21188 -14.16700 -14.15700 -10.12512
  Beta  occ. eigenvalues --  -10.11561 -10.10748 -10.09367 -10.09294 -10.07802
  Beta  occ. eigenvalues --  -10.07461 -10.06297 -10.04020 -10.03462 -10.03423
  Beta  occ. eigenvalues --  -10.03398 -10.02721 -10.02616 -10.02530  -0.94356
  Beta  occ. eigenvalues --   -0.83638  -0.81622  -0.74411  -0.72333  -0.68356
  Beta  occ. eigenvalues --   -0.66236  -0.61936  -0.60664  -0.60088  -0.57620
  Beta  occ. eigenvalues --   -0.55539  -0.51259  -0.49664  -0.49037  -0.46207
  Beta  occ. eigenvalues --   -0.44265  -0.40839  -0.39086  -0.38732  -0.37494
  Beta  occ. eigenvalues --   -0.37160  -0.36538  -0.35965  -0.34130  -0.32150
  Beta  occ. eigenvalues --   -0.31701  -0.30850  -0.30121  -0.29228  -0.28581
  Beta  occ. eigenvalues --   -0.28273  -0.28029  -0.27076  -0.26784  -0.26513
  Beta  occ. eigenvalues --   -0.25718  -0.23136  -0.22265  -0.21152  -0.20473
  Beta  occ. eigenvalues --   -0.18368  -0.16499  -0.16068  -0.14982  -0.12743
  Beta  occ. eigenvalues --   -0.11569  -0.10715  -0.08882
  Beta virt. eigenvalues --    0.05881   0.07470   0.07538   0.08501   0.08996
  Beta virt. eigenvalues --    0.09030   0.09093   0.09246   0.10462   0.10817
  Beta virt. eigenvalues --    0.10987   0.11561   0.12092   0.12140   0.12565

 Mulliken charges and spin densities:
               1          2
     1  C   -0.480587   0.014649
     2  C    0.551090  -0.036682
     3  N    0.036145   0.096057
     4  C   -0.687145   0.180924
     5  N   -0.008347  -0.001053
     6  C    0.096274   0.057242
     7  C   -0.519085   0.201721
     8  C    0.794891  -0.019801
     9  C   -0.731488   0.179997
    10  C   -1.008323  -0.007029
    11  C    0.352538   0.143260
    12  C   -0.152787  -0.041504
    13  C   -0.499858   0.115411
    14  C   -0.052405  -0.055498
    15  C   -0.450160  -0.117165
    16  N   -0.128823   0.025827
    17  C   -0.124641  -0.172755
    18  C    0.061449  -0.161079
    19  O   -0.036295   0.011912
    20  H    0.146869  -0.001047
    21  H    0.147628  -0.002123
    22  H    0.127779  -0.000927
    23  H    0.141941  -0.004168
    24  H    0.110821  -0.017033
    25  H    0.173098  -0.006995
    26  H    0.075926   0.045625
    27  H    0.154757   0.001448
    28  H    0.171891  -0.004741
    29  H    0.107113   0.074554
    30  H    0.168722   0.008759
    31  H    0.191927  -0.024504
    32  H    0.150932   0.079636
    33  H    0.166053  -0.027694
    34  H   -0.075329   0.236960
    35  H    0.036937   0.124864
    36  H   -0.009507   0.102951
 Sum of Mulliken charges =  -1.00000   1.00000

 Dipole moment (field-independent basis, Debye):
    X=             -2.0303    Y=              1.2478    Z=              0.3006  Tot=              2.4020
 Quadrupole moment (field-independent basis, Debye-Ang):
   XX=           -182.6661   YY=           -126.4310   ZZ=           -129.7182
   XY=              4.0015   XZ=              0.8836   YZ=             -2.0755

 Summary of Natural Population Analysis:

                                       Natural Population
                Natural  -----------------------------------------------
    Atom  No    Charge         Core      Valence    Rydberg      Total
 -----------------------------------------------------------------------
      C    1   -0.29747      0.99963     2.29277    0.00506     3.29747
      C    2    0.11256      0.99956     1.87592    0.01195     2.88744
      N    3   -0.23490      0.99964     2.72425    0.01101     3.73490
      C    4    0.25011      0.99961     1.72829    0.02199     2.74989
      N    5   -0.25245      0.99969     2.74314    0.00962     3.75245
      C    6    0.05142      0.99961     1.93451    0.01447     2.94858
      C    7   -0.12452      0.99950     2.11652    0.00850     3.12452
      C    8    0.02128      0.99949     1.96519    0.01404     2.97872
      C    9   -0.07593      0.99960     2.06199    0.01435     3.07593
      C   10   -0.12356      0.99953     2.11624    0.00780     3.12356
      C   11    0.01300      0.99948     1.97507    0.01245     2.98700
      C   12   -0.11812      0.99952     2.11032    0.00827     3.11812
      C   13   -0.07587      0.99960     2.06201    0.01427     3.07587
      C   14    0.05449      0.99950     1.93087    0.01514     2.94551
      C   15   -0.09614      0.99961     2.08393    0.01260     3.09614
      N   16   -0.33750      0.99977     2.82427    0.01347     3.83750
      C   17   -0.10554      0.99963     2.09404    0.01186     3.10554
      C   18   -0.01939      0.99958     2.00607    0.01374     3.01939
      O   19   -0.29896      0.99988     3.28948    0.00959     4.29896
      H   20    0.10403      0.00000     0.39493    0.00103     0.39597
      H   21    0.10399      0.00000     0.39498    0.00104     0.39601
      H   22    0.09339      0.00000     0.40578    0.00083     0.40661
      H   23    0.07811      0.00000     0.42059    0.00130     0.42189
      H   24    0.09273      0.00000     0.40614    0.00112     0.40727
      H   25    0.10566      0.00000     0.39301    0.00133     0.39434
      H   26    0.09022      0.00000     0.40853    0.00125     0.40978
      H   27    0.10073      0.00000     0.39825    0.00102     0.39927
      H   28    0.10526      0.00000     0.39338    0.00135     0.39474
      H   29    0.07752      0.00000     0.42028    0.00220     0.42248
      H   30    0.09528      0.00000     0.40364    0.00108     0.40472
      H   31    0.09848      0.00000     0.40070    0.00082     0.40152
      H   32    0.16753      0.00000     0.33052    0.00195     0.33247
      H   33    0.09135      0.00000     0.40752    0.00113     0.40865
      H   34    0.09371      0.00000     0.40525    0.00103     0.40629
      H   35    0.08987      0.00000     0.40915    0.00099     0.41013
      H   36    0.07415      0.00000     0.42406    0.00179     0.42585
 =======================================================================
   * Total *    0.00452     18.99244    48.75159    0.25145    67.99548

 Normal termination of Gaussian 16 at Thu Dec 17 21:35:11 2020.
