 Gaussian 16, Revision A.03,

 -----------------------------------------------------------
 # opt freq B3LYP/6-31G(d) empiricaldispersion=gd3bj scf=xqc
 -----------------------------------------------------------

 -------------------------------
 CID_115607466_JID_2696_neutraal
 -------------------------------
 Symbolic Z-matrix:
 Charge =  0 Multiplicity = 1

 SCF Done:  E(RB3LYP) =  -859.072859648     A.U. after   15 cycles
 SCF Done:  E(RB3LYP) =  -859.077433233     A.U. after   12 cycles
 SCF Done:  E(RB3LYP) =  -859.078221046     A.U. after   12 cycles
 SCF Done:  E(RB3LYP) =  -859.078452278     A.U. after   12 cycles
 SCF Done:  E(RB3LYP) =  -859.078631578     A.U. after   11 cycles
 SCF Done:  E(RB3LYP) =  -859.078779032     A.U. after   11 cycles
 SCF Done:  E(RB3LYP) =  -859.078486835     A.U. after   14 cycles
 SCF Done:  E(RB3LYP) =  -859.078826789     A.U. after   12 cycles
 SCF Done:  E(RB3LYP) =  -859.078975070     A.U. after   12 cycles
 SCF Done:  E(RB3LYP) =  -859.079007203     A.U. after   10 cycles
 SCF Done:  E(RB3LYP) =  -859.079015852     A.U. after   10 cycles
 SCF Done:  E(RB3LYP) =  -859.079017226     A.U. after    8 cycles
 SCF Done:  E(RB3LYP) =  -859.079017430     A.U. after    8 cycles
 SCF Done:  E(RB3LYP) =  -859.079017457     A.U. after    7 cycles
 Optimization completed.
    -- Stationary point found.
 Normal termination of Gaussian 16 at Wed Dec  9 17:50:41 2020.

 --------------------------------------------------------------------
 #N Geom=AllCheck Guess=TCheck SCRF=Check GenChk RB3LYP/6-31G(d) Freq
 --------------------------------------------------------------------

 Structure from the checkpoint file:  "JID_2696.chk"
 -------------------------------
 CID_115607466_JID_2696_neutraal
 -------------------------------
 Charge =  0 Multiplicity = 1

 SCF Done:  E(RB3LYP) =  -859.079017457     A.U. after    1 cycles

  Exact polarizability: 122.400 -13.728 113.566   7.524   2.257 108.883
 Approx polarizability: 161.428 -28.619 177.692  18.027   4.119 202.441

                      1                      2                      3
                      A                      A                      A
 Frequencies --     37.1764                43.0516                62.2186
 Red. masses --      3.8758                 6.7269                 3.6504
 Frc consts  --      0.0032                 0.0073                 0.0083
 IR Inten    --      0.1840                 0.3404                 0.2065

                      4                      5                      6
                      A                      A                      A
 Frequencies --    105.4401               148.8992               186.1097
 Red. masses --      3.9625                 2.4910                 3.8979
 Frc consts  --      0.0260                 0.0325                 0.0795
 IR Inten    --      0.0395                 0.1386                 1.8773

                      7                      8                      9
                      A                      A                      A
 Frequencies --    213.2321               266.3445               289.7484
 Red. masses --      1.1792                 4.1818                 2.2124
 Frc consts  --      0.0316                 0.1748                 0.1094
 IR Inten    --      0.2312                 1.8769                 2.5162

                     10                     11                     12
                      A                      A                      A
 Frequencies --    344.5604               346.0664               409.9009
 Red. masses --      2.7255                 2.1314                 3.2912
 Frc consts  --      0.1906                 0.1504                 0.3258
 IR Inten    --      4.0645                 2.8424                 0.9864

                     13                     14                     15
                      A                      A                      A
 Frequencies --    429.1944               522.9373               551.0141
 Red. masses --      2.5406                 3.5425                 3.2902
 Frc consts  --      0.2757                 0.5708                 0.5886
 IR Inten    --      4.1641                 5.6193                 2.9949

                     16                     17                     18
                      A                      A                      A
 Frequencies --    594.6863               613.7394               683.7469
 Red. masses --      4.8117                 5.9553                 2.8640
 Frc consts  --      1.0026                 1.3217                 0.7889
 IR Inten    --     10.6378                11.1464                 6.1609

                     19                     20                     21
                      A                      A                      A
 Frequencies --    737.7339               764.4450               773.6642
 Red. masses --      1.3776                 3.6427                 3.1054
 Frc consts  --      0.4418                 1.2542                 1.0951
 IR Inten    --     36.0237                39.5216                 4.2487

                     22                     23                     24
                      A                      A                      A
 Frequencies --    792.1238               815.6896               865.3595
 Red. masses --      2.1213                 2.1865                 1.1457
 Frc consts  --      0.7842                 0.8571                 0.5055
 IR Inten    --     44.5990                57.4696                 9.8558

                     25                     26                     27
                      A                      A                      A
 Frequencies --    889.4280               894.6880               900.8435
 Red. masses --      4.5463                 1.3235                 1.4868
 Frc consts  --      2.1190                 0.6242                 0.7109
 IR Inten    --      2.7964                 1.3135                 2.6766

                     28                     29                     30
                      A                      A                      A
 Frequencies --    941.3598               991.9923               997.6858
 Red. masses --      1.8133                 1.4565                 2.2129
 Frc consts  --      0.9467                 0.8445                 1.2978
 IR Inten    --      5.8901                 3.4013                 2.8436

                     31                     32                     33
                      A                      A                      A
 Frequencies --   1044.9200              1065.3736              1083.8091
 Red. masses --      1.6205                 2.3863                 1.7131
 Frc consts  --      1.0425                 1.5958                 1.1856
 IR Inten    --     20.7622                49.9798                 1.6403

                     34                     35                     36
                      A                      A                      A
 Frequencies --   1094.5625              1117.9447              1135.6586
 Red. masses --      1.3799                 1.7069                 2.7160
 Frc consts  --      0.9741                 1.2569                 2.0638
 IR Inten    --      0.5976                 9.7895                37.9176

                     37                     38                     39
                      A                      A                      A
 Frequencies --   1157.1873              1171.7935              1188.7964
 Red. masses --      1.3928                 2.5665                 1.7720
 Frc consts  --      1.0989                 2.0763                 1.4755
 IR Inten    --      0.7814                12.2932                 3.5850

                     40                     41                     42
                      A                      A                      A
 Frequencies --   1210.1331              1215.6665              1247.2794
 Red. masses --      1.6746                 2.3093                 1.4427
 Frc consts  --      1.4449                 2.0107                 1.3223
 IR Inten    --      2.6416                15.6939                 0.6360

                     43                     44                     45
                      A                      A                      A
 Frequencies --   1267.8531              1318.5137              1355.6173
 Red. masses --      1.2505                 1.2340                 1.8958
 Frc consts  --      1.1843                 1.2639                 2.0526
 IR Inten    --      3.6757                 6.7803                 2.6456

                     46                     47                     48
                      A                      A                      A
 Frequencies --   1375.7751              1379.0495              1420.5547
 Red. masses --      1.3061                 1.2932                 1.4048
 Frc consts  --      1.4565                 1.4490                 1.6702
 IR Inten    --      7.5709                 5.4294                 1.3955

                     49                     50                     51
                      A                      A                      A
 Frequencies --   1448.9971              1457.8577              1491.0355
 Red. masses --      1.3604                 1.5307                 1.6067
 Frc consts  --      1.6828                 1.9168                 2.1046
 IR Inten    --      1.5031                 2.3908                 2.7466

                     52                     53                     54
                      A                      A                      A
 Frequencies --   1497.5552              1514.9517              1521.8540
 Red. masses --      2.1393                 1.2617                 1.2007
 Frc consts  --      2.8268                 1.7062                 1.6384
 IR Inten    --      3.5444                29.1675                 8.2397

                     55                     56                     57
                      A                      A                      A
 Frequencies --   1525.8866              1534.4399              1561.6304
 Red. masses --      1.0621                 1.1585                 1.1309
 Frc consts  --      1.4571                 1.6072                 1.6249
 IR Inten    --     13.0868                 2.1563                11.9126

                     58                     59                     60
                      A                      A                      A
 Frequencies --   1567.8988              3020.4533              3044.1422
 Red. masses --      4.7611                 1.0589                 1.0405
 Frc consts  --      6.8959                 5.6920                 5.6810
 IR Inten    --     22.1157                25.4021                15.2588

                     61                     62                     63
                      A                      A                      A
 Frequencies --   3048.8639              3066.1493              3096.6200
 Red. masses --      1.1005                 1.0605                 1.1017
 Frc consts  --      6.0274                 5.8739                 6.2243
 IR Inten    --     57.1366                33.9398                34.6005

                     64                     65                     66
                      A                      A                      A
 Frequencies --   3118.2416              3124.9871              3139.3701
 Red. masses --      1.1054                 1.0953                 1.0553
 Frc consts  --      6.3326                 6.3019                 6.1280
 IR Inten    --      9.9146                 3.0730                18.1332

                     67                     68                     69
                      A                      A                      A
 Frequencies --   3144.5444              3157.1064              3219.3852
 Red. masses --      1.0899                 1.0903                 1.1165
 Frc consts  --      6.3494                 6.4030                 6.8182
 IR Inten    --     26.3865                29.2713                20.6489

                     70                     71                     72
                      A                      A                      A
 Frequencies --   3233.3998              3282.3829              3491.3346
 Red. masses --      1.0914                 1.0978                 1.0737
 Frc consts  --      6.7228                 6.9688                 7.7109
 IR Inten    --      8.5131                 1.4824                 1.4112

 - Thermochemistry -
 -------------------
 Temperature   298.150 Kelvin.  Pressure   1.00000 Atm.
 Atom     1 has atomic number  6 and mass  12.00000

 Molecular mass:   182.08777 amu.
 Principal axes and moments of inertia in atomic units:
                           1         2         3
     Eigenvalues --  1323.490493408.335273834.91404
           X            0.99998   0.00451  -0.00375
           Y           -0.00453   0.99997  -0.00545
           Z            0.00373   0.00546   0.99998
 This molecule is an asymmetric top.
 Rotational symmetry number  1.
 Warning -- assumption of classical behavior for rotation
           may cause significant error
 Rotational temperatures (Kelvin)      0.06544     0.02541     0.02259
 Rotational constants (GHZ):           1.36362     0.52951     0.47061
 Zero-point vibrational energy     582417.8 (Joules/Mol)
                                  139.20120 (Kcal/Mol)
 Warning -- explicit consideration of  17 degrees of freedom as
           vibrations may cause significant error
 Vibrational temperatures:     53.49    61.94    89.52   151.70   214.23
          (Kelvin)            267.77   306.79   383.21   416.88   495.75
                              497.91   589.76   617.51   752.39   792.79
                              855.62   883.03   983.76  1061.43  1099.87
                             1113.13  1139.69  1173.60  1245.06  1279.69
                             1287.26  1296.11  1354.41  1427.26  1435.45
                             1503.41  1532.83  1559.36  1574.83  1608.47
                             1633.96  1664.93  1685.95  1710.41  1741.11
                             1749.07  1794.56  1824.16  1897.05  1950.43
                             1979.43  1984.14  2043.86  2084.78  2097.53
                             2145.27  2154.65  2179.68  2189.61  2195.41
                             2207.72  2246.84  2255.86  4345.76  4379.84
                             4386.64  4411.50  4455.35  4486.45  4496.16
                             4516.85  4524.30  4542.37  4631.98  4652.14
                             4722.62  5023.25

 Zero-point correction=                           0.221831 (Hartree/Particle)
 Thermal correction to Energy=                    0.233858
 Thermal correction to Enthalpy=                  0.234803
 Thermal correction to Gibbs Free Energy=         0.182302
 Sum of electronic and zero-point Energies=           -858.857186
 Sum of electronic and thermal Energies=              -858.845159
 Sum of electronic and thermal Enthalpies=            -858.844215
 Sum of electronic and thermal Free Energies=         -858.896716

                     E (Thermal)             CV                S
                      KCal/Mol        Cal/Mol-Kelvin    Cal/Mol-Kelvin
 Total                  146.748             45.311            110.497
 Electronic               0.000              0.000              0.000
 Translational            0.889              2.981             41.504
 Rotational               0.889              2.981             31.226
 Vibrational            144.971             39.350             37.767
 Vibration     1          0.594              1.982              5.404
 Vibration     2          0.595              1.980              5.113
 Vibration     3          0.597              1.972              4.386
 Vibration     4          0.605              1.945              3.351
 Vibration     5          0.618              1.904              2.686
 Vibration     6          0.632              1.859              2.266
 Vibration     7          0.644              1.821              2.016
 Vibration     8          0.672              1.735              1.620
 Vibration     9          0.686              1.693              1.475
 Vibration    10          0.723              1.586              1.191
 Vibration    11          0.724              1.583              1.184
 Vibration    12          0.774              1.449              0.927
 Vibration    13          0.791              1.407              0.861
 Vibration    14          0.878              1.199              0.603
 Vibration    15          0.906              1.137              0.542
 Vibration    16          0.952              1.043              0.459
 Vibration    17          0.973              1.003              0.427

                           ! Non-Optimized Parameters !
 Normal termination of Gaussian 16 at Wed Dec  9 17:57:09 2020.

 ----------------------------------------------------------------------
 # B3LYP/6-311++G(d,p) empiricaldispersion=gd3bj scf=xqc pop=npa geom=c
 heck
 ----------------------------------------------------------------------

 ---------------------------------------
 CID_115607466_JID_2696_Energie_neutraal
 ---------------------------------------
 Structure from the checkpoint file:  "JID_2696.chk"
 Charge =  0 Multiplicity = 1

 SCF Done:  E(RB3LYP) =  -859.233570588     A.U. after   15 cycles
 Normal termination of Gaussian 16 at Wed Dec  9 18:00:10 2020.

 ----------------------------------------------------------------------
 # B3LYP/6-311++G(d,p) empiricaldispersion=gd3bj scf=xqc pop=npa geom=c
 heck
 ----------------------------------------------------------------------

 -------------------------------------
 CID_115607466_JID_2696_Energie_kation
 -------------------------------------
 Structure from the checkpoint file:  "JID_2696.chk"
 Charge =  1 Multiplicity = 2

 SCF Done:  E(UB3LYP) =  -858.931289610     A.U. after   25 cycles
 Normal termination of Gaussian 16 at Wed Dec  9 18:06:41 2020.
 Gaussian 16:  ES64L-G16RevA.03 25-Dec-2016

 ----------------------------------------------------------------------
 # B3LYP/6-311++G(d,p) empiricaldispersion=gd3bj scf=xqc pop=npa geom=c
 heck
 ----------------------------------------------------------------------

 ------------------------------------
 CID_115607466_JID_2696_Energie_anion
 ------------------------------------
 Structure from the checkpoint file:  "JID_2696.chk"
 Charge = -1 Multiplicity = 2

                         Standard orientation:
 ---------------------------------------------------------------------
 Center     Atomic      Atomic             Coordinates (Angstroms)
 Number     Number       Type             X           Y           Z
 ---------------------------------------------------------------------
      1          6           0        1.354317    1.757200   -0.635178
      2          6           0        2.654539    0.977896   -0.624739
      3          6           0        3.408821    0.741730    0.661371
      4          6           0        2.768167   -0.424750   -0.050427
      5          6           0        1.566324   -1.109777    0.551602
      6          7           0        0.736456   -1.695745   -0.510368
      7          6           0       -0.632194   -2.010067   -0.093706
      8          6           0       -1.453226   -0.788260    0.233897
      9          7           0       -1.476598   -0.192722    1.394333
     10          6           0       -2.182538    0.989686    1.339980
     11          6           0       -2.703651    1.320219    0.122719
     12         16           0       -2.312528    0.090733   -1.035702
     13          1           0        0.750498    1.523675   -1.520860
     14          1           0        1.552664    2.835705   -0.646534
     15          1           0        0.739131    1.547388    0.244916
     16          1           0        3.278002    1.158377   -1.499149
     17          1           0        4.492076    0.824177    0.661613
     18          1           0        2.938706    1.078940    1.582728
     19          1           0        3.437521   -1.096452   -0.584615
     20          1           0        1.888570   -1.922631    1.216964
     21          1           0        1.007857   -0.400479    1.179239
     22          1           0        0.702830   -1.042274   -1.291413
     23          1           0       -1.116759   -2.586512   -0.889368
     24          1           0       -0.587580   -2.640894    0.799816
     25          1           0       -2.289475    1.581449    2.241787
     26          1           0       -3.295957    2.183816   -0.144764
 ---------------------------------------------------------------------

 SCF Done:  E(UB3LYP) =  -859.218880541     A.U. after   33 cycles
 SCF Done:  E(UB3LYP) =  -859.218880541     a.u. after    1 cycles

 The electronic state is 2-A.
 Alpha  occ. eigenvalues --  -88.75544 -14.19000 -14.18972 -10.10196 -10.09451
 Alpha  occ. eigenvalues --  -10.08217 -10.07980 -10.07630 -10.07051 -10.06775
 Alpha  occ. eigenvalues --  -10.06341 -10.05271  -7.84207  -5.80470  -5.80134
 Alpha  occ. eigenvalues --   -5.79836  -0.84273  -0.79901  -0.75264  -0.67584
 Alpha  occ. eigenvalues --   -0.64448  -0.60861  -0.58774  -0.53573  -0.48397
 Alpha  occ. eigenvalues --   -0.47036  -0.44458  -0.42788  -0.40056  -0.38504
 Alpha  occ. eigenvalues --   -0.36831  -0.34595  -0.32670  -0.31896  -0.30872
 Alpha  occ. eigenvalues --   -0.30023  -0.28838  -0.27823  -0.27388  -0.25558
 Alpha  occ. eigenvalues --   -0.25221  -0.24708  -0.23098  -0.18328  -0.17013
 Alpha  occ. eigenvalues --   -0.16772  -0.16364  -0.13592  -0.11530   0.05042
 Alpha virt. eigenvalues --    0.06704   0.07200   0.08489   0.08589   0.09205
 Alpha virt. eigenvalues --    0.09629   0.10061   0.10979   0.11523   0.12413
 Alpha virt. eigenvalues --    0.12592   0.13244   0.13654   0.13708   0.14921

  Beta  occ. eigenvalues --  -88.75511 -14.18969 -14.18936 -10.09928 -10.09463
  Beta  occ. eigenvalues --  -10.08211 -10.07976 -10.07458 -10.07038 -10.06765
  Beta  occ. eigenvalues --  -10.06328 -10.05260  -7.84176  -5.80458  -5.80121
  Beta  occ. eigenvalues --   -5.79723  -0.84061  -0.79839  -0.75223  -0.67369
  Beta  occ. eigenvalues --   -0.64212  -0.60810  -0.58696  -0.53486  -0.48354
  Beta  occ. eigenvalues --   -0.46786  -0.44396  -0.42582  -0.39993  -0.38374
  Beta  occ. eigenvalues --   -0.36763  -0.34463  -0.32596  -0.31773  -0.30720
  Beta  occ. eigenvalues --   -0.29975  -0.28752  -0.27642  -0.27107  -0.25510
  Beta  occ. eigenvalues --   -0.25177  -0.24515  -0.23059  -0.18291  -0.16981
  Beta  occ. eigenvalues --   -0.16272  -0.16170  -0.12896  -0.11221
  Beta virt. eigenvalues --    0.07338   0.07920   0.08314   0.08852   0.09389
  Beta virt. eigenvalues --    0.09569   0.10019   0.10358   0.11112   0.11751
  Beta virt. eigenvalues --    0.12653   0.12733   0.13388   0.13804   0.13871

 Mulliken charges and spin densities:
               1          2
     1  C    0.038631  -0.629149
     2  C    0.088265  -0.047396
     3  C    0.238385  -0.728714
     4  C   -0.165659   0.332826
     5  C    0.228817  -0.874228
     6  N   -0.079561   0.189877
     7  C    0.317707  -1.125918
     8  C   -0.453433   0.896083
     9  N   -0.060521   0.004707
    10  C   -0.065435  -0.155230
    11  C   -0.088003  -0.078233
    12  S    0.326109  -0.317144
    13  H    0.068767   0.046662
    14  H   -0.201449   0.353571
    15  H    0.056788   0.047856
    16  H   -0.471004   0.674955
    17  H   -0.337021   0.488744
    18  H    0.125990   0.007894
    19  H   -0.268381   0.491861
    20  H    0.183585  -0.040848
    21  H    0.079035   0.004265
    22  H    0.107363   0.089209
    23  H   -0.082276   0.268319
    24  H    0.037517   0.123777
    25  H   -0.123728   0.265231
    26  H   -0.500487   0.711022
 Sum of Mulliken charges =  -1.00000   1.00000

 Dipole moment (field-independent basis, Debye):
    X=             -2.1514    Y=             -1.4263    Z=              1.4668  Tot=              2.9689
 Quadrupole moment (field-independent basis, Debye-Ang):
   XX=           -147.4013   YY=           -119.5007   ZZ=           -106.7957
   XY=              1.5953   XZ=              7.6776   YZ=              1.0630

 Summary of Natural Population Analysis:

                                       Natural Population
                Natural  -----------------------------------------------
    Atom  No    Charge         Core      Valence    Rydberg      Total
 -----------------------------------------------------------------------
      C    1   -0.29070      0.99965     2.28440    0.00665     3.29070
      C    2   -0.11238      0.99959     2.10203    0.01076     3.11238
      C    3   -0.19578      0.99960     2.18687    0.00932     3.19578
      C    4   -0.11635      0.99958     2.10545    0.01133     3.11635
      C    5   -0.09443      0.99959     2.08351    0.01133     3.09443
      N    6   -0.33036      0.99975     2.81853    0.01208     3.83036
      C    7   -0.11259      0.99956     2.10003    0.01300     3.11259
      C    8    0.07029      0.99961     1.91202    0.01807     2.92971
      N    9   -0.25277      0.99964     2.74168    0.01145     3.75277
      C   10   -0.02828      0.99953     2.01349    0.01527     3.02828
      C   11   -0.18611      0.99954     2.17503    0.01153     3.18611
      S   12    0.17826      4.99942     2.80294    0.01937     7.82174
      H   13    0.09946      0.00000     0.39933    0.00121     0.40054
      H   14    0.09900      0.00000     0.40001    0.00098     0.40100
      H   15    0.10407      0.00000     0.39439    0.00154     0.39593
      H   16    0.10162      0.00000     0.39627    0.00211     0.39838
      H   17    0.10221      0.00000     0.39672    0.00107     0.39779
      H   18    0.09847      0.00000     0.40047    0.00105     0.40153
      H   19    0.10463      0.00000     0.39376    0.00161     0.39537
      H   20    0.09032      0.00000     0.40856    0.00112     0.40968
      H   21    0.09372      0.00000     0.40377    0.00251     0.40628
      H   22    0.17186      0.00000     0.32426    0.00388     0.32814
      H   23    0.09960      0.00000     0.39941    0.00100     0.40040
      H   24    0.10249      0.00000     0.39619    0.00132     0.39751
      H   25    0.09533      0.00000     0.40359    0.00108     0.40467
      H   26    0.10840      0.00000     0.39017    0.00142     0.39160
 =======================================================================
   * Total *   -0.00000     15.99506    32.83289    0.17205    49.00000

 Normal termination of Gaussian 16 at Wed Dec  9 18:17:36 2020.
