 Gaussian 16, Revision A.03,

 -----------------------------------------------------------
 # opt freq B3LYP/6-31G(d) empiricaldispersion=gd3bj scf=xqc
 -----------------------------------------------------------

 -------------------------------
 CID_116884529_JID_6825_neutraal
 -------------------------------
 Symbolic Z-matrix:
 Charge =  0 Multiplicity = 1

 SCF Done:  E(RB3LYP) =  -1032.42078138     A.U. after   15 cycles
 SCF Done:  E(RB3LYP) =  -1032.42662314     A.U. after   12 cycles
 SCF Done:  E(RB3LYP) =  -1032.42743972     A.U. after   12 cycles
 SCF Done:  E(RB3LYP) =  -1032.42768561     A.U. after   11 cycles
 SCF Done:  E(RB3LYP) =  -1032.42778877     A.U. after   11 cycles
 SCF Done:  E(RB3LYP) =  -1032.42784391     A.U. after   10 cycles
 SCF Done:  E(RB3LYP) =  -1032.42787659     A.U. after   10 cycles
 SCF Done:  E(RB3LYP) =  -1032.42796460     A.U. after   11 cycles
 SCF Done:  E(RB3LYP) =  -1032.42802771     A.U. after   12 cycles
 SCF Done:  E(RB3LYP) =  -1032.42801066     A.U. after   11 cycles
 SCF Done:  E(RB3LYP) =  -1032.42910519     A.U. after    9 cycles
 SCF Done:  E(RB3LYP) =  -1032.42910708     A.U. after   10 cycles
 SCF Done:  E(RB3LYP) =  -1032.42910783     A.U. after   10 cycles
 SCF Done:  E(RB3LYP) =  -1032.42910799     A.U. after    8 cycles
 SCF Done:  E(RB3LYP) =  -1032.42910801     A.U. after    6 cycles
 Optimization completed.
    -- Stationary point found.
 Normal termination of Gaussian 16 at Fri Dec 11 00:59:49 2020.

 --------------------------------------------------------------------
 #N Geom=AllCheck Guess=TCheck SCRF=Check GenChk RB3LYP/6-31G(d) Freq
 --------------------------------------------------------------------

 Structure from the checkpoint file:  "JID_6825.chk"
 -------------------------------
 CID_116884529_JID_6825_neutraal
 -------------------------------
 Charge =  0 Multiplicity = 1

 SCF Done:  E(RB3LYP) =  -1032.42910801     A.U. after    1 cycles

  Exact polarizability: 207.994  -1.240 154.501  -2.566   2.263 124.253
 Approx polarizability: 265.508   3.024 262.700  -3.382   7.976 185.871

                      1                      2                      3
                      A                      A                      A
 Frequencies --     17.6892                21.4691                45.6501
 Red. masses --      3.5690                 2.8414                 3.0054
 Frc consts  --      0.0007                 0.0008                 0.0037
 IR Inten    --      0.0538                 0.0174                 0.0501

                      4                      5                      6
                      A                      A                      A
 Frequencies --     64.8337               124.4091               137.6879
 Red. masses --      3.7541                 2.8974                 1.3557
 Frc consts  --      0.0093                 0.0264                 0.0151
 IR Inten    --      0.3391                 0.4521                 1.3638

                      7                      8                      9
                      A                      A                      A
 Frequencies --    140.9158               186.4749               210.3041
 Red. masses --      2.5948                 2.4588                 2.9460
 Frc consts  --      0.0304                 0.0504                 0.0768
 IR Inten    --      0.9876                 3.9657                 1.4139

                     10                     11                     12
                      A                      A                      A
 Frequencies --    224.8545               247.8522               259.0573
 Red. masses --      2.3155                 2.4765                 1.5642
 Frc consts  --      0.0690                 0.0896                 0.0618
 IR Inten    --      3.2019                 0.4359                 3.4341

                     13                     14                     15
                      A                      A                      A
 Frequencies --    263.8684               274.7108               293.3304
 Red. masses --      1.0784                 1.9611                 1.6380
 Frc consts  --      0.0442                 0.0872                 0.0830
 IR Inten    --      0.8498                 1.8954                17.3597

                     16                     17                     18
                      A                      A                      A
 Frequencies --    311.6500               315.2350               339.0539
 Red. masses --      1.3800                 1.8814                 2.3294
 Frc consts  --      0.0790                 0.1102                 0.1578
 IR Inten    --      3.0852                 0.2085                23.1787

                     19                     20                     21
                      A                      A                      A
 Frequencies --    360.7086               365.5957               392.6822
 Red. masses --      2.5362                 2.1069                 2.6993
 Frc consts  --      0.1944                 0.1659                 0.2452
 IR Inten    --     10.4310                 6.9901                 2.6383

                     22                     23                     24
                      A                      A                      A
 Frequencies --    423.7668               472.5426               496.8931
 Red. masses --      3.2530                 3.4815                 3.8558
 Frc consts  --      0.3442                 0.4580                 0.5609
 IR Inten    --      4.3933                 2.4135                 1.9668

                     25                     26                     27
                      A                      A                      A
 Frequencies --    536.1878               545.2301               598.4875
 Red. masses --      3.0601                 4.5284                 4.0966
 Frc consts  --      0.5184                 0.7931                 0.8645
 IR Inten    --      1.1332                 3.3178                 3.9043

                     28                     29                     30
                      A                      A                      A
 Frequencies --    619.9625               631.9659               675.7997
 Red. masses --      3.4137                 7.1768                 5.4555
 Frc consts  --      0.7731                 1.6888                 1.4680
 IR Inten    --      8.1467                 1.8919                 1.7918

                     31                     32                     33
                      A                      A                      A
 Frequencies --    697.6300               702.7040               832.3476
 Red. masses --      3.5364                 4.9814                 1.7983
 Frc consts  --      1.0141                 1.4493                 0.7340
 IR Inten    --     12.3691                 2.6339                 1.7936

                     34                     35                     36
                      A                      A                      A
 Frequencies --    845.5515               893.0829               917.2854
 Red. masses --      3.0149                 3.8080                 2.1832
 Frc consts  --      1.2700                 1.7895                 1.0823
 IR Inten    --     31.4392                 8.5877                16.1023

                     37                     38                     39
                      A                      A                      A
 Frequencies --    923.4771               939.9142               967.5452
 Red. masses --      1.5967                 1.5724                 3.0922
 Frc consts  --      0.8023                 0.8185                 1.7055
 IR Inten    --     90.6845                 5.5249                 0.5931

                     40                     41                     42
                      A                      A                      A
 Frequencies --    976.5336               983.6001              1020.6447
 Red. masses --      1.7058                 2.1260                 1.7598
 Frc consts  --      0.9584                 1.2118                 1.0801
 IR Inten    --      2.6958                 1.2443                 0.9790

                     43                     44                     45
                      A                      A                      A
 Frequencies --   1031.3156              1046.7774              1057.2960
 Red. masses --      1.6115                 1.4258                 2.1243
 Frc consts  --      1.0099                 0.9205                 1.3991
 IR Inten    --      5.4454                13.8447                14.7509

                     46                     47                     48
                      A                      A                      A
 Frequencies --   1068.2758              1083.2750              1103.4903
 Red. masses --      2.9017                 1.5063                 1.7651
 Frc consts  --      1.9510                 1.0415                 1.2663
 IR Inten    --      2.6931                 2.6778                 5.8586

                     49                     50                     51
                      A                      A                      A
 Frequencies --   1107.1487              1142.9944              1156.1234
 Red. masses --      1.9106                 2.1023                 1.3616
 Frc consts  --      1.3799                 1.6182                 1.0723
 IR Inten    --     11.1514                15.1505                22.1843

                     52                     53                     54
                      A                      A                      A
 Frequencies --   1190.0542              1198.8797              1215.8751
 Red. masses --      2.3488                 2.0441                 1.4520
 Frc consts  --      1.9599                 1.7310                 1.2647
 IR Inten    --     11.2442                29.2809                 5.4064

                     55                     56                     57
                      A                      A                      A
 Frequencies --   1218.6113              1254.2160              1258.4713
 Red. masses --      2.5088                 1.7847                 2.7803
 Frc consts  --      2.1951                 1.6541                 2.5944
 IR Inten    --      9.0218                15.3514                23.7515

                     58                     59                     60
                      A                      A                      A
 Frequencies --   1279.2032              1301.5520              1316.9070
 Red. masses --      1.7084                 1.7867                 2.0548
 Frc consts  --      1.6471                 1.7833                 2.0996
 IR Inten    --     14.1430                23.1318                 2.6619

                     61                     62                     63
                      A                      A                      A
 Frequencies --   1327.0844              1336.6903              1342.6125
 Red. masses --      1.3081                 1.2493                 2.1410
 Frc consts  --      1.3573                 1.3152                 2.2739
 IR Inten    --      0.2089                 3.1844                20.5439

                     64                     65                     66
                      A                      A                      A
 Frequencies --   1369.4290              1385.6633              1410.8509
 Red. masses --      2.4526                 1.4881                 1.5302
 Frc consts  --      2.7099                 1.6834                 1.7946
 IR Inten    --     35.8888                 8.5639                14.5319

                     67                     68                     69
                      A                      A                      A
 Frequencies --   1424.3893              1431.9017              1445.4486
 Red. masses --      1.2378                 1.2685                 1.2291
 Frc consts  --      1.4797                 1.5324                 1.5130
 IR Inten    --      6.4757                 5.2878                 6.4333

                     70                     71                     72
                      A                      A                      A
 Frequencies --   1481.3654              1504.5196              1512.1109
 Red. masses --      1.1912                 1.1806                 1.0549
 Frc consts  --      1.5401                 1.5745                 1.4210
 IR Inten    --      2.1067                 5.7961                 2.4008

                     73                     74                     75
                      A                      A                      A
 Frequencies --   1514.6391              1517.3952              1523.3015
 Red. masses --      1.0511                 1.0501                 1.0819
 Frc consts  --      1.4208                 1.4245                 1.4791
 IR Inten    --      2.3454                15.4508                 7.0219

                     76                     77                     78
                      A                      A                      A
 Frequencies --   1530.3203              1531.0069              1533.0676
 Red. masses --      1.0660                 1.0524                 1.0506
 Frc consts  --      1.4708                 1.4534                 1.4548
 IR Inten    --      2.7723                 1.0751                 9.4326

                     79                     80                     81
                      A                      A                      A
 Frequencies --   1536.7185              1538.7411              1553.0779
 Red. masses --      1.0714                 1.0646                 1.4399
 Frc consts  --      1.4907                 1.4851                 2.0462
 IR Inten    --      0.6510                 4.7208                13.4008

                     82                     83                     84
                      A                      A                      A
 Frequencies --   1556.9195              1597.8982              1683.4136
 Red. masses --      2.6729                 5.8992                 1.1014
 Frc consts  --      3.8174                 8.8745                 1.8391
 IR Inten    --      4.2417                48.2838                30.6257

                     85                     86                     87
                      A                      A                      A
 Frequencies --   2907.4718              2917.1535              2934.4229
 Red. masses --      1.0738                 1.0714                 1.0635
 Frc consts  --      5.3480                 5.3719                 5.3955
 IR Inten    --     38.6167                55.2316               125.2780

                     88                     89                     90
                      A                      A                      A
 Frequencies --   3042.7213              3044.4832              3049.4056
 Red. masses --      1.0362                 1.0446                 1.0408
 Frc consts  --      5.6521                 5.7048                 5.7022
 IR Inten    --     15.4424                31.3581                37.3319

                     91                     92                     93
                      A                      A                      A
 Frequencies --   3077.6748              3081.8542              3091.3185
 Red. masses --      1.0707                 1.0788                 1.0805
 Frc consts  --      5.9754                 6.0367                 6.0836
 IR Inten    --     36.8824                35.1765                49.7254

                     94                     95                     96
                      A                      A                      A
 Frequencies --   3092.5495              3103.6772              3110.3403
 Red. masses --      1.0758                 1.0944                 1.1013
 Frc consts  --      6.0621                 6.2112                 6.2770
 IR Inten    --     20.9120                17.8018                20.7111

                     97                     98                     99
                      A                      A                      A
 Frequencies --   3111.8495              3119.0204              3121.2687
 Red. masses --      1.0877                 1.1024                 1.1038
 Frc consts  --      6.2057                 6.3185                 6.3355
 IR Inten    --      6.7356                26.6580                27.2887

                    100                    101                    102
                      A                      A                      A
 Frequencies --   3121.4115              3136.1591              3155.3637
 Red. masses --      1.0973                 1.1052                 1.1021
 Frc consts  --      6.2990                 6.4044                 6.4648
 IR Inten    --     50.1634                31.2817                14.8332

                    103                    104                    105
                      A                      A                      A
 Frequencies --   3174.9594              3448.2148              3539.7261
 Red. masses --      1.0997                 1.0492                 1.0926
 Frc consts  --      6.5313                 7.3500                 8.0656
 IR Inten    --      0.7373                 3.7383                 1.5912

 - Thermochemistry -
 -------------------
 Temperature   298.150 Kelvin.  Pressure   1.00000 Atm.
 Atom     1 has atomic number  6 and mass  12.00000

 Molecular mass:   239.14562 amu.
 Principal axes and moments of inertia in atomic units:
                           1         2         3
     Eigenvalues --  1705.804847612.645378288.35651
           X            1.00000  -0.00278  -0.00127
           Y            0.00277   0.99998  -0.00482
           Z            0.00128   0.00482   0.99999
 This molecule is an asymmetric top.
 Rotational symmetry number  1.
 Warning -- assumption of classical behavior for rotation
           may cause significant error
 Rotational temperatures (Kelvin)      0.05078     0.01138     0.01045
 Rotational constants (GHZ):           1.05800     0.23707     0.21774
 Zero-point vibrational energy     851138.6 (Joules/Mol)
                                  203.42701 (Kcal/Mol)
 Warning -- explicit consideration of  28 degrees of freedom as
           vibrations may cause significant error
 Vibrational temperatures:     25.45    30.89    65.68    93.28   179.00
          (Kelvin)            198.10   202.75   268.30   302.58   323.52
                              356.60   372.73   379.65   395.25   422.04
                              448.39   453.55   487.82   518.98   526.01
                              564.98   609.71   679.88   714.92   771.45
                              784.46   861.09   891.99   909.26   972.32
                             1003.73  1011.03  1197.56  1216.56  1284.95
                             1319.77  1328.68  1352.33  1392.08  1405.01
                             1415.18  1468.48  1483.83  1506.08  1521.21
                             1537.01  1558.59  1587.68  1592.94  1644.51
                             1663.40  1712.22  1724.92  1749.37  1753.31
                             1804.54  1810.66  1840.49  1872.64  1894.74
                             1909.38  1923.20  1931.72  1970.30  1993.66
                             2029.90  2049.38  2060.19  2079.68  2131.35
                             2164.67  2175.59  2179.23  2183.19  2191.69
                             2201.79  2202.78  2205.74  2211.00  2213.91
                             2234.53  2240.06  2299.02  2422.06  4183.20
                             4197.13  4221.98  4377.80  4380.33  4387.41
                             4428.09  4434.10  4447.72  4449.49  4465.50
                             4475.09  4477.26  4487.57  4490.81  4491.01
                             4512.23  4539.86  4568.06  4961.21  5092.88

 Zero-point correction=                           0.324182 (Hartree/Particle)
 Thermal correction to Energy=                    0.341572
 Thermal correction to Enthalpy=                  0.342516
 Thermal correction to Gibbs Free Energy=         0.277796
 Sum of electronic and zero-point Energies=          -1032.104926
 Sum of electronic and thermal Energies=             -1032.087536
 Sum of electronic and thermal Enthalpies=           -1032.086592
 Sum of electronic and thermal Free Energies=        -1032.151313

                     E (Thermal)             CV                S
                      KCal/Mol        Cal/Mol-Kelvin    Cal/Mol-Kelvin
 Total                  214.340             65.954            136.216
 Electronic               0.000              0.000              0.000
 Translational            0.889              2.981             42.317
 Rotational               0.889              2.981             33.042
 Vibrational            212.562             59.992             60.857
 Vibration     1          0.593              1.986              6.878
 Vibration     2          0.593              1.985              6.493
 Vibration     3          0.595              1.979              4.997
 Vibration     4          0.597              1.971              4.304
 Vibration     5          0.610              1.929              3.031
 Vibration     6          0.614              1.916              2.836
 Vibration     7          0.615              1.912              2.791
 Vibration     8          0.632              1.858              2.263
 Vibration     9          0.642              1.825              2.041
 Vibration    10          0.650              1.803              1.920
 Vibration    11          0.661              1.766              1.746
 Vibration    12          0.668              1.747              1.668
 Vibration    13          0.670              1.739              1.636
 Vibration    14          0.677              1.720              1.566
 Vibration    15          0.688              1.686              1.455
 Vibration    16          0.700              1.651              1.354
 Vibration    17          0.703              1.645              1.335
 Vibration    18          0.719              1.597              1.217
 Vibration    19          0.735              1.553              1.119
 Vibration    20          0.739              1.543              1.098
 Vibration    21          0.760              1.486              0.990
 Vibration    22          0.786              1.419              0.879
 Vibration    23          0.829              1.311              0.730
 Vibration    24          0.852              1.257              0.666
 Vibration    25          0.891              1.170              0.574
 Vibration    26          0.900              1.150              0.554
 Vibration    27          0.956              1.035              0.452
 Vibration    28          0.980              0.990              0.417

 Optimization completed.
    -- Stationary point found.
 Normal termination of Gaussian 16 at Fri Dec 11 01:11:30 2020.

 ----------------------------------------------------------------------
 # B3LYP/6-311++G(d,p) empiricaldispersion=gd3bj scf=xqc pop=npa geom=c
 heck
 ----------------------------------------------------------------------

 ---------------------------------------
 CID_116884529_JID_6825_Energie_neutraal
 ---------------------------------------
 Structure from the checkpoint file:  "JID_6825.chk"
 Charge =  0 Multiplicity = 1

 SCF Done:  E(RB3LYP) =  -1032.63253025     A.U. after   16 cycles
 Normal termination of Gaussian 16 at Fri Dec 11 01:17:43 2020.

 ----------------------------------------------------------------------
 # B3LYP/6-311++G(d,p) empiricaldispersion=gd3bj scf=xqc pop=npa geom=c
 heck
 ----------------------------------------------------------------------

 -------------------------------------
 CID_116884529_JID_6825_Energie_kation
 -------------------------------------
 Structure from the checkpoint file:  "JID_6825.chk"
 Charge =  1 Multiplicity = 2

 SCF Done:  E(UB3LYP) =  -1032.35117428     A.U. after   27 cycles
 Normal termination of Gaussian 16 at Fri Dec 11 01:31:54 2020.
 Gaussian 16:  ES64L-G16RevA.03 25-Dec-2016

 ----------------------------------------------------------------------
 # B3LYP/6-311++G(d,p) empiricaldispersion=gd3bj scf=xqc pop=npa geom=c
 heck
 ----------------------------------------------------------------------

 ------------------------------------
 CID_116884529_JID_6825_Energie_anion
 ------------------------------------
 Structure from the checkpoint file:  "JID_6825.chk"
 Charge = -1 Multiplicity = 2

                         Standard orientation:
 ---------------------------------------------------------------------
 Center     Atomic      Atomic             Coordinates (Angstroms)
 Number     Number       Type             X           Y           Z
 ---------------------------------------------------------------------
      1          6           0       -2.674685    2.419395    0.311396
      2          6           0       -1.615330    1.372517    0.122020
      3          6           0       -1.799901    0.017842   -0.024660
      4         16           0       -0.234518   -0.763913   -0.156333
      5          6           0        0.542185    0.809318   -0.015745
      6          7           0       -0.295427    1.794834    0.117487
      7          6           0        2.028646    0.972378   -0.085062
      8          6           0        2.672110    0.558521   -1.451830
      9          6           0        3.790616   -0.423743   -1.066714
     10          7           0        4.111685   -0.062129    0.311449
     11          6           0        2.815152    0.132781    0.946020
     12          6           0        4.962673   -1.017514    0.991117
     13          6           0       -3.089819   -0.791833   -0.008529
     14          6           0       -2.849364   -2.251307   -0.447096
     15          6           0       -3.681791   -0.786660    1.413923
     16          7           0       -4.060519   -0.116973   -0.898068
     17          1           0       -2.699098    2.754572    1.356640
     18          1           0       -2.437162    3.296783   -0.299430
     19          1           0       -3.655917    2.035837    0.031212
     20          1           0        2.214315    2.033349    0.096372
     21          1           0        3.075527    1.442910   -1.951600
     22          1           0        1.942322    0.100386   -2.124143
     23          1           0        4.678710   -0.346306   -1.703320
     24          1           0        3.420873   -1.467665   -1.133561
     25          1           0        2.298648   -0.832113    1.126799
     26          1           0        2.918592    0.638099    1.911898
     27          1           0        5.165773   -0.674388    2.011238
     28          1           0        4.511758   -2.028557    1.050579
     29          1           0        5.919067   -1.101754    0.463895
     30          1           0       -2.167378   -2.782125    0.226790
     31          1           0       -3.802937   -2.792024   -0.446284
     32          1           0       -2.433368   -2.294658   -1.459767
     33          1           0       -3.885253    0.235295    1.741586
     34          1           0       -4.622146   -1.352272    1.438551
     35          1           0       -2.985820   -1.250106    2.119698
     36          1           0       -3.684257   -0.096464   -1.845520
     37          1           0       -4.913091   -0.676488   -0.935416
 ---------------------------------------------------------------------

 SCF Done:  E(UB3LYP) =  -1032.61985660     A.U. after   33 cycles
 SCF Done:  E(UB3LYP) =  -1032.61985660     a.u. after    1 cycles

 The electronic state is 2-A.
 Alpha  occ. eigenvalues --  -88.77454 -14.22012 -14.20733 -14.19379 -10.13144
 Alpha  occ. eigenvalues --  -10.12754 -10.10794 -10.10647 -10.10300 -10.09983
 Alpha  occ. eigenvalues --  -10.09866 -10.09848 -10.08601 -10.06625 -10.06543
 Alpha  occ. eigenvalues --  -10.06308  -7.86112  -5.82381  -5.82032  -5.81724
 Alpha  occ. eigenvalues --   -0.86283  -0.85202  -0.80177  -0.71553  -0.69981
 Alpha  occ. eigenvalues --   -0.66961  -0.65154  -0.64249  -0.60017  -0.59629
 Alpha  occ. eigenvalues --   -0.57080  -0.52961  -0.49519  -0.48920  -0.44967
 Alpha  occ. eigenvalues --   -0.43935  -0.41023  -0.40639  -0.38536  -0.36701
 Alpha  occ. eigenvalues --   -0.36159  -0.35387  -0.34485  -0.33493  -0.32948
 Alpha  occ. eigenvalues --   -0.32374  -0.31575  -0.30327  -0.29766  -0.29544
 Alpha  occ. eigenvalues --   -0.28771  -0.27936  -0.27847  -0.27501  -0.26291
 Alpha  occ. eigenvalues --   -0.26150  -0.25759  -0.25385  -0.24414  -0.23834
 Alpha  occ. eigenvalues --   -0.17991  -0.17234  -0.15038  -0.13791  -0.13020
 Alpha  occ. eigenvalues --    0.04195
 Alpha virt. eigenvalues --    0.05166   0.06555   0.07346   0.07741   0.08084
 Alpha virt. eigenvalues --    0.08259   0.08451   0.09515   0.09760   0.10233
 Alpha virt. eigenvalues --    0.10542   0.10837   0.11082   0.11326   0.11810

  Beta  occ. eigenvalues --  -88.77446 -14.22010 -14.20717 -14.19321 -10.13053
  Beta  occ. eigenvalues --  -10.12755 -10.10779 -10.10631 -10.10291 -10.09947
  Beta  occ. eigenvalues --  -10.09872 -10.09792 -10.08594 -10.06605 -10.06508
  Beta  occ. eigenvalues --  -10.06302  -7.86104  -5.82376  -5.82029  -5.81696
  Beta  occ. eigenvalues --   -0.86210  -0.85180  -0.80093  -0.71500  -0.69894
  Beta  occ. eigenvalues --   -0.66908  -0.65098  -0.64222  -0.59958  -0.59571
  Beta  occ. eigenvalues --   -0.57020  -0.52888  -0.49473  -0.48879  -0.44897
  Beta  occ. eigenvalues --   -0.43871  -0.40991  -0.40589  -0.38476  -0.36652
  Beta  occ. eigenvalues --   -0.36115  -0.35330  -0.34457  -0.33423  -0.32900
  Beta  occ. eigenvalues --   -0.32319  -0.31527  -0.30290  -0.29670  -0.29469
  Beta  occ. eigenvalues --   -0.28744  -0.27897  -0.27814  -0.27466  -0.26240
  Beta  occ. eigenvalues --   -0.26105  -0.25724  -0.25314  -0.24362  -0.23811
  Beta  occ. eigenvalues --   -0.17808  -0.17202  -0.14973  -0.13767  -0.12750
  Beta virt. eigenvalues --    0.06033   0.06615   0.07162   0.07537   0.07883
  Beta virt. eigenvalues --    0.08526   0.08683   0.08795   0.09790   0.10142
  Beta virt. eigenvalues --    0.10320   0.10691   0.10952   0.11150   0.11419

 Mulliken charges and spin densities:
               1          2
     1  C    0.075725  -0.684735
     2  C   -0.154920  -0.500330
     3  C    3.173141  -1.179950
     4  S   -0.386404  -0.518493
     5  C    0.254924  -0.066290
     6  N    0.145262   0.025681
     7  C   -0.104704  -0.317787
     8  C   -0.717158   0.344676
     9  C    0.232384  -0.542855
    10  N   -0.007821   0.116622
    11  C   -0.626453   0.238979
    12  C    0.750789  -0.999872
    13  C   -2.962945   2.209443
    14  C    0.240269  -0.526146
    15  C    0.155768  -0.835232
    16  N   -0.144976  -0.046295
    17  H    0.148831   0.011089
    18  H    0.094124   0.045457
    19  H    0.176030   0.042216
    20  H    0.208628   0.007461
    21  H    0.133830   0.003000
    22  H    0.143079  -0.000816
    23  H   -0.219149   0.397797
    24  H    0.108227   0.002233
    25  H    0.132912  -0.029629
    26  H    0.121835   0.053022
    27  H   -0.227674   0.358145
    28  H   -0.027460   0.134061
    29  H   -0.444280   0.591270
    30  H   -0.001250   0.140518
    31  H   -0.896482   1.070693
    32  H    0.071454   0.077901
    33  H    0.170878  -0.011572
    34  H   -0.295916   0.448023
    35  H    0.030451   0.112354
    36  H   -0.060457   0.293147
    37  H   -0.290494   0.536212
 Sum of Mulliken charges =  -1.00000   1.00000

 Dipole moment (field-independent basis, Debye):
    X=              2.5165    Y=              3.0858    Z=              0.9656  Tot=              4.0972
 Quadrupole moment (field-independent basis, Debye-Ang):
   XX=           -247.4894   YY=           -146.1394   ZZ=           -132.0851
   XY=             -8.7255   XZ=            -11.9785   YZ=             -1.0602

 Summary of Natural Population Analysis:

                                       Natural Population
                Natural  -----------------------------------------------
    Atom  No    Charge         Core      Valence    Rydberg      Total
 -----------------------------------------------------------------------
      C    1   -0.30121      0.99962     2.29671    0.00487     3.30121
      C    2    0.06478      0.99943     1.92098    0.01482     2.93522
      C    3   -0.09879      0.99937     2.08477    0.01465     3.09879
      S    4    0.18174      4.99940     2.80129    0.01758     7.81826
      C    5    0.06483      0.99952     1.91836    0.01729     2.93517
      N    6   -0.24554      0.99963     2.73586    0.01004     3.74554
      C    7   -0.14095      0.99954     2.12836    0.01305     3.14095
      C    8   -0.18594      0.99962     2.17820    0.00812     3.18594
      C    9   -0.08666      0.99963     2.07486    0.01216     3.08666
      N   10   -0.27968      0.99971     2.76703    0.01294     3.77968
      C   11   -0.07718      0.99961     2.06606    0.01151     3.07718
      C   12   -0.17574      0.99965     2.16741    0.00867     3.17574
      C   13    0.03491      0.99953     1.95079    0.01476     2.96509
      C   14   -0.29400      0.99963     2.28684    0.00754     3.29400
      C   15   -0.27948      0.99962     2.27291    0.00695     3.27948
      N   16   -0.42338      0.99976     2.91160    0.01202     3.92338
      H   17    0.09965      0.00000     0.39930    0.00105     0.40035
      H   18    0.10375      0.00000     0.39516    0.00109     0.39625
      H   19    0.12118      0.00000     0.37766    0.00116     0.37882
      H   20    0.11382      0.00000     0.38460    0.00158     0.38618
      H   21    0.10019      0.00000     0.39891    0.00090     0.39981
      H   22    0.10367      0.00000     0.39546    0.00087     0.39633
      H   23    0.09841      0.00000     0.40022    0.00137     0.40159
      H   24    0.07881      0.00000     0.41984    0.00135     0.42119
      H   25    0.08196      0.00000     0.41667    0.00137     0.41804
      H   26    0.09892      0.00000     0.40006    0.00102     0.40108
      H   27    0.09536      0.00000     0.40349    0.00116     0.40464
      H   28    0.07941      0.00000     0.41919    0.00140     0.42059
      H   29    0.09894      0.00000     0.39904    0.00201     0.40106
      H   30    0.10109      0.00000     0.39801    0.00090     0.39891
      H   31    0.10527      0.00000     0.39270    0.00203     0.39473
      H   32    0.10186      0.00000     0.39713    0.00101     0.39814
      H   33    0.10302      0.00000     0.39603    0.00095     0.39698
      H   34    0.09974      0.00000     0.39935    0.00091     0.40026
      H   35    0.10068      0.00000     0.39853    0.00079     0.39932
      H   36    0.17717      0.00000     0.32055    0.00228     0.32283
      H   37    0.17945      0.00000     0.31493    0.00563     0.32055
 =======================================================================
   * Total *    0.00007     19.99328    44.78885    0.21780    64.99993

 Normal termination of Gaussian 16 at Fri Dec 11 01:49:13 2020.
