 Gaussian 16, Revision A.03,

 -----------------------------------------------------------
 # opt freq B3LYP/6-31G(d) empiricaldispersion=gd3bj scf=xqc
 -----------------------------------------------------------

 --------------------------------
 CID_105408422_JID_10791_neutraal
 --------------------------------
 Symbolic Z-matrix:
 Charge =  0 Multiplicity = 1

 SCF Done:  E(RB3LYP) =  -790.307694889     A.U. after   14 cycles
 SCF Done:  E(RB3LYP) =  -790.313471136     A.U. after   12 cycles
 SCF Done:  E(RB3LYP) =  -790.314158467     A.U. after   12 cycles
 SCF Done:  E(RB3LYP) =  -790.314570616     A.U. after   12 cycles
 SCF Done:  E(RB3LYP) =  -790.314573633     A.U. after   11 cycles
 SCF Done:  E(RB3LYP) =  -790.314615596     A.U. after    9 cycles
 SCF Done:  E(RB3LYP) =  -790.314846036     A.U. after   11 cycles
 SCF Done:  E(RB3LYP) =  -790.315006681     A.U. after   11 cycles
 SCF Done:  E(RB3LYP) =  -790.315115079     A.U. after   12 cycles
 SCF Done:  E(RB3LYP) =  -790.315135421     A.U. after   10 cycles
 SCF Done:  E(RB3LYP) =  -790.315156934     A.U. after    9 cycles
 SCF Done:  E(RB3LYP) =  -790.315158016     A.U. after    8 cycles
 SCF Done:  E(RB3LYP) =  -790.315158374     A.U. after    7 cycles
 SCF Done:  E(RB3LYP) =  -790.315158597     A.U. after    8 cycles
 SCF Done:  E(RB3LYP) =  -790.315158631     A.U. after    7 cycles
 Optimization completed.
    -- Stationary point found.
 Normal termination of Gaussian 16 at Sun Dec 13 20:48:49 2020.

 --------------------------------------------------------------------
 #N Geom=AllCheck Guess=TCheck SCRF=Check GenChk RB3LYP/6-31G(d) Freq
 --------------------------------------------------------------------

 Structure from the checkpoint file:  "JID_10791.chk"
 --------------------------------
 CID_105408422_JID_10791_neutraal
 --------------------------------
 Charge =  0 Multiplicity = 1

 SCF Done:  E(RB3LYP) =  -790.315158631     A.U. after    1 cycles

  Exact polarizability: 309.962 -26.783 217.115   6.139  18.786 117.834
 Approx polarizability: 443.524 -49.487 349.535  14.420  45.972 197.336

                      1                      2                      3
                      A                      A                      A
 Frequencies --     27.7114                33.5837                55.2767
 Red. masses --      3.8264                 3.4778                 3.4416
 Frc consts  --      0.0017                 0.0023                 0.0062
 IR Inten    --      0.0872                 0.4582                 0.6273

                      4                      5                      6
                      A                      A                      A
 Frequencies --     71.3718                91.0316               100.4936
 Red. masses --      4.0534                 2.0995                 3.5255
 Frc consts  --      0.0122                 0.0103                 0.0210
 IR Inten    --      0.3457                 2.0012                 0.9010

                      7                      8                      9
                      A                      A                      A
 Frequencies --    145.8670               163.2312               168.9002
 Red. masses --      1.3032                 2.6730                 3.3044
 Frc consts  --      0.0163                 0.0420                 0.0555
 IR Inten    --      0.6605                 0.6414                 0.5493

                     10                     11                     12
                      A                      A                      A
 Frequencies --    193.8055               230.0395               256.9209
 Red. masses --      3.2612                 3.9102                 1.2281
 Frc consts  --      0.0722                 0.1219                 0.0478
 IR Inten    --      0.2478                 0.2742                 1.4407

                     13                     14                     15
                      A                      A                      A
 Frequencies --    271.5693               303.5377               325.0137
 Red. masses --      3.8530                 3.5599                 3.6935
 Frc consts  --      0.1674                 0.1932                 0.2299
 IR Inten    --      0.2087                 0.4152                 0.9096

                     16                     17                     18
                      A                      A                      A
 Frequencies --    338.1665               363.3045               400.0086
 Red. masses --      3.4532                 3.8624                 3.6665
 Frc consts  --      0.2327                 0.3004                 0.3457
 IR Inten    --      0.1025                 0.6568                 0.4179

                     19                     20                     21
                      A                      A                      A
 Frequencies --    410.7007               456.1066               479.7184
 Red. masses --      3.3360                 3.3089                 3.0823
 Frc consts  --      0.3315                 0.4056                 0.4179
 IR Inten    --      1.2121                 1.4709                 7.2488

                     22                     23                     24
                      A                      A                      A
 Frequencies --    492.8131               527.3998               544.1575
 Red. masses --      2.6299                 6.7624                 4.1755
 Frc consts  --      0.3763                 1.1082                 0.7285
 IR Inten    --      8.7705                 0.1050                 1.2791

                     25                     26                     27
                      A                      A                      A
 Frequencies --    553.0247               579.5493               619.8628
 Red. masses --      4.1969                 5.3387                 4.7211
 Frc consts  --      0.7563                 1.0565                 1.0688
 IR Inten    --      1.8184                 4.0588                 1.5122

                     28                     29                     30
                      A                      A                      A
 Frequencies --    644.2941               678.4251               708.7920
 Red. masses --      6.6351                 3.1209                 5.8781
 Frc consts  --      1.6228                 0.8463                 1.7399
 IR Inten    --      1.2511                 0.8809                 9.0108

                     31                     32                     33
                      A                      A                      A
 Frequencies --    743.6413               762.6374               778.1308
 Red. masses --      3.1240                 1.4972                 2.8849
 Frc consts  --      1.0179                 0.5130                 1.0292
 IR Inten    --      1.3190                24.3893                 3.5813

                     34                     35                     36
                      A                      A                      A
 Frequencies --    786.1916               790.5227               809.5431
 Red. masses --      3.0170                 4.7405                 1.4037
 Frc consts  --      1.0987                 1.7454                 0.5420
 IR Inten    --      1.5258                 0.8364                76.1199

                     37                     38                     39
                      A                      A                      A
 Frequencies --    836.0405               841.1071               847.1419
 Red. masses --      1.3465                 1.3819                 4.1793
 Frc consts  --      0.5545                 0.5760                 1.7671
 IR Inten    --     32.3590                17.7514                13.3782

                     40                     41                     42
                      A                      A                      A
 Frequencies --    877.8544               917.0040               919.4364
 Red. masses --      1.5255                 1.5281                 2.3781
 Frc consts  --      0.6926                 0.7571                 1.1845
 IR Inten    --     13.8018                 7.3448                 4.9567

                     43                     44                     45
                      A                      A                      A
 Frequencies --    944.4507               954.4636               956.2610
 Red. masses --      1.8626                 1.3222                 1.3749
 Frc consts  --      0.9789                 0.7097                 0.7407
 IR Inten    --      4.6459                 2.5108                 1.4421

                     46                     47                     48
                      A                      A                      A
 Frequencies --    972.1849               975.1670               987.5059
 Red. masses --      1.5048                 2.4659                 2.2442
 Frc consts  --      0.8380                 1.3816                 1.2894
 IR Inten    --      1.0829                 0.8080                 3.6611

                     49                     50                     51
                      A                      A                      A
 Frequencies --    988.9800              1009.5715              1031.1957
 Red. masses --      1.2822                 1.5221                 1.4538
 Frc consts  --      0.7389                 0.9141                 0.9109
 IR Inten    --      0.0209                10.5413                 9.3803

                     52                     53                     54
                      A                      A                      A
 Frequencies --   1052.8320              1073.8126              1076.5617
 Red. masses --      2.3477                 1.5499                 2.4392
 Frc consts  --      1.5332                 1.0529                 1.6656
 IR Inten    --      2.1532                 5.8208                 0.6791

                     55                     56                     57
                      A                      A                      A
 Frequencies --   1145.1622              1159.3133              1165.4126
 Red. masses --      2.1956                 1.7482                 1.5901
 Frc consts  --      1.6965                 1.3843                 1.2724
 IR Inten    --     15.6590                 6.2768                24.0245

                     58                     59                     60
                      A                      A                      A
 Frequencies --   1175.2592              1187.5594              1191.1439
 Red. masses --      1.4948                 1.2157                 1.1858
 Frc consts  --      1.2164                 1.0102                 0.9913
 IR Inten    --      0.1506                 0.8077                 1.1985

                     61                     62                     63
                      A                      A                      A
 Frequencies --   1197.3175              1208.2993              1233.6117
 Red. masses --      1.7708                 2.0374                 1.9107
 Frc consts  --      1.4957                 1.7525                 1.7132
 IR Inten    --      9.7857                 5.5979                 0.4923

                     64                     65                     66
                      A                      A                      A
 Frequencies --   1240.1364              1273.2815              1286.3130
 Red. masses --      2.2150                 1.7728                 1.3901
 Frc consts  --      2.0071                 1.6934                 1.3552
 IR Inten    --      2.4185                 0.6564                 9.9499

                     67                     68                     69
                      A                      A                      A
 Frequencies --   1301.3329              1306.9672              1326.0478
 Red. masses --      1.7619                 1.8778                 1.9012
 Frc consts  --      1.7579                 1.8898                 1.9697
 IR Inten    --      3.8953                 6.1660                 9.1293

                     70                     71                     72
                      A                      A                      A
 Frequencies --   1346.0943              1391.3656              1404.3213
 Red. masses --      4.0091                 2.2108                 1.8204
 Frc consts  --      4.2801                 2.5216                 2.1152
 IR Inten    --      0.2380                 1.2343                27.3947

                     73                     74                     75
                      A                      A                      A
 Frequencies --   1416.4427              1424.6725              1445.7997
 Red. masses --      3.0108                 6.1171                 1.2363
 Frc consts  --      3.5590                 7.3152                 1.5226
 IR Inten    --      4.9156                 0.4839                 0.7737

                     76                     77                     78
                      A                      A                      A
 Frequencies --   1457.3189              1482.6550              1484.0200
 Red. masses --      2.5264                 1.3773                 1.9941
 Frc consts  --      3.1613                 1.7838                 2.5875
 IR Inten    --      5.4131                 1.8588                 0.0781

                     79                     80                     81
                      A                      A                      A
 Frequencies --   1503.9283              1517.5170              1517.8723
 Red. masses --      1.2292                 1.0730                 1.1262
 Frc consts  --      1.6380                 1.4558                 1.5287
 IR Inten    --     31.2444                 5.5108                15.4810

                     82                     83                     84
                      A                      A                      A
 Frequencies --   1520.8148              1523.0155              1538.6111
 Red. masses --      1.7302                 1.2445                 1.0864
 Frc consts  --      2.3577                 1.7008                 1.5154
 IR Inten    --      3.3435                11.8199                 9.8077

                     85                     86                     87
                      A                      A                      A
 Frequencies --   1547.0581              1549.4888              1562.7701
 Red. masses --      1.2033                 2.0249                 3.3412
 Frc consts  --      1.6969                 2.8644                 4.8078
 IR Inten    --      5.7180                15.8293                10.6189

                     88                     89                     90
                      A                      A                      A
 Frequencies --   1624.2622              1632.0250              1662.3356
 Red. masses --      6.2410                 5.9702                 5.3630
 Frc consts  --      9.7010                 9.3690                 8.7317
 IR Inten    --      0.9982                 2.8365                 5.4555

                     91                     92                     93
                      A                      A                      A
 Frequencies --   1669.7261              1690.1081              2931.3336
 Red. masses --      5.9696                 6.2093                 1.0736
 Frc consts  --      9.8059                10.4501                 5.4354
 IR Inten    --      5.4430                 5.3304                66.4108

                     94                     95                     96
                      A                      A                      A
 Frequencies --   2951.8494              3024.7567              3047.0013
 Red. masses --      1.0614                 1.0854                 1.0411
 Frc consts  --      5.4490                 5.8509                 5.6950
 IR Inten    --    150.3845                32.0516                28.3079

                     97                     98                     99
                      A                      A                      A
 Frequencies --   3072.9665              3103.3146              3121.7707
 Red. masses --      1.0731                 1.0952                 1.1021
 Frc consts  --      5.9705                 6.2141                 6.3279
 IR Inten    --     40.5080                21.6797                31.1571

                    100                    101                    102
                      A                      A                      A
 Frequencies --   3133.7552              3171.0008              3177.5932
 Red. masses --      1.1023                 1.0866                 1.0859
 Frc consts  --      6.3778                 6.4373                 6.4599
 IR Inten    --     19.5939                12.4706                 0.9581

                    103                    104                    105
                      A                      A                      A
 Frequencies --   3180.6259              3182.8777              3187.6330
 Red. masses --      1.0880                 1.0883                 1.0896
 Frc consts  --      6.4847                 6.4957                 6.5230
 IR Inten    --      8.1670                 8.6793                 4.9577

                    106                    107                    108
                      A                      A                      A
 Frequencies --   3188.8677              3196.2991              3209.3424
 Red. masses --      1.0943                 1.0933                 1.0970
 Frc consts  --      6.5563                 6.5806                 6.6570
 IR Inten    --     38.9740                36.5526                44.2777

                    109                    110                    111
                      A                      A                      A
 Frequencies --   3210.9138              3211.2628              3489.8599
 Red. masses --      1.0930                 1.0903                 1.0742
 Frc consts  --      6.6395                 6.6245                 7.7079
 IR Inten    --     10.7708                 2.3455                 0.4714

 - Thermochemistry -
 -------------------
 Temperature   298.150 Kelvin.  Pressure   1.00000 Atm.
 Atom     1 has atomic number  6 and mass  12.00000

 Molecular mass:   261.15175 amu.
 Principal axes and moments of inertia in atomic units:
                           1         2         3
     Eigenvalues --  3304.948419821.71059**********
           X            0.99986   0.01688  -0.00031
           Y           -0.01689   0.99986  -0.00150
           Z            0.00029   0.00150   1.00000
 This molecule is an asymmetric top.
 Rotational symmetry number  1.
 Warning -- assumption of classical behavior for rotation
           may cause significant error
 Rotational temperatures (Kelvin)      0.02621     0.00882     0.00697
 Rotational constants (GHZ):           0.54607     0.18375     0.14524
 Zero-point vibrational energy     868903.5 (Joules/Mol)
                                  207.67292 (Kcal/Mol)
 Warning -- explicit consideration of  27 degrees of freedom as
           vibrations may cause significant error
 Vibrational temperatures:     39.87    48.32    79.53   102.69   130.97
          (Kelvin)            144.59   209.87   234.85   243.01   278.84
                              330.98   369.65   390.73   436.72   467.62
                              486.55   522.71   575.52   590.91   656.24
                              690.21   709.05   758.81   782.92   795.68
                              833.84   891.84   927.00   976.10  1019.79
                             1069.93  1097.27  1119.56  1131.15  1137.39
                             1164.75  1202.88  1210.17  1218.85  1263.04
                             1319.36  1322.86  1358.85  1373.26  1375.85
                             1398.76  1403.05  1420.80  1422.92  1452.55
                             1483.66  1514.79  1544.98  1548.93  1647.63
                             1667.99  1676.77  1690.94  1708.63  1713.79
                             1722.67  1738.47  1774.89  1784.28  1831.97
                             1850.72  1872.33  1880.43  1907.89  1936.73
                             2001.86  2020.51  2037.95  2049.79  2080.18
                             2096.76  2133.21  2135.17  2163.82  2183.37
                             2183.88  2188.11  2191.28  2213.72  2225.87
                             2229.37  2248.48  2336.95  2348.12  2391.73
                             2402.36  2431.69  4217.54  4247.05  4351.95
                             4383.96  4421.31  4464.98  4491.53  4508.77
                             4562.36  4571.85  4576.21  4579.45  4586.29
                             4588.07  4598.76  4617.53  4619.79  4620.29
                             5021.13

 Zero-point correction=                           0.330948 (Hartree/Particle)
 Thermal correction to Energy=                    0.348333
 Thermal correction to Enthalpy=                  0.349277
 Thermal correction to Gibbs Free Energy=         0.284518
 Sum of electronic and zero-point Energies=           -789.984211
 Sum of electronic and thermal Energies=              -789.966825
 Sum of electronic and thermal Enthalpies=            -789.965881
 Sum of electronic and thermal Free Energies=         -790.030641

                     E (Thermal)             CV                S
                      KCal/Mol        Cal/Mol-Kelvin    Cal/Mol-Kelvin
 Total                  218.582             68.457            136.298
 Electronic               0.000              0.000              0.000
 Translational            0.889              2.981             42.579
 Rotational               0.889              2.981             34.355
 Vibrational            216.805             62.495             59.363
 Vibration     1          0.593              1.984              5.987
 Vibration     2          0.594              1.983              5.606
 Vibration     3          0.596              1.975              4.619
 Vibration     4          0.598              1.968              4.115
 Vibration     5          0.602              1.956              3.638
 Vibration     6          0.604              1.949              3.445
 Vibration     7          0.617              1.907              2.725
 Vibration     8          0.623              1.888              2.512
 Vibration     9          0.625              1.881              2.448
 Vibration    10          0.635              1.848              2.191
 Vibration    11          0.652              1.795              1.879
 Vibration    12          0.667              1.751              1.683
 Vibration    13          0.675              1.726              1.586
 Vibration    14          0.695              1.667              1.397
 Vibration    15          0.709              1.625              1.285
 Vibration    16          0.718              1.599              1.221
 Vibration    17          0.737              1.548              1.108
 Vibration    18          0.766              1.470              0.963
 Vibration    19          0.775              1.447              0.924
 Vibration    20          0.814              1.347              0.778
 Vibration    21          0.836              1.295              0.711
 Vibration    22          0.849              1.266              0.676
 Vibration    23          0.882              1.189              0.593
 Vibration    24          0.899              1.152              0.556
 Vibration    25          0.908              1.133              0.538
 Vibration    26          0.936              1.076              0.486
 Vibration    27          0.980              0.990              0.417

 Optimization completed.
    -- Stationary point found.
 Normal termination of Gaussian 16 at Sun Dec 13 21:07:24 2020.

 ----------------------------------------------------------------------
 # B3LYP/6-311++G(d,p) empiricaldispersion=gd3bj scf=xqc pop=npa geom=c
 heck
 ----------------------------------------------------------------------

 ----------------------------------------
 CID_105408422_JID_10791_Energie_neutraal
 ----------------------------------------
 Structure from the checkpoint file:  "JID_10791.chk"
 Charge =  0 Multiplicity = 1

 SCF Done:  E(RB3LYP) =  -790.515010757     A.U. after   15 cycles
 Normal termination of Gaussian 16 at Sun Dec 13 21:14:52 2020.

 ----------------------------------------------------------------------
 # B3LYP/6-311++G(d,p) empiricaldispersion=gd3bj scf=xqc pop=npa geom=c
 heck
 ----------------------------------------------------------------------

 --------------------------------------
 CID_105408422_JID_10791_Energie_kation
 --------------------------------------
 Structure from the checkpoint file:  "JID_10791.chk"
 Charge =  1 Multiplicity = 2

 SCF Done:  E(UB3LYP) =  -790.243806113     A.U. after   26 cycles
 Normal termination of Gaussian 16 at Sun Dec 13 21:32:58 2020.
 Gaussian 16:  ES64L-G16RevA.03 25-Dec-2016

 ----------------------------------------------------------------------
 # B3LYP/6-311++G(d,p) empiricaldispersion=gd3bj scf=xqc pop=npa geom=c
 heck
 ----------------------------------------------------------------------

 -------------------------------------
 CID_105408422_JID_10791_Energie_anion
 -------------------------------------
 Structure from the checkpoint file:  "JID_10791.chk"
 Charge = -1 Multiplicity = 2

                         Standard orientation:
 ---------------------------------------------------------------------
 Center     Atomic      Atomic             Coordinates (Angstroms)
 Number     Number       Type             X           Y           Z
 ---------------------------------------------------------------------
      1          6           0       -0.482733    3.369685   -0.796607
      2          6           0       -1.389835    2.221648   -0.417737
      3          6           0       -0.891329    0.972032    0.015371
      4          6           0       -1.788154   -0.065228    0.301887
      5          6           0       -3.170692    0.098878    0.184653
      6          6           0       -3.656251    1.336614   -0.239851
      7          6           0       -2.774715    2.374691   -0.535616
      8          6           0       -4.108172   -1.037020    0.525855
      9          7           0       -3.631624   -2.306736   -0.016233
     10          6           0       -4.532094   -3.415505    0.268190
     11          6           0        0.564603    0.706588    0.160070
     12          6           0        1.139352   -0.391942   -0.452187
     13          6           0        2.518787   -0.687900   -0.313219
     14          6           0        3.118609   -1.809006   -0.945840
     15          6           0        4.461277   -2.069265   -0.793627
     16          6           0        5.269121   -1.218447   -0.000159
     17          6           0        4.717427   -0.123352    0.625181
     18          6           0        3.336524    0.172234    0.487414
     19          6           0        2.728534    1.289759    1.117080
     20          6           0        1.388850    1.549397    0.958964
     21          1           0       -0.176493    3.959035    0.076772
     22          1           0        0.433130    3.019270   -1.281449
     23          1           0       -0.995506    4.051955   -1.482046
     24          1           0       -1.402887   -1.025845    0.628490
     25          1           0       -4.727556    1.488184   -0.349687
     26          1           0       -3.169032    3.325289   -0.887187
     27          1           0       -4.169350   -1.156134    1.617904
     28          1           0       -5.131931   -0.779482    0.191071
     29          1           0       -3.515111   -2.206447   -1.023091
     30          1           0       -5.573681   -3.254108   -0.068457
     31          1           0       -4.153775   -4.325926   -0.207467
     32          1           0       -4.559310   -3.589227    1.350532
     33          1           0        0.524386   -1.042826   -1.068337
     34          1           0        2.495156   -2.460122   -1.553506
     35          1           0        4.907762   -2.930707   -1.282211
     36          1           0        6.327699   -1.434731    0.112508
     37          1           0        5.333563    0.532392    1.235534
     38          1           0        3.341881    1.937741    1.738445
     39          1           0        0.937759    2.395679    1.466889
 ---------------------------------------------------------------------

 SCF Done:  E(UB3LYP) =  -790.514679311     A.U. after   33 cycles
 SCF Done:  E(UB3LYP) =  -790.514679310     a.u. after    1 cycles

 The electronic state is 2-A.
 Alpha  occ. eigenvalues --  -14.20706 -10.10007 -10.09964 -10.06763 -10.06706
 Alpha  occ. eigenvalues --  -10.06339 -10.06234 -10.06161 -10.06015 -10.05324
 Alpha  occ. eigenvalues --  -10.04982 -10.04879 -10.04350 -10.04272 -10.04226
 Alpha  occ. eigenvalues --  -10.04000 -10.03543 -10.03438 -10.03359 -10.02612
 Alpha  occ. eigenvalues --   -0.81549  -0.75369  -0.73879  -0.69567  -0.67421
 Alpha  occ. eigenvalues --   -0.64966  -0.63469  -0.61787  -0.60322  -0.58525
 Alpha  occ. eigenvalues --   -0.56915  -0.53443  -0.51171  -0.48881  -0.48045
 Alpha  occ. eigenvalues --   -0.46433  -0.45382  -0.40902  -0.38487  -0.38207
 Alpha  occ. eigenvalues --   -0.37784  -0.36487  -0.35842  -0.35039  -0.33422
 Alpha  occ. eigenvalues --   -0.32564  -0.31655  -0.31474  -0.31064  -0.30268
 Alpha  occ. eigenvalues --   -0.28844  -0.28655  -0.28289  -0.28038  -0.27912
 Alpha  occ. eigenvalues --   -0.27588  -0.26182  -0.24815  -0.24085  -0.23186
 Alpha  occ. eigenvalues --   -0.22891  -0.20581  -0.20231  -0.19937  -0.16136
 Alpha  occ. eigenvalues --   -0.14596  -0.14051  -0.13049  -0.11201  -0.09223
 Alpha  occ. eigenvalues --    0.04357
 Alpha virt. eigenvalues --    0.05665   0.07381   0.08061   0.08356   0.08474
 Alpha virt. eigenvalues --    0.08817   0.08990   0.09155   0.09807   0.10056
 Alpha virt. eigenvalues --    0.10487   0.11316   0.11611   0.11801   0.12156

  Beta  occ. eigenvalues --  -14.20695 -10.10002 -10.09943 -10.06686 -10.06684
  Beta  occ. eigenvalues --  -10.06363 -10.06203 -10.06168 -10.05937 -10.05315
  Beta  occ. eigenvalues --  -10.05024 -10.04941 -10.04355 -10.04266 -10.04143
  Beta  occ. eigenvalues --  -10.03893 -10.03363 -10.03230 -10.03118 -10.02340
  Beta  occ. eigenvalues --   -0.81531  -0.75224  -0.73678  -0.69291  -0.67301
  Beta  occ. eigenvalues --   -0.64738  -0.63142  -0.61735  -0.60179  -0.58182
  Beta  occ. eigenvalues --   -0.56832  -0.53375  -0.50869  -0.48741  -0.47889
  Beta  occ. eigenvalues --   -0.46160  -0.45232  -0.40838  -0.38335  -0.38107
  Beta  occ. eigenvalues --   -0.37616  -0.36419  -0.35721  -0.34991  -0.33369
  Beta  occ. eigenvalues --   -0.32490  -0.31513  -0.31370  -0.31000  -0.30233
  Beta  occ. eigenvalues --   -0.28723  -0.28507  -0.28241  -0.27975  -0.27839
  Beta  occ. eigenvalues --   -0.27545  -0.25592  -0.24684  -0.23889  -0.23118
  Beta  occ. eigenvalues --   -0.22782  -0.20446  -0.20001  -0.19271  -0.15144
  Beta  occ. eigenvalues --   -0.14297  -0.13750  -0.12810  -0.10766  -0.07806
  Beta virt. eigenvalues --    0.05996   0.07320   0.08031   0.08345   0.08439
  Beta virt. eigenvalues --    0.08571   0.08894   0.09162   0.09706   0.09848
  Beta virt. eigenvalues --    0.10094   0.10452   0.11286   0.11636   0.11979

 Mulliken charges and spin densities:
               1          2
     1  C   -0.560755  -0.025964
     2  C    0.369398   0.060070
     3  C    0.540490   0.163091
     4  C   -0.901551   0.061437
     5  C    0.719452   0.228903
     6  C   -0.696186   0.041779
     7  C   -0.395912  -0.127775
     8  C   -0.249040  -0.521461
     9  N   -0.153971   0.099681
    10  C    0.209613  -0.570403
    11  C    1.267792   0.067590
    12  C   -0.555455   0.190835
    13  C   -0.233525  -0.061229
    14  C   -0.530702   0.170852
    15  C   -0.410612   0.010560
    16  C   -0.201311   0.095020
    17  C   -0.500863   0.125818
    18  C    0.828471  -0.058187
    19  C   -0.441072   0.166669
    20  C   -0.673877   0.018573
    21  H    0.132461   0.020771
    22  H    0.158339   0.001202
    23  H    0.115049   0.002587
    24  H    0.241498  -0.026377
    25  H   -0.012970   0.110874
    26  H    0.131533  -0.001675
    27  H    0.053548   0.091964
    28  H    0.109251   0.022002
    29  H    0.133714   0.057832
    30  H   -0.159875   0.268697
    31  H   -0.034585   0.163621
    32  H   -0.028375   0.164705
    33  H    0.154891  -0.009645
    34  H    0.071548  -0.002781
    35  H    0.109682   0.001112
    36  H    0.110375  -0.006891
    37  H    0.069701  -0.011843
    38  H    0.101069  -0.007543
    39  H    0.112762   0.025530
 Sum of Mulliken charges =  -1.00000   1.00000

 Dipole moment (field-independent basis, Debye):
    X=             -2.2582    Y=              2.5047    Z=             -0.6701  Tot=              3.4383
 Quadrupole moment (field-independent basis, Debye-Ang):
   XX=           -195.9182   YY=           -146.2800   ZZ=           -134.3677
   XY=             -3.7793   XZ=              4.0636   YZ=              2.1832

 Summary of Natural Population Analysis:

                                       Natural Population
                Natural  -----------------------------------------------
    Atom  No    Charge         Core      Valence    Rydberg      Total
 -----------------------------------------------------------------------
      C    1   -0.29442      0.99964     2.29017    0.00461     3.29442
      C    2   -0.02398      0.99953     2.00893    0.01552     3.02398
      C    3    0.04287      0.99950     1.94438    0.01325     2.95713
      C    4   -0.11129      0.99953     2.09321    0.01854     3.11129
      C    5   -0.02876      0.99950     2.01974    0.00952     3.02876
      C    6   -0.09429      0.99952     2.08492    0.00985     3.09429
      C    7   -0.10859      0.99953     2.10031    0.00876     3.10859
      C    8   -0.09107      0.99960     2.07932    0.01215     3.09107
      N    9   -0.33247      0.99975     2.82192    0.01080     3.83247
      C   10   -0.17594      0.99967     2.16942    0.00684     3.17594
      C   11    0.03313      0.99953     1.95510    0.01223     2.96687
      C   12   -0.05818      0.99955     2.04120    0.01743     3.05818
      C   13   -0.04045      0.99950     2.03206    0.00889     3.04045
      C   14   -0.04298      0.99943     2.03451    0.00904     3.04298
      C   15   -0.11880      0.99960     2.10911    0.01010     3.11880
      C   16   -0.09273      0.99957     2.08353    0.00962     3.09273
      C   17   -0.06791      0.99954     2.05932    0.00906     3.06791
      C   18   -0.03602      0.99949     2.02745    0.00908     3.03602
      C   19   -0.06102      0.99954     2.05280    0.00868     3.06102
      C   20   -0.12270      0.99959     2.10540    0.01771     3.12270
      H   21    0.10072      0.00000     0.39783    0.00145     0.39928
      H   22    0.11100      0.00000     0.38784    0.00116     0.38900
      H   23    0.09457      0.00000     0.40437    0.00106     0.40543
      H   24    0.10895      0.00000     0.38919    0.00186     0.39105
      H   25    0.09341      0.00000     0.40538    0.00121     0.40659
      H   26    0.09149      0.00000     0.40701    0.00150     0.40851
      H   27    0.09371      0.00000     0.40501    0.00128     0.40629
      H   28    0.07868      0.00000     0.41958    0.00174     0.42132
      H   29    0.16946      0.00000     0.32708    0.00346     0.33054
      H   30    0.07491      0.00000     0.42247    0.00262     0.42509
      H   31    0.09349      0.00000     0.40545    0.00106     0.40651
      H   32    0.08996      0.00000     0.40860    0.00144     0.41004
      H   33    0.09099      0.00000     0.40648    0.00253     0.40901
      H   34    0.08915      0.00000     0.40904    0.00180     0.41085
      H   35    0.09052      0.00000     0.40837    0.00111     0.40948
      H   36    0.08910      0.00000     0.40984    0.00107     0.41090
      H   37    0.08812      0.00000     0.41031    0.00157     0.41188
      H   38    0.08818      0.00000     0.41012    0.00169     0.41182
      H   39    0.09287      0.00000     0.40518    0.00195     0.40713
 =======================================================================
   * Total *    0.00367     19.99111    49.75197    0.25325    69.99633

 Normal termination of Gaussian 16 at Sun Dec 13 21:55:09 2020.
