 Gaussian 16, Revision A.03,

 -----------------------------------------------------------
 # opt freq B3LYP/6-31G(d) empiricaldispersion=gd3bj scf=xqc
 -----------------------------------------------------------

 -------------------------------
 CID_118653063_JID_2943_neutraal
 -------------------------------
 Symbolic Z-matrix:
 Charge =  0 Multiplicity = 1

 SCF Done:  E(RB3LYP) =  -612.975396479     A.U. after   15 cycles
 SCF Done:  E(RB3LYP) =  -612.980409160     A.U. after   13 cycles
 SCF Done:  E(RB3LYP) =  -612.980804228     A.U. after   12 cycles
 SCF Done:  E(RB3LYP) =  -612.981158157     A.U. after   13 cycles
 SCF Done:  E(RB3LYP) =  -612.981767181     A.U. after   13 cycles
 SCF Done:  E(RB3LYP) =  -612.981738551     A.U. after   13 cycles
 SCF Done:  E(RB3LYP) =  -612.982501851     A.U. after   13 cycles
 SCF Done:  E(RB3LYP) =  -612.982746841     A.U. after   13 cycles
 SCF Done:  E(RB3LYP) =  -612.982912253     A.U. after   12 cycles
 SCF Done:  E(RB3LYP) =  -612.983065531     A.U. after   12 cycles
 SCF Done:  E(RB3LYP) =  -612.983497550     A.U. after   12 cycles
 SCF Done:  E(RB3LYP) =  -612.983500690     A.U. after   11 cycles
 SCF Done:  E(RB3LYP) =  -612.983502489     A.U. after    9 cycles
 SCF Done:  E(RB3LYP) =  -612.983501885     A.U. after   10 cycles
 SCF Done:  E(RB3LYP) =  -612.983502683     A.U. after   10 cycles
 Optimization completed.
    -- Stationary point found.

 1\1\GINC-NODE319\FOpt\RB3LYP\6-31G(d)\C8H12O4\VSC10255\09-Dec-2020\0\\
 # opt freq B3LYP/6-31G(d) empiricaldispersion=gd3bj scf=xqc\\CID_11865
 3063_JID_2943_neutraal\\0,1\C,1.9727863447,-0.3298953692,0.7369699048\
 O,0.951645691,0.1257217681,1.6185021433\C,0.5380318524,-0.7337600279,2
 .5926738128\C,0.9272896105,-2.0083633778,2.7355839831\C,-0.4217891867,
 -0.0425426798,3.5198125409\C,0.1790479641,0.9675273387,4.5101811657\O,
 -0.4629552279,1.3174184389,5.4769303484\C,1.5583998861,1.5558463472,4.
 2175973576\C,2.666956294,0.5179464066,4.240393536\O,3.5962976806,0.465

 Normal termination of Gaussian 16 at Wed Dec  9 18:25:19 2020.

 --------------------------------------------------------------------
 #N Geom=AllCheck Guess=TCheck SCRF=Check GenChk RB3LYP/6-31G(d) Freq
 --------------------------------------------------------------------

 Structure from the checkpoint file:  "JID_2943.chk"
 -------------------------------
 CID_118653063_JID_2943_neutraal
 -------------------------------
 Charge =  0 Multiplicity = 1

 SCF Done:  E(RB3LYP) =  -612.983502683     A.U. after    1 cycles

  Exact polarizability:  89.233  -8.961  94.459   5.250   4.342  90.305
 Approx polarizability: 124.483 -20.870 139.455  13.485   7.714 138.978

                      1                      2                      3
                      A                      A                      A
 Frequencies --     30.5070                55.1206                86.2052
 Red. masses --      3.7977                 5.0245                 5.1944
 Frc consts  --      0.0021                 0.0090                 0.0227
 IR Inten    --      1.1896                 1.0229                 2.6121

                      4                      5                      6
                      A                      A                      A
 Frequencies --     96.1066               109.5564               135.8908
 Red. masses --      3.3619                 4.1236                 3.2734
 Frc consts  --      0.0183                 0.0292                 0.0356
 IR Inten    --      0.2189                 0.8960                 2.7998

                      7                      8                      9
                      A                      A                      A
 Frequencies --    149.3830               187.6137               234.0518
 Red. masses --      1.1956                 3.9671                 4.0488
 Frc consts  --      0.0157                 0.0823                 0.1307
 IR Inten    --      0.1969                 0.0767                20.5911

                     10                     11                     12
                      A                      A                      A
 Frequencies --    259.5718               280.9400               306.5277
 Red. masses --      1.0847                 3.0770                 2.8757
 Frc consts  --      0.0431                 0.1431                 0.1592
 IR Inten    --      0.2281                 7.2858                11.6123

                     13                     14                     15
                      A                      A                      A
 Frequencies --    355.5545               392.7459               405.6579
 Red. masses --      3.1127                 2.6518                 3.7294
 Frc consts  --      0.2318                 0.2410                 0.3616
 IR Inten    --      6.4991                 1.5195                 2.7540

                     16                     17                     18
                      A                      A                      A
 Frequencies --    459.4375               511.3735               562.9441
 Red. masses --      3.3965                 3.9933                 2.8660
 Frc consts  --      0.4224                 0.6153                 0.5351
 IR Inten    --     12.0812                 4.4318                21.2706

                     19                     20                     21
                      A                      A                      A
 Frequencies --    621.4224               666.1320               718.4438
 Red. masses --      3.5841                 3.5767                 3.2760
 Frc consts  --      0.8155                 0.9351                 0.9963
 IR Inten    --      1.2399                 2.9806                 4.6054

                     22                     23                     24
                      A                      A                      A
 Frequencies --    738.1456               813.1206               820.7470
 Red. masses --      1.2571                 2.7593                 1.4368
 Frc consts  --      0.4036                 1.0749                 0.5702
 IR Inten    --      0.5545                 6.8993                61.8204

                     25                     26                     27
                      A                      A                      A
 Frequencies --    870.4592               875.0506               920.9333
 Red. masses --      3.7160                 3.3929                 2.6970
 Frc consts  --      1.6589                 1.5307                 1.3477
 IR Inten    --     11.6342                 9.2119                 4.2316

                     28                     29                     30
                      A                      A                      A
 Frequencies --    975.7819               986.9955              1059.4559
 Red. masses --      2.1548                 2.1055                 4.9566
 Frc consts  --      1.2088                 1.2085                 3.2779
 IR Inten    --      6.6349                 3.9836                35.7880

                     31                     32                     33
                      A                      A                      A
 Frequencies --   1106.7484              1149.0522              1186.9688
 Red. masses --      3.8966                 2.0730                 1.2880
 Frc consts  --      2.8121                 1.6126                 1.0692
 IR Inten    --     58.6718                60.6310                 2.5490

                     34                     35                     36
                      A                      A                      A
 Frequencies --   1192.9287              1218.7603              1226.0469
 Red. masses --      1.2797                 1.7282                 1.5372
 Frc consts  --      1.0729                 1.5124                 1.3614
 IR Inten    --      1.1442                45.9039                36.0659

                     37                     38                     39
                      A                      A                      A
 Frequencies --   1233.6170              1237.0553              1301.8629
 Red. masses --      1.6667                 1.4420                 1.6596
 Frc consts  --      1.4944                 1.3001                 1.6573
 IR Inten    --     89.9214                37.7085                52.5800

                     40                     41                     42
                      A                      A                      A
 Frequencies --   1315.8433              1317.5126              1361.7509
 Red. masses --      1.9976                 1.9554                 2.6966
 Frc consts  --      2.0379                 1.9999                 2.9462
 IR Inten    --    121.1863                39.0495               109.4441

                     43                     44                     45
                      A                      A                      A
 Frequencies --   1449.2977              1469.7668              1476.1612
 Red. masses --      1.1470                 1.0990                 1.1558
 Frc consts  --      1.4195                 1.3988                 1.4838
 IR Inten    --      7.0182                21.3588                 5.7862

                     46                     47                     48
                      A                      A                      A
 Frequencies --   1490.0483              1506.3465              1513.5774
 Red. masses --      1.2123                 1.1827                 1.0479
 Frc consts  --      1.5858                 1.5812                 1.4145
 IR Inten    --     13.9915                 6.4589                 5.8729

                     49                     50                     51
                      A                      A                      A
 Frequencies --   1521.5639              1522.3794              1533.0457
 Red. masses --      1.0469                 1.0456                 1.0528
 Frc consts  --      1.4280                 1.4278                 1.4579
 IR Inten    --      6.1511                 2.4792                 5.0340

                     52                     53                     54
                      A                      A                      A
 Frequencies --   1721.6093              1810.5002              1834.6271
 Red. masses --      5.2998                11.9268                11.0207
 Frc consts  --      9.2551                23.0341                21.8553
 IR Inten    --    102.2308               420.1388                32.2439

                     55                     56                     57
                      A                      A                      A
 Frequencies --   3043.5254              3046.1358              3076.4847
 Red. masses --      1.0363                 1.0687                 1.0297
 Frc consts  --      5.6556                 5.8427                 5.7424
 IR Inten    --     38.3438                 8.9078                25.3393

                     58                     59                     60
                      A                      A                      A
 Frequencies --   3093.3027              3120.3665              3139.6094
 Red. masses --      1.0599                 1.1021                 1.0932
 Frc consts  --      5.9755                 6.3222                 6.3492
 IR Inten    --      0.9932                20.1797                 2.7367

                     61                     62                     63
                      A                      A                      A
 Frequencies --   3154.1310              3157.3784              3170.3278
 Red. masses --      1.1071                 1.1035                 1.1036
 Frc consts  --      6.4891                 6.4814                 6.5355
 IR Inten    --     17.6748                 1.0448                17.8035

                     64                     65                     66
                      A                      A                      A
 Frequencies --   3186.9691              3203.2698              3283.3547
 Red. masses --      1.1072                 1.0598                 1.1167
 Frc consts  --      6.6256                 6.4069                 7.0927
 IR Inten    --     14.1569                 0.1953                 6.1183

 - Thermochemistry -
 -------------------
 Temperature   298.150 Kelvin.  Pressure   1.00000 Atm.
 Atom     1 has atomic number  6 and mass  12.00000

 Molecular mass:   172.07356 amu.
 Principal axes and moments of inertia in atomic units:
                           1         2         3
     Eigenvalues --  1786.896351984.777202700.51995
           X            0.99879   0.04809   0.01064
           Y           -0.04843   0.99823   0.03464
           Z           -0.00895  -0.03511   0.99934
 This molecule is an asymmetric top.
 Rotational symmetry number  1.
 Warning -- assumption of classical behavior for rotation
           may cause significant error
 Rotational temperatures (Kelvin)      0.04847     0.04364     0.03207
 Rotational constants (GHZ):           1.00999     0.90929     0.66829
 Zero-point vibrational energy     514740.0 (Joules/Mol)
                                  123.02580 (Kcal/Mol)
 Warning -- explicit consideration of  18 degrees of freedom as
           vibrations may cause significant error
 Vibrational temperatures:     43.89    79.31   124.03   138.28   157.63
          (Kelvin)            195.52   214.93   269.93   336.75   373.47
                              404.21   441.03   511.56   565.07   583.65
                              661.03   735.75   809.95   894.09   958.42
                             1033.68  1062.03  1169.90  1180.87  1252.40
                             1259.00  1325.02  1403.93  1420.07  1524.32
                             1592.36  1653.23  1707.78  1716.36  1753.52
                             1764.01  1774.90  1779.85  1873.09  1893.21
                             1895.61  1959.26  2085.22  2114.67  2123.87
                             2143.85  2167.30  2177.70  2189.19  2190.36
                             2205.71  2477.01  2604.91  2639.62  4378.95
                             4382.71  4426.38  4450.57  4489.51  4517.20
                             4538.09  4542.76  4561.39  4585.34  4608.79
                             4724.02

 Zero-point correction=                           0.196054 (Hartree/Particle)
 Thermal correction to Energy=                    0.209302
 Thermal correction to Enthalpy=                  0.210246
 Thermal correction to Gibbs Free Energy=         0.155545
 Sum of electronic and zero-point Energies=           -612.787449
 Sum of electronic and thermal Energies=              -612.774201
 Sum of electronic and thermal Enthalpies=            -612.773256
 Sum of electronic and thermal Free Energies=         -612.827957

                     E (Thermal)             CV                S
                      KCal/Mol        Cal/Mol-Kelvin    Cal/Mol-Kelvin
 Total                  131.339             46.879            115.128
 Electronic               0.000              0.000              0.000
 Translational            0.889              2.981             41.336
 Rotational               0.889              2.981             30.639
 Vibrational            129.562             40.917             43.153
 Vibration     1          0.594              1.984              5.796
 Vibration     2          0.596              1.976              4.625
 Vibration     3          0.601              1.959              3.744
 Vibration     4          0.603              1.952              3.532
 Vibration     5          0.606              1.942              3.277
 Vibration     6          0.614              1.917              2.861
 Vibration     7          0.618              1.903              2.680
 Vibration     8          0.632              1.857              2.251
 Vibration     9          0.654              1.789              1.848
 Vibration    10          0.668              1.747              1.665
 Vibration    11          0.681              1.709              1.528
 Vibration    12          0.697              1.661              1.381
 Vibration    13          0.731              1.564              1.141
 Vibration    14          0.760              1.486              0.990
 Vibration    15          0.771              1.458              0.942
 Vibration    16          0.817              1.340              0.768
 Vibration    17          0.866              1.225              0.630
 Vibration    18          0.919              1.111              0.518

                           ! Non-Optimized Parameters !

 1\1\GINC-NODE319\Freq\RB3LYP\6-31G(d)\C8H12O4\VSC10255\09-Dec-2020\0\\
 #N Geom=AllCheck Guess=TCheck SCRF=Check GenChk RB3LYP/6-31G(d) Freq\\
 CID_118653063_JID_2943_neutraal\\0,1\C,1.9727863447,-0.3298953692,0.73
 69699048\O,0.951645691,0.1257217681,1.6185021433\C,0.5380318524,-0.733
 7600279,2.5926738128\C,0.9272896105,-2.0083633778,2.7355839831\C,-0.42
 17891867,-0.0425426798,3.5198125409\C,0.1790479641,0.9675273387,4.5101
 811657\O,-0.4629552279,1.3174184389,5.4769303484\C,1.5583998861,1.5558
 463472,4.2175973576\C,2.666956294,0.5179464066,4.240393536\O,3.5962976

 Normal termination of Gaussian 16 at Wed Dec  9 18:31:03 2020.

 ----------------------------------------------------------------------
 # B3LYP/6-311++G(d,p) empiricaldispersion=gd3bj scf=xqc pop=npa geom=c
 heck
 ----------------------------------------------------------------------

 ---------------------------------------
 CID_118653063_JID_2943_Energie_neutraal
 ---------------------------------------
 Structure from the checkpoint file:  "JID_2943.chk"
 Charge =  0 Multiplicity = 1

 SCF Done:  E(RB3LYP) =  -613.169273147     A.U. after   14 cycles
 Normal termination of Gaussian 16 at Wed Dec  9 18:33:20 2020.

 ----------------------------------------------------------------------
 # B3LYP/6-311++G(d,p) empiricaldispersion=gd3bj scf=xqc pop=npa geom=c
 heck
 ----------------------------------------------------------------------

 -------------------------------------
 CID_118653063_JID_2943_Energie_kation
 -------------------------------------
 Structure from the checkpoint file:  "JID_2943.chk"
 Charge =  1 Multiplicity = 2

 SCF Done:  E(UB3LYP) =  -612.853918061     A.U. after   20 cycles
 Normal termination of Gaussian 16 at Wed Dec  9 18:36:43 2020.
 Gaussian 16:  ES64L-G16RevA.03 25-Dec-2016

 ------------------------------------
 CID_118653063_JID_2943_Energie_anion
 ------------------------------------
 Structure from the checkpoint file:  "JID_2943.chk"
 Charge = -1 Multiplicity = 2

                         Standard orientation:
 ---------------------------------------------------------------------
 Center     Atomic      Atomic             Coordinates (Angstroms)
 Number     Number       Type             X           Y           Z
 ---------------------------------------------------------------------
      1          6           0        2.743145   -0.755946    0.696072
      2          8           0        1.975950    0.425420    0.488221
      3          6           0        1.305593    0.535063   -0.693894
      4          6           0        1.383585   -0.317186   -1.725470
      5          6           0        0.431486    1.757529   -0.682136
      6          6           0       -0.848510    1.684621    0.165432
      7          8           0       -1.740560    2.483678   -0.021515
      8          6           0       -0.941239    0.635423    1.272194
      9          6           0       -0.927144   -0.789397    0.746510
     10          8           0       -0.335505   -1.718405    1.250666
     11          8           0       -1.695494   -0.893088   -0.355994
     12          6           0       -1.698144   -2.185596   -0.981335
     13          1           0        3.167421   -0.665464    1.696778
     14          1           0        3.551130   -0.830166   -0.042358
     15          1           0        2.100556   -1.640693    0.644355
     16          1           0        0.799491   -0.125765   -2.617264
     17          1           0        2.011449   -1.199019   -1.721758
     18          1           0        1.009695    2.600207   -0.277458
     19          1           0        0.128872    2.032392   -1.694885
     20          1           0       -0.102860    0.733013    1.965001
     21          1           0       -1.882323    0.808435    1.802838
     22          1           0       -0.691698   -2.424381   -1.335818
     23          1           0       -2.027651   -2.952664   -0.276785
     24          1           0       -2.391851   -2.103790   -1.817913
 ---------------------------------------------------------------------

 SCF Done:  E(UB3LYP) =  -613.155786057     A.U. after   33 cycles
 SCF Done:  E(UB3LYP) =  -613.155786057     a.u. after    1 cycles

 The electronic state is 2-A.
 Alpha  occ. eigenvalues --  -19.06510 -19.05001 -19.00739 -18.99134 -10.19791
 Alpha  occ. eigenvalues --  -10.13937 -10.12965 -10.11997 -10.10931 -10.07760
 Alpha  occ. eigenvalues --  -10.07331 -10.04724  -1.00617  -0.96490  -0.92881
 Alpha  occ. eigenvalues --   -0.91818  -0.70002  -0.67163  -0.61456  -0.60201
 Alpha  occ. eigenvalues --   -0.59205  -0.47309  -0.45784  -0.44068  -0.40497
 Alpha  occ. eigenvalues --   -0.39799  -0.38845  -0.37994  -0.36877  -0.36315
 Alpha  occ. eigenvalues --   -0.33898  -0.32891  -0.32402  -0.30611  -0.30369
 Alpha  occ. eigenvalues --   -0.29529  -0.27344  -0.26660  -0.25885  -0.24454
 Alpha  occ. eigenvalues --   -0.23812  -0.22959  -0.20732  -0.18268  -0.14586
 Alpha  occ. eigenvalues --   -0.12318   0.04892
 Alpha virt. eigenvalues --    0.06697   0.07395   0.08594   0.08797   0.09442
 Alpha virt. eigenvalues --    0.10141   0.10433   0.10757   0.11501   0.12416
 Alpha virt. eigenvalues --    0.12634   0.13413   0.13948   0.14571   0.14669

  Beta  occ. eigenvalues --  -19.06485 -19.04996 -19.00708 -18.98971 -10.19741
  Beta  occ. eigenvalues --  -10.13710 -10.12962 -10.11967 -10.10894 -10.07774
  Beta  occ. eigenvalues --  -10.07343 -10.04694  -1.00559  -0.96477  -0.92548
  Beta  occ. eigenvalues --   -0.91765  -0.69895  -0.67079  -0.61339  -0.60143
  Beta  occ. eigenvalues --   -0.59132  -0.47141  -0.45668  -0.43833  -0.40406
  Beta  occ. eigenvalues --   -0.39695  -0.38733  -0.37930  -0.36780  -0.36256
  Beta  occ. eigenvalues --   -0.33775  -0.32688  -0.32182  -0.30531  -0.30251
  Beta  occ. eigenvalues --   -0.29389  -0.27275  -0.26567  -0.25823  -0.24047
  Beta  occ. eigenvalues --   -0.23546  -0.22803  -0.20614  -0.18198  -0.14495
  Beta  occ. eigenvalues --   -0.12230
  Beta virt. eigenvalues --    0.07290   0.07988   0.08620   0.09033   0.09530
  Beta virt. eigenvalues --    0.10062   0.10716   0.10916   0.11421   0.11892
  Beta virt. eigenvalues --    0.12598   0.12885   0.13695   0.14191   0.14639

 Mulliken charges and spin densities:
               1          2
     1  C    0.930419  -1.267702
     2  O   -0.061035   0.011115
     3  C   -1.654393   2.114104
     4  C    0.828465  -1.347797
     5  C    0.987686  -1.622292
     6  C   -0.716031   0.711278
     7  O   -0.313093   0.073505
     8  C    0.498570  -0.813405
     9  C   -0.410967   0.273581
    10  O   -0.216919   0.018481
    11  O    0.016891   0.046452
    12  C    0.724478  -0.946706
    13  H   -0.361253   0.500727
    14  H   -0.443521   0.596019
    15  H    0.026234   0.175559
    16  H   -0.040631   0.187628
    17  H   -0.286000   0.418195
    18  H   -0.248815   0.459490
    19  H    0.224468  -0.021413
    20  H    0.171570   0.039089
    21  H   -0.050792   0.276874
    22  H   -0.217344   0.413975
    23  H   -0.174755   0.334002
    24  H   -0.213231   0.369241
 Sum of Mulliken charges =  -1.00000   1.00000

 Dipole moment (field-independent basis, Debye):
    X=             -1.9653    Y=              0.6350    Z=              0.8781  Tot=              2.2442
 Quadrupole moment (field-independent basis, Debye-Ang):
   XX=           -121.2869   YY=           -116.2950   ZZ=           -101.4889
   XY=              6.6403   XZ=             -1.1419   YZ=             -2.3948

 Summary of Natural Population Analysis:

                                       Natural Population
                Natural  -----------------------------------------------
    Atom  No    Charge         Core      Valence    Rydberg      Total
 -----------------------------------------------------------------------
      C    1   -0.10213      0.99959     2.09316    0.00939     3.10213
      O    2   -0.28311      0.99986     3.27103    0.01222     4.28311
      C    3    0.16643      0.99943     1.81826    0.01588     2.83357
      C    4   -0.26016      0.99949     2.25152    0.00915     3.26016
      C    5   -0.25884      0.99953     2.24775    0.01156     3.25884
      C    6    0.33233      0.99968     1.64741    0.02057     2.66767
      O    7   -0.27642      0.99987     3.26964    0.00690     4.27642
      C    8   -0.28501      0.99953     2.27620    0.00928     3.28501
      C    9    0.41748      0.99970     1.55627    0.02655     2.58252
      O   10   -0.30561      0.99987     3.29968    0.00607     4.30561
      O   11   -0.27628      0.99986     3.26735    0.00907     4.27628
      C   12   -0.10534      0.99959     2.09644    0.00931     3.10534
      H   13    0.09248      0.00000     0.40622    0.00129     0.40752
      H   14    0.08483      0.00000     0.41315    0.00202     0.41517
      H   15    0.09565      0.00000     0.40276    0.00159     0.40435
      H   16    0.10196      0.00000     0.39701    0.00103     0.39804
      H   17    0.10201      0.00000     0.39655    0.00143     0.39799
      H   18    0.12155      0.00000     0.37606    0.00239     0.37845
      H   19    0.11573      0.00000     0.38328    0.00099     0.38427
      H   20    0.12417      0.00000     0.37426    0.00158     0.37583
      H   21    0.12050      0.00000     0.37806    0.00145     0.37950
      H   22    0.09596      0.00000     0.40236    0.00168     0.40404
      H   23    0.09021      0.00000     0.40872    0.00106     0.40979
      H   24    0.09162      0.00000     0.40715    0.00122     0.40838
 =======================================================================
   * Total *   -0.00000     11.99600    33.84030    0.16370    46.00000

 Normal termination of Gaussian 16 at Wed Dec  9 18:42:06 2020.
