 Gaussian 16, Revision A.03,

 -----------------------------------------------------------
 # opt freq B3LYP/6-31G(d) empiricaldispersion=gd3bj scf=xqc
 -----------------------------------------------------------

 -------------------------------
 CID_139530519_JID_5685_neutraal
 -------------------------------
 Symbolic Z-matrix:
 Charge =  0 Multiplicity = 1

 SCF Done:  E(RB3LYP) =  -704.835877492     A.U. after   14 cycles
 SCF Done:  E(RB3LYP) =  -704.845472664     A.U. after   12 cycles
 SCF Done:  E(RB3LYP) =  -704.846273249     A.U. after   12 cycles
 SCF Done:  E(RB3LYP) =  -704.846500171     A.U. after   11 cycles
 SCF Done:  E(RB3LYP) =  -704.846627078     A.U. after   11 cycles
 SCF Done:  E(RB3LYP) =  -704.846758507     A.U. after   11 cycles
 SCF Done:  E(RB3LYP) =  -704.846843272     A.U. after   12 cycles
 SCF Done:  E(RB3LYP) =  -704.846886374     A.U. after   10 cycles
 SCF Done:  E(RB3LYP) =  -704.846903842     A.U. after   10 cycles
 SCF Done:  E(RB3LYP) =  -704.846906862     A.U. after   10 cycles
 SCF Done:  E(RB3LYP) =  -704.846907812     A.U. after    9 cycles
 SCF Done:  E(RB3LYP) =  -704.846908523     A.U. after    8 cycles
 SCF Done:  E(RB3LYP) =  -704.846908750     A.U. after    8 cycles
 SCF Done:  E(RB3LYP) =  -704.846908878     A.U. after    8 cycles
 SCF Done:  E(RB3LYP) =  -704.846908933     A.U. after    7 cycles
 Optimization completed.
    -- Stationary point found.
 Normal termination of Gaussian 16 at Thu Dec 10 16:35:29 2020.

 --------------------------------------------------------------------
 #N Geom=AllCheck Guess=TCheck SCRF=Check GenChk RB3LYP/6-31G(d) Freq
 --------------------------------------------------------------------

 Structure from the checkpoint file:  "JID_5685.chk"
 -------------------------------
 CID_139530519_JID_5685_neutraal
 -------------------------------
 Charge =  0 Multiplicity = 1

 SCF Done:  E(RB3LYP) =  -704.846908933     A.U. after    1 cycles

  Exact polarizability: 154.327  10.729 123.099   7.038 -11.145  89.872
 Approx polarizability: 204.228  14.097 187.585  12.319 -27.113 143.042

                      1                      2                      3
                      A                      A                      A
 Frequencies --     28.2050                33.2996                39.3332
 Red. masses --      4.0045                 3.5654                 6.1819
 Frc consts  --      0.0019                 0.0023                 0.0056
 IR Inten    --      1.7240                 0.1519                 0.3917

                      4                      5                      6
                      A                      A                      A
 Frequencies --     61.2659                86.9639                98.6141
 Red. masses --      6.9056                 4.5514                 3.8790
 Frc consts  --      0.0153                 0.0203                 0.0222
 IR Inten    --      1.0517                 0.2553                 0.5968

                      7                      8                      9
                      A                      A                      A
 Frequencies --    116.3835               158.6527               223.9453
 Red. masses --      3.3209                 3.1735                 2.5800
 Frc consts  --      0.0265                 0.0471                 0.0762
 IR Inten    --      0.2669                 3.4954                 2.9560

                     10                     11                     12
                      A                      A                      A
 Frequencies --    251.6286               298.6457               338.9229
 Red. masses --      4.7539                 3.3581                 2.8567
 Frc consts  --      0.1773                 0.1765                 0.1933
 IR Inten    --      0.5012                 0.8240                 2.6862

                     13                     14                     15
                      A                      A                      A
 Frequencies --    405.2269               460.1183               496.7108
 Red. masses --      3.0198                 3.4431                 2.1166
 Frc consts  --      0.2922                 0.4295                 0.3077
 IR Inten    --      0.5132                 1.8622                 7.1419

                     16                     17                     18
                      A                      A                      A
 Frequencies --    544.7547               556.3998               563.2101
 Red. masses --      1.8233                 4.0741                 2.2740
 Frc consts  --      0.3188                 0.7431                 0.4250
 IR Inten    --     12.4301                20.4721                20.5941

                     19                     20                     21
                      A                      A                      A
 Frequencies --    572.1326               634.4356               647.7986
 Red. masses --      1.4738                 1.7938                 3.6544
 Frc consts  --      0.2842                 0.4254                 0.9035
 IR Inten    --    114.5779                89.0911                10.5616

                     22                     23                     24
                      A                      A                      A
 Frequencies --    684.4761               718.3028               730.5590
 Red. masses --      2.4422                 2.3991                 1.4395
 Frc consts  --      0.6741                 0.7293                 0.4527
 IR Inten    --     40.1133                 3.3634                21.4423

                     25                     26                     27
                      A                      A                      A
 Frequencies --    751.3972               772.7415               802.1758
 Red. masses --      2.0843                 7.6855                 1.2814
 Frc consts  --      0.6934                 2.7039                 0.4858
 IR Inten    --      1.0023                52.2463                 0.5270

                     28                     29                     30
                      A                      A                      A
 Frequencies --    846.8818               855.4338               877.5628
 Red. masses --      1.3072                 2.8205                 2.5361
 Frc consts  --      0.5524                 1.2161                 1.1507
 IR Inten    --      6.4208                 8.3874                 3.4664

                     31                     32                     33
                      A                      A                      A
 Frequencies --    915.6387               939.2021               945.7402
 Red. masses --      2.5474                 3.2705                 2.1615
 Frc consts  --      1.2584                 1.6997                 1.1390
 IR Inten    --      0.5036                 0.7672                 3.0683

                     34                     35                     36
                      A                      A                      A
 Frequencies --    946.8475               964.9156               975.5639
 Red. masses --      3.1472                 1.6708                 2.5666
 Frc consts  --      1.6624                 0.9165                 1.4392
 IR Inten    --      1.6440                 1.2737                39.2538

                     37                     38                     39
                      A                      A                      A
 Frequencies --   1028.4400              1046.7219              1064.9084
 Red. masses --      2.6777                 2.1170                 2.1215
 Frc consts  --      1.6687                 1.3666                 1.4175
 IR Inten    --      2.4485                 8.4999                34.8441

                     40                     41                     42
                      A                      A                      A
 Frequencies --   1111.5633              1125.0544              1155.5874
 Red. masses --      1.4239                 1.9083                 2.1560
 Frc consts  --      1.0366                 1.4231                 1.6963
 IR Inten    --     19.7361                 6.3847                21.9315

                     43                     44                     45
                      A                      A                      A
 Frequencies --   1165.2922              1198.9149              1213.9782
 Red. masses --      2.7130                 2.1426                 1.6770
 Frc consts  --      2.1706                 1.8145                 1.4561
 IR Inten    --      2.6240                82.0850               109.1638

                     46                     47                     48
                      A                      A                      A
 Frequencies --   1218.5991              1244.2991              1257.0076
 Red. masses --      1.4748                 1.5107                 1.3722
 Frc consts  --      1.2903                 1.3781                 1.2775
 IR Inten    --     66.3412                27.9229                 0.8890

                     49                     50                     51
                      A                      A                      A
 Frequencies --   1268.0059              1269.8739              1293.6125
 Red. masses --      1.2754                 1.2087                 1.5470
 Frc consts  --      1.2082                 1.1484                 1.5253
 IR Inten    --      0.6082                 0.1319                 0.5015

                     52                     53                     54
                      A                      A                      A
 Frequencies --   1298.1039              1304.5096              1319.7086
 Red. masses --      1.4027                 1.5673                 1.8301
 Frc consts  --      1.3926                 1.5714                 1.8779
 IR Inten    --      0.2588                 3.4331                44.7734

                     55                     56                     57
                      A                      A                      A
 Frequencies --   1374.3678              1396.9417              1403.5518
 Red. masses --      1.7093                 1.5255                 1.5152
 Frc consts  --      1.9022                 1.7540                 1.7586
 IR Inten    --      7.4546                61.9301                 9.5855

                     58                     59                     60
                      A                      A                      A
 Frequencies --   1416.7910              1458.5404              1477.8937
 Red. masses --      2.0257                 2.0855                 2.9274
 Frc consts  --      2.3957                 2.6140                 3.7672
 IR Inten    --      3.3094                89.9266                37.3136

                     61                     62                     63
                      A                      A                      A
 Frequencies --   1499.0315              1507.7855              1514.1347
 Red. masses --      1.4016                 1.0942                 1.3531
 Frc consts  --      1.8557                 1.4657                 1.8277
 IR Inten    --     27.3440                 0.9162                23.4617

                     64                     65                     66
                      A                      A                      A
 Frequencies --   1517.5431              1521.3143              1532.9328
 Red. masses --      1.0845                 1.3185                 2.7879
 Frc consts  --      1.4715                 1.7979                 3.8599
 IR Inten    --      3.7037                40.4876                21.8859

                     67                     68                     69
                      A                      A                      A
 Frequencies --   1543.0121              1574.3848              1855.4837
 Red. masses --      1.1595                 5.8290                 7.6768
 Frc consts  --      1.6265                 8.5127                15.5721
 IR Inten    --      0.5855                12.1744               514.4305

                     70                     71                     72
                      A                      A                      A
 Frequencies --   3047.4232              3062.9267              3073.0989
 Red. masses --      1.0842                 1.0576                 1.0614
 Frc consts  --      5.9326                 5.8457                 5.9058
 IR Inten    --     17.8350                47.5299                44.7546

                     73                     74                     75
                      A                      A                      A
 Frequencies --   3087.5764              3091.7192              3095.0905
 Red. masses --      1.0595                 1.0614                 1.0618
 Frc consts  --      5.9508                 5.9774                 5.9932
 IR Inten    --     20.5254                34.0822                13.0789

                     76                     77                     78
                      A                      A                      A
 Frequencies --   3112.8594              3127.6544              3135.9322
 Red. masses --      1.1072                 1.1083                 1.1047
 Frc consts  --      6.3214                 6.3877                 6.4006
 IR Inten    --     14.6652                37.5036                15.4516

                     79                     80                     81
                      A                      A                      A
 Frequencies --   3150.1174              3153.1742              3259.4110
 Red. masses --      1.1072                 1.1063                 1.0915
 Frc consts  --      6.4732                 6.4804                 6.8320
 IR Inten    --     16.2146                26.0320                 8.6783

                     82                     83                     84
                      A                      A                      A
 Frequencies --   3286.8085              3623.4192              3736.4336
 Red. masses --      1.1042                 1.0766                 1.0647
 Frc consts  --      7.0284                 8.3279                 8.7581
 IR Inten    --      2.8250                33.7556                90.9265

 - Thermochemistry -
 -------------------
 Temperature   298.150 Kelvin.  Pressure   1.00000 Atm.
 Atom     1 has atomic number  6 and mass  12.00000

 Molecular mass:   209.11643 amu.
 Principal axes and moments of inertia in atomic units:
                           1         2         3
     Eigenvalues --  1500.022875471.339826347.48872
           X            0.99989   0.01297   0.00718
           Y           -0.01295   0.99991  -0.00357
           Z           -0.00723   0.00348   0.99997
 This molecule is an asymmetric top.
 Rotational symmetry number  1.
 Warning -- assumption of classical behavior for rotation
           may cause significant error
 Rotational temperatures (Kelvin)      0.05774     0.01583     0.01365
 Rotational constants (GHZ):           1.20314     0.32985     0.28432
 Zero-point vibrational energy     667310.6 (Joules/Mol)
                                  159.49106 (Kcal/Mol)
 Warning -- explicit consideration of  19 degrees of freedom as
           vibrations may cause significant error
 Vibrational temperatures:     40.58    47.91    56.59    88.15   125.12
          (Kelvin)            141.88   167.45   228.27   322.21   362.04
                              429.68   487.63   583.03   662.01   714.66
                              783.78   800.54   810.33   823.17   912.81
                              932.04   984.81  1033.48  1051.11  1081.09
                             1111.80  1154.15  1218.47  1230.78  1262.62
                             1317.40  1351.30  1360.71  1362.30  1388.30
                             1403.62  1479.70  1506.00  1532.17  1599.29
                             1618.70  1662.63  1676.60  1724.97  1746.64
                             1753.29  1790.27  1808.55  1824.38  1827.07
                             1861.22  1867.68  1876.90  1898.77  1977.41
                             2009.89  2019.40  2038.45  2098.51  2126.36
                             2156.77  2169.37  2178.50  2183.41  2188.83
                             2205.55  2220.05  2265.19  2669.63  4384.56
                             4406.87  4421.50  4442.33  4448.29  4453.14
                             4478.71  4500.00  4511.91  4532.32  4536.71
                             4689.57  4728.98  5213.29  5375.89

 Zero-point correction=                           0.254165 (Hartree/Particle)
 Thermal correction to Energy=                    0.268295
 Thermal correction to Enthalpy=                  0.269239
 Thermal correction to Gibbs Free Energy=         0.210449
 Sum of electronic and zero-point Energies=           -704.592744
 Sum of electronic and thermal Energies=              -704.578614
 Sum of electronic and thermal Enthalpies=            -704.577670
 Sum of electronic and thermal Free Energies=         -704.636460

                     E (Thermal)             CV                S
                      KCal/Mol        Cal/Mol-Kelvin    Cal/Mol-Kelvin
 Total                  168.358             52.690            123.734
 Electronic               0.000              0.000              0.000
 Translational            0.889              2.981             41.917
 Rotational               0.889              2.981             32.321
 Vibrational            166.580             46.729             49.495
 Vibration     1          0.593              1.984              5.952
 Vibration     2          0.594              1.983              5.622
 Vibration     3          0.594              1.981              5.292
 Vibration     4          0.597              1.973              4.416
 Vibration     5          0.601              1.958              3.727
 Vibration     6          0.604              1.950              3.482
 Vibration     7          0.608              1.936              3.160
 Vibration     8          0.621              1.893              2.566
 Vibration     9          0.649              1.805              1.927
 Vibration    10          0.664              1.760              1.719
 Vibration    11          0.692              1.676              1.424
 Vibration    12          0.719              1.598              1.217
 Vibration    13          0.770              1.459              0.944
 Vibration    14          0.818              1.339              0.766
 Vibration    15          0.852              1.257              0.666
 Vibration    16          0.900              1.151              0.555
 Vibration    17          0.912              1.126              0.531
 Vibration    18          0.919              1.111              0.517
 Vibration    19          0.928              1.092              0.500

                           ! Non-Optimized Parameters !
 Normal termination of Gaussian 16 at Thu Dec 10 16:45:45 2020.

 ----------------------------------------------------------------------
 # B3LYP/6-311++G(d,p) empiricaldispersion=gd3bj scf=xqc pop=npa geom=c
 heck
 ----------------------------------------------------------------------

 ---------------------------------------
 CID_139530519_JID_5685_Energie_neutraal
 ---------------------------------------
 Structure from the checkpoint file:  "JID_5685.chk"
 Charge =  0 Multiplicity = 1

 SCF Done:  E(RB3LYP) =  -705.054903554     A.U. after   15 cycles
 Normal termination of Gaussian 16 at Thu Dec 10 16:51:58 2020.

 ----------------------------------------------------------------------
 # B3LYP/6-311++G(d,p) empiricaldispersion=gd3bj scf=xqc pop=npa geom=c
 heck
 ----------------------------------------------------------------------

 -------------------------------------
 CID_139530519_JID_5685_Energie_kation
 -------------------------------------
 Structure from the checkpoint file:  "JID_5685.chk"
 Charge =  1 Multiplicity = 2

 SCF Done:  E(UB3LYP) =  -704.755787720     A.U. after   22 cycles
 Normal termination of Gaussian 16 at Thu Dec 10 17:00:56 2020.
 Gaussian 16:  ES64L-G16RevA.03 25-Dec-2016

 ----------------------------------------------------------------------
 # B3LYP/6-311++G(d,p) empiricaldispersion=gd3bj scf=xqc pop=npa geom=c
 heck
 ----------------------------------------------------------------------

 ------------------------------------
 CID_139530519_JID_5685_Energie_anion
 ------------------------------------
 Structure from the checkpoint file:  "JID_5685.chk"
 Charge = -1 Multiplicity = 2

                         Standard orientation:
 ---------------------------------------------------------------------
 Center     Atomic      Atomic             Coordinates (Angstroms)
 Number     Number       Type             X           Y           Z
 ---------------------------------------------------------------------
      1          6           0       -4.055292   -1.361239   -0.530493
      2          6           0       -2.515214   -1.430492   -0.689733
      3          6           0       -2.391825   -0.356943    0.443992
      4          6           0       -3.881737   -0.003620    0.198213
      5          6           0       -1.398746    0.742444    0.290487
      6          7           0       -1.644623    1.923578   -0.249120
      7          6           0       -0.446183    2.602753   -0.238006
      8          6           0        0.541315    1.827448    0.312828
      9          7           0       -0.074374    0.633584    0.660034
     10          6           0        0.607866   -0.555654    1.140079
     11          6           0        1.194620   -1.388167   -0.011744
     12          7           0        2.160282   -0.649006   -0.810655
     13          6           0        3.414897   -0.325476   -0.379192
     14          8           0        4.135381    0.517422   -0.878912
     15          8           0        3.790005   -1.084721    0.693307
     16          1           0       -4.427981   -2.142674    0.140107
     17          1           0       -4.654889   -1.371467   -1.444981
     18          1           0       -2.024683   -2.396565   -0.528415
     19          1           0       -2.186059   -1.016726   -1.648148
     20          1           0       -2.270790   -0.856975    1.412990
     21          1           0       -3.953758    0.848265   -0.481448
     22          1           0       -4.497576    0.190583    1.080866
     23          1           0       -0.367345    3.612387   -0.617422
     24          1           0        1.591589    1.998133    0.497112
     25          1           0        1.411574   -0.249409    1.815541
     26          1           0       -0.098494   -1.162347    1.713589
     27          1           0        1.680602   -2.278611    0.393400
     28          1           0        0.391673   -1.713706   -0.678949
     29          1           0        1.795572    0.017206   -1.478510
     30          1           0        4.700276   -0.803125    0.888719
 ---------------------------------------------------------------------

 SCF Done:  E(UB3LYP) =  -705.046495967     A.U. after   30 cycles

 The electronic state is 2-A.
 Alpha  occ. eigenvalues --  -19.06997 -19.00674 -14.27699 -14.25177 -14.19845
 Alpha  occ. eigenvalues --  -10.23045 -10.13278 -10.12466 -10.12345 -10.10443
 Alpha  occ. eigenvalues --  -10.09208 -10.09195 -10.07975 -10.07722 -10.07432
 Alpha  occ. eigenvalues --   -1.01654  -0.92659  -0.92209  -0.84771  -0.79402
 Alpha  occ. eigenvalues --   -0.75929  -0.67612  -0.65556  -0.58605  -0.57137
 Alpha  occ. eigenvalues --   -0.56909  -0.54244  -0.51040  -0.47945  -0.45508
 Alpha  occ. eigenvalues --   -0.43990  -0.42151  -0.41216  -0.39623  -0.38653
 Alpha  occ. eigenvalues --   -0.38024  -0.37195  -0.36097  -0.34764  -0.34072
 Alpha  occ. eigenvalues --   -0.32086  -0.31518  -0.30082  -0.29829  -0.29608
 Alpha  occ. eigenvalues --   -0.28937  -0.26603  -0.23511  -0.23290  -0.22707
 Alpha  occ. eigenvalues --   -0.22190  -0.19599  -0.18965  -0.18081  -0.17295
 Alpha  occ. eigenvalues --   -0.13362   0.04132
 Alpha virt. eigenvalues --    0.06156   0.07336   0.07739   0.08064   0.09165
 Alpha virt. eigenvalues --    0.09328   0.09609   0.10279   0.11031   0.11376
 Alpha virt. eigenvalues --    0.12041   0.12387   0.12561   0.13098   0.13215

  Beta  occ. eigenvalues --  -19.06938 -19.00659 -14.27700 -14.25165 -14.19843
  Beta  occ. eigenvalues --  -10.23040 -10.13278 -10.12429 -10.12318 -10.10436
  Beta  occ. eigenvalues --  -10.09193 -10.09188 -10.07954 -10.07706 -10.07426
  Beta  occ. eigenvalues --   -1.01584  -0.92652  -0.92148  -0.84737  -0.79390
  Beta  occ. eigenvalues --   -0.75901  -0.67576  -0.65531  -0.58551  -0.57094
  Beta  occ. eigenvalues --   -0.56867  -0.54159  -0.51027  -0.47907  -0.45458
  Beta  occ. eigenvalues --   -0.43951  -0.42109  -0.41167  -0.39564  -0.38596
  Beta  occ. eigenvalues --   -0.37988  -0.37172  -0.36063  -0.34742  -0.34048
  Beta  occ. eigenvalues --   -0.32049  -0.31473  -0.30045  -0.29797  -0.29580
  Beta  occ. eigenvalues --   -0.28902  -0.26580  -0.23481  -0.23239  -0.22680
  Beta  occ. eigenvalues --   -0.22154  -0.19566  -0.18936  -0.18076  -0.17274
  Beta  occ. eigenvalues --   -0.13349
  Beta virt. eigenvalues --    0.06615   0.07237   0.07794   0.08078   0.08618
  Beta virt. eigenvalues --    0.09415   0.09635   0.10002   0.10537   0.11319
  Beta virt. eigenvalues --    0.11716   0.12347   0.12444   0.12727   0.13145

 Mulliken charges and spin densities:
               1          2
     1  C    0.381252  -0.646858
     2  C    0.162242  -0.635072
     3  C    0.393403   0.058068
     4  C    0.045654  -0.709009
     5  C   -0.816453   0.131047
     6  N   -0.058607   0.005089
     7  C   -0.274123   0.181772
     8  C    0.332686  -0.340034
     9  N    0.186583  -0.063536
    10  C    0.079696  -0.017075
    11  C    0.341652  -1.043199
    12  N   -0.087511  -0.071340
    13  C    0.772539  -0.731710
    14  O   -0.355810   0.030890
    15  O   -0.224535   0.044335
    16  H   -0.232110   0.380956
    17  H    0.096602   0.034928
    18  H   -0.125028   0.245889
    19  H    0.004367   0.166568
    20  H   -0.264148   0.493234
    21  H    0.159548   0.008995
    22  H    0.034826   0.100960
    23  H    0.096104   0.054620
    24  H   -0.002355   0.197514
    25  H   -0.189566   0.447539
    26  H   -0.798839   0.940055
    27  H   -0.605647   0.852974
    28  H   -0.023875   0.235761
    29  H    0.316199   0.000728
    30  H   -0.344746   0.645911
 Sum of Mulliken charges =  -1.00000   1.00000

 Dipole moment (field-independent basis, Debye):
    X=             -3.4914    Y=              4.1619    Z=             -3.7693  Tot=              6.6120
 Quadrupole moment (field-independent basis, Debye-Ang):
   XX=           -174.0513   YY=           -134.6651   ZZ=           -123.0153
   XY=              0.6070   XZ=             -0.0717   YZ=             10.5486

 Summary of Natural Population Analysis:

                                       Natural Population
                Natural  -----------------------------------------------
    Atom  No    Charge         Core      Valence    Rydberg      Total
 -----------------------------------------------------------------------
      C    1   -0.19165      0.99965     2.18388    0.00812     3.19165
      C    2   -0.18101      0.99963     2.17292    0.00846     3.18101
      C    3   -0.13608      0.99957     2.12434    0.01218     3.13608
      C    4   -0.18037      0.99964     2.17197    0.00877     3.18037
      C    5    0.19817      0.99957     1.78418    0.01807     2.80183
      N    6   -0.26270      0.99970     2.75463    0.00838     3.76270
      C    7   -0.03741      0.99958     2.02477    0.01306     3.03741
      C    8   -0.04247      0.99955     2.03141    0.01151     3.04247
      N    9   -0.20913      0.99962     2.69899    0.01051     3.70913
      C   10   -0.09126      0.99960     2.07990    0.01176     3.09126
      C   11   -0.09417      0.99960     2.08306    0.01151     3.09417
      N   12   -0.32869      0.99967     2.81912    0.00990     3.82869
      C   13    0.45648      0.99972     1.51837    0.02543     2.54352
      O   14   -0.33264      0.99987     3.32674    0.00603     4.33264
      O   15   -0.35276      0.99988     3.34605    0.00682     4.35276
      H   16    0.09827      0.00000     0.40025    0.00148     0.40173
      H   17    0.09318      0.00000     0.40608    0.00075     0.40682
      H   18    0.10056      0.00000     0.39772    0.00172     0.39944
      H   19    0.09607      0.00000     0.40267    0.00126     0.40393
      H   20    0.10959      0.00000     0.38807    0.00234     0.39041
      H   21    0.10714      0.00000     0.39122    0.00164     0.39286
      H   22    0.09653      0.00000     0.40268    0.00080     0.40347
      H   23    0.09517      0.00000     0.40404    0.00079     0.40483
      H   24    0.10858      0.00000     0.39044    0.00099     0.39142
      H   25    0.10719      0.00000     0.39077    0.00204     0.39281
      H   26    0.11162      0.00000     0.38520    0.00318     0.38838
      H   27    0.11322      0.00000     0.38415    0.00263     0.38678
      H   28    0.10037      0.00000     0.39797    0.00166     0.39963
      H   29    0.19911      0.00000     0.29874    0.00215     0.30089
      H   30    0.24913      0.00000     0.23666    0.01421     0.25087
 =======================================================================
   * Total *    0.00000     14.99486    40.79698    0.20816    56.00000

 Normal termination of Gaussian 16 at Thu Dec 10 17:12:00 2020.
