 Gaussian 16, Revision A.03,

 -----------------------------------------------------------
 # opt freq B3LYP/6-31G(d) empiricaldispersion=gd3bj scf=xqc
 -----------------------------------------------------------

 -----------------------------
 CID_70620299_JID_693_neutraal
 -----------------------------
 Symbolic Z-matrix:
 Charge =  0 Multiplicity = 1

 SCF Done:  E(RB3LYP) =  -419.121051581     A.U. after   15 cycles
 SCF Done:  E(RB3LYP) =  -419.144193501     A.U. after   13 cycles
 SCF Done:  E(RB3LYP) =  -419.145870084     A.U. after   15 cycles
 SCF Done:  E(RB3LYP) =  -419.097272911     A.U. after   16 cycles
 SCF Done:  E(RB3LYP) =  -419.146316667     A.U. after   14 cycles
 SCF Done:  E(RB3LYP) =  -419.146859663     A.U. after   12 cycles
 SCF Done:  E(RB3LYP) =  -419.147002057     A.U. after   12 cycles
 SCF Done:  E(RB3LYP) =  -419.147007947     A.U. after   12 cycles
 SCF Done:  E(RB3LYP) =  -419.147056722     A.U. after   12 cycles
 SCF Done:  E(RB3LYP) =  -419.147091501     A.U. after   11 cycles
 SCF Done:  E(RB3LYP) =  -419.147233936     A.U. after   12 cycles
 SCF Done:  E(RB3LYP) =  -419.147243832     A.U. after   10 cycles
 SCF Done:  E(RB3LYP) =  -419.147243848     A.U. after    8 cycles
 SCF Done:  E(RB3LYP) =  -419.147243864     A.U. after    8 cycles
 SCF Done:  E(RB3LYP) =  -419.147243863     A.U. after    7 cycles
 Optimization completed.
    -- Stationary point found.
 Normal termination of Gaussian 16 at Tue Dec  8 13:10:05 2020.

 --------------------------------------------------------------------
 #N Geom=AllCheck Guess=TCheck SCRF=Check GenChk RB3LYP/6-31G(d) Freq
 --------------------------------------------------------------------

 Structure from the checkpoint file:  "JID_693.chk"
 -----------------------------
 CID_70620299_JID_693_neutraal
 -----------------------------
 Charge =  0 Multiplicity = 1

 SCF Done:  E(RB3LYP) =  -419.147243863     A.U. after    1 cycles

  Exact polarizability:  94.229 -14.960  83.083  21.184   2.326  78.529
 Approx polarizability: 145.083 -31.178 144.884  41.342   4.522 131.078

                      1                      2                      3
                      A                      A                      A
 Frequencies --     10.8921                26.5373                48.8795
 Red. masses --      4.9096                 4.9377                 3.0303
 Frc consts  --      0.0003                 0.0020                 0.0043
 IR Inten    --      2.1553                 1.3912                 2.7449

                      4                      5                      6
                      A                      A                      A
 Frequencies --     51.0008                68.4618               109.0861
 Red. masses --      4.8000                 4.1484                 3.3721
 Frc consts  --      0.0074                 0.0115                 0.0236
 IR Inten    --      2.4546                 1.6210                 2.4759

                      7                      8                      9
                      A                      A                      A
 Frequencies --    242.5839               364.9520               385.4277
 Red. masses --      4.0487                 2.5445                 2.5689
 Frc consts  --      0.1404                 0.1997                 0.2248
 IR Inten    --      3.3934                 0.8206                 0.0016

                     10                     11                     12
                      A                      A                      A
 Frequencies --    420.6476               580.7178               615.2307
 Red. masses --      3.8162                 4.0045                 7.1501
 Frc consts  --      0.3978                 0.7957                 1.5946
 IR Inten    --      4.7652                 0.0573                 4.0550

                     13                     14                     15
                      A                      A                      A
 Frequencies --    670.9726               715.6774               720.1064
 Red. masses --      6.3421                 2.2579                 1.4662
 Frc consts  --      1.6823                 0.6814                 0.4480
 IR Inten    --      0.3227                 8.8509                53.0170

                     16                     17                     18
                      A                      A                      A
 Frequencies --    763.7312               892.3124               900.5834
 Red. masses --      2.1663                 2.6854                 1.2505
 Frc consts  --      0.7445                 1.2598                 0.5976
 IR Inten    --      7.9629                 1.4980                 0.0224

                     19                     20                     21
                      A                      A                      A
 Frequencies --    958.7554               995.8346               999.5943
 Red. masses --      1.3236                 1.4615                 1.3478
 Frc consts  --      0.7169                 0.8539                 0.7935
 IR Inten    --      0.0381                 0.0047                10.2793

                     22                     23                     24
                      A                      A                      A
 Frequencies --   1011.0693              1011.7100              1013.9093
 Red. masses --      1.1045                 1.2358                 6.8384
 Frc consts  --      0.6653                 0.7453                 4.1419
 IR Inten    --     31.1003                 5.8984                 7.6687

                     25                     26                     27
                      A                      A                      A
 Frequencies --   1054.8508              1087.1387              1102.0161
 Red. masses --      4.7569                 1.7796                 1.7107
 Frc consts  --      3.1186                 1.2392                 1.2241
 IR Inten    --      4.0825                 0.3007                 3.0913

                     28                     29                     30
                      A                      A                      A
 Frequencies --   1117.2310              1183.0180              1254.3003
 Red. masses --      1.6813                 1.1264                 1.2883
 Frc consts  --      1.2365                 0.9288                 1.1942
 IR Inten    --      4.3489                 1.6362                 2.5528

                     31                     32                     33
                      A                      A                      A
 Frequencies --   1310.5987              1329.9904              1398.3975
 Red. masses --      7.7267                 1.2861                 1.1996
 Frc consts  --      7.8195                 1.3403                 1.3821
 IR Inten    --      0.1287                 3.3717                 0.0373

                     34                     35                     36
                      A                      A                      A
 Frequencies --   1465.9660              1487.6094              1531.2768
 Red. masses --      1.2204                 2.0880                 1.9461
 Frc consts  --      1.5453                 2.7225                 2.6886
 IR Inten    --     16.0835                26.8537                 3.6428

                     37                     38                     39
                      A                      A                      A
 Frequencies --   1637.8167              1643.3730              1696.7273
 Red. masses --      5.4509                 5.0123                 4.0717
 Frc consts  --      8.6148                 7.9755                 6.9065
 IR Inten    --      7.5499                21.6830                 0.1109

                     40                     41                     42
                      A                      A                      A
 Frequencies --   2350.1007              3174.8921              3178.9170
 Red. masses --     12.6195                 1.0883                 1.0896
 Frc consts  --     41.0642                 6.4633                 6.4875
 IR Inten    --     12.6593                22.3533                11.0038

                     43                     44                     45
                      A                      A                      A
 Frequencies --   3189.5388              3195.7511              3197.4985
 Red. masses --      1.0735                 1.0892                 1.0760
 Frc consts  --      6.4345                 6.5540                 6.4816
 IR Inten    --      0.6202                 7.7785                 2.0928

                     46                     47                     48
                      A                      A                      A
 Frequencies --   3211.5578              3219.3787              3285.3147
 Red. masses --      1.0935                 1.0987                 1.1182
 Frc consts  --      6.6453                 6.7091                 7.1107
 IR Inten    --     26.4521                 6.8316                 1.1506

 - Thermochemistry -
 -------------------
 Temperature   298.150 Kelvin.  Pressure   1.00000 Atm.
 Atom     1 has atomic number  6 and mass  12.00000

 Molecular mass:   132.06875 amu.
 Principal axes and moments of inertia in atomic units:
                           1         2         3
     Eigenvalues --   652.976613401.439043439.16493
           X            0.99999  -0.00311   0.00137
           Y            0.00305   0.99908   0.04270
           Z           -0.00151  -0.04269   0.99909
 This molecule is an asymmetric top.
 Rotational symmetry number  1.
 Warning -- assumption of classical behavior for rotation
           may cause significant error
 Rotational temperatures (Kelvin)      0.13264     0.02546     0.02518
 Rotational constants (GHZ):           2.76387     0.53058     0.52476
 Zero-point vibrational energy     370136.2 (Joules/Mol)
                                   88.46467 (Kcal/Mol)
 Warning -- explicit consideration of  12 degrees of freedom as
           vibrations may cause significant error
 Vibrational temperatures:     15.67    38.18    70.33    73.38    98.50
          (Kelvin)            156.95   349.02   525.08   554.54   605.22
                              835.52   885.18   965.38  1029.70  1036.07
                             1098.84  1283.84  1295.74  1379.44  1432.78
                             1438.19  1454.70  1455.62  1458.79  1517.69
                             1564.15  1585.56  1607.45  1702.10  1804.66
                             1885.66  1913.56  2011.98  2109.20  2140.34
                             2203.17  2356.45  2364.45  2441.21  3381.27
                             4567.96  4573.75  4589.03  4597.97  4600.49
                             4620.72  4631.97  4726.84

 Zero-point correction=                           0.140977 (Hartree/Particle)
 Thermal correction to Energy=                    0.151522
 Thermal correction to Enthalpy=                  0.152466
 Thermal correction to Gibbs Free Energy=         0.100125
 Sum of electronic and zero-point Energies=           -419.006266
 Sum of electronic and thermal Energies=              -418.995722
 Sum of electronic and thermal Enthalpies=            -418.994778
 Sum of electronic and thermal Free Energies=         -419.047119

                     E (Thermal)             CV                S
                      KCal/Mol        Cal/Mol-Kelvin    Cal/Mol-Kelvin
 Total                   95.081             34.882            110.161
 Electronic               0.000              0.000              0.000
 Translational            0.889              2.981             40.547
 Rotational               0.889              2.981             30.414
 Vibrational             93.304             28.920             39.200
 Vibration     1          0.593              1.987              7.841
 Vibration     2          0.593              1.984              6.073
 Vibration     3          0.595              1.978              4.862
 Vibration     4          0.595              1.977              4.778
 Vibration     5          0.598              1.969              4.197
 Vibration     6          0.606              1.942              3.285
 Vibration     7          0.659              1.775              1.784
 Vibration     8          0.738              1.544              1.101
 Vibration     9          0.754              1.501              1.018
 Vibration    10          0.783              1.425              0.890
 Vibration    11          0.937              1.073              0.484
 Vibration    12          0.975              1.000              0.424

                           ! Non-Optimized Parameters !
 Normal termination of Gaussian 16 at Tue Dec  8 13:17:02 2020.

 ----------------------------------------------------------------------
 # B3LYP/6-311++G(d,p) empiricaldispersion=gd3bj scf=xqc pop=npa geom=c
 heck
 ----------------------------------------------------------------------

 -------------------------------------
 CID_70620299_JID_693_Energie_neutraal
 -------------------------------------
 Structure from the checkpoint file:  "JID_693.chk"
 Charge =  0 Multiplicity = 1

 SCF Done:  E(RB3LYP) =  -419.263333965     A.U. after   14 cycles
 Normal termination of Gaussian 16 at Tue Dec  8 13:23:47 2020.

 ----------------------------------------------------------------------
 # B3LYP/6-311++G(d,p) empiricaldispersion=gd3bj scf=xqc pop=npa geom=c
 heck
 ----------------------------------------------------------------------

 -----------------------------------
 CID_70620299_JID_693_Energie_kation
 -----------------------------------
 Structure from the checkpoint file:  "JID_693.chk"
 Charge =  1 Multiplicity = 2

 SCF Done:  E(UB3LYP) =  -418.913871810     A.U. after   31 cycles
 Normal termination of Gaussian 16 at Tue Dec  8 13:33:24 2020.
 Gaussian 16:  ES64L-G16RevA.03 25-Dec-2016

 ----------------------------------------------------------------------
 # B3LYP/6-311++G(d,p) empiricaldispersion=gd3bj scf=xqc pop=npa geom=c
 heck
 ----------------------------------------------------------------------

 ----------------------------------
 CID_70620299_JID_693_Energie_anion
 ----------------------------------
 Structure from the checkpoint file:  "JID_693.chk"
 Charge = -1 Multiplicity = 2

                         Standard orientation:
 ---------------------------------------------------------------------
 Center     Atomic      Atomic             Coordinates (Angstroms)
 Number     Number       Type             X           Y           Z
 ---------------------------------------------------------------------
      1          6           0        1.304707    0.225163   -0.652775
      2          6           0        2.460471    0.820504   -0.334948
      3          6           0        3.642173    0.088956    0.002367
      4          7           0        4.613987   -0.486338    0.282224
      5          6           0       -2.335206    1.183874    0.333717
      6          6           0       -2.531045    0.551821   -0.894059
      7          6           0       -2.100943   -0.768927   -1.037651
      8          7           0       -1.506446   -1.467136   -0.061782
      9          6           0       -1.327635   -0.847228    1.112102
     10          6           0       -1.719278    0.469458    1.360379
     11          1           0        1.195921   -0.853742   -0.670545
     12          1           0        0.425630    0.811774   -0.896249
     13          1           0        2.552310    1.903815   -0.315719
     14          1           0       -2.655756    2.210583    0.486695
     15          1           0       -3.008010    1.065495   -1.723180
     16          1           0       -2.237665   -1.291691   -1.982584
     17          1           0       -0.841297   -1.431749    1.890628
     18          1           0       -1.543397    0.918103    2.333076
 ---------------------------------------------------------------------

 SCF Done:  E(UB3LYP) =  -419.266156020     A.U. after   33 cycles
 SCF Done:  E(UB3LYP) =  -419.266156020     a.u. after    1 cycles

 The electronic state is 2-A.
 Alpha  occ. eigenvalues --  -14.17205 -14.15868 -10.08079 -10.07577 -10.06172
 Alpha  occ. eigenvalues --  -10.05953 -10.05705 -10.05198 -10.04917 -10.02733
 Alpha  occ. eigenvalues --   -0.81316  -0.76026  -0.67774  -0.64857  -0.63558
 Alpha  occ. eigenvalues --   -0.50418  -0.50320  -0.49197  -0.40478  -0.37274
 Alpha  occ. eigenvalues --   -0.35382  -0.34904  -0.31561  -0.30651  -0.27908
 Alpha  occ. eigenvalues --   -0.27064  -0.25030  -0.24138  -0.23129  -0.22117
 Alpha  occ. eigenvalues --   -0.18993  -0.16820  -0.14682  -0.13391  -0.13207
 Alpha  occ. eigenvalues --    0.05046
 Alpha virt. eigenvalues --    0.07395   0.07908   0.08794   0.09837   0.10091
 Alpha virt. eigenvalues --    0.10438   0.11349   0.12240   0.13826   0.14112
 Alpha virt. eigenvalues --    0.15549   0.16378   0.16814   0.17713   0.18115

  Beta  occ. eigenvalues --  -14.16931 -14.15678 -10.08107 -10.07497 -10.06155
  Beta  occ. eigenvalues --  -10.05999 -10.05504 -10.05088 -10.04790 -10.02380
  Beta  occ. eigenvalues --   -0.80946  -0.75736  -0.67403  -0.64288  -0.63385
  Beta  occ. eigenvalues --   -0.50346  -0.49894  -0.48368  -0.40357  -0.37047
  Beta  occ. eigenvalues --   -0.35232  -0.34763  -0.31252  -0.30601  -0.27753
  Beta  occ. eigenvalues --   -0.26335  -0.24756  -0.24036  -0.22149  -0.21817
  Beta  occ. eigenvalues --   -0.18863  -0.15630  -0.13982  -0.12901  -0.11898
  Beta virt. eigenvalues --    0.07674   0.08945   0.09472   0.09851   0.10048
  Beta virt. eigenvalues --    0.10296   0.10883   0.11537   0.12253   0.13795
  Beta virt. eigenvalues --    0.14167   0.15488   0.16377   0.16891   0.17670

 Mulliken charges and spin densities:
               1          2
     1  C   -0.129543   0.200153
     2  C   -0.013751   0.222413
     3  C   -0.273047  -0.064165
     4  N   -0.402101   0.103158
     5  C   -0.094385  -0.130129
     6  C    0.189446  -0.034761
     7  C   -0.109029  -0.300837
     8  N   -0.110843   0.132372
     9  C   -0.417459   0.076918
    10  C    0.076366   0.055311
    11  H    0.110023   0.022127
    12  H    0.126305  -0.036999
    13  H    0.068544   0.060244
    14  H   -0.060930   0.186475
    15  H   -0.264980   0.402036
    16  H    0.051071   0.087536
    17  H    0.151458  -0.015307
    18  H    0.102854   0.033457
 Sum of Mulliken charges =  -1.00000   1.00000

 Dipole moment (field-independent basis, Debye):
    X=             -5.1004    Y=              1.8843    Z=              0.9669  Tot=              5.5226
 Quadrupole moment (field-independent basis, Debye-Ang):
   XX=           -128.6293   YY=            -75.1324   ZZ=            -69.9482
   XY=              5.4454   XZ=             -4.5952   YZ=              1.0740

 Summary of Natural Population Analysis:

                                       Natural Population
                Natural  -----------------------------------------------
    Atom  No    Charge         Core      Valence    Rydberg      Total
 -----------------------------------------------------------------------
      C    1   -0.07037      0.99959     2.06105    0.00972     3.07037
      C    2   -0.17338      0.99948     2.16577    0.00813     3.17338
      C    3    0.14521      0.99966     1.83717    0.01797     2.85479
      N    4   -0.18963      0.99979     2.67881    0.01103     3.68963
      C    5   -0.05873      0.99957     2.04853    0.01063     3.05873
      C    6   -0.11351      0.99956     2.10425    0.00969     3.11351
      C    7    0.01391      0.99960     1.96967    0.01682     2.98609
      N    8   -0.20439      0.99971     2.69240    0.01228     3.70439
      C    9    0.03716      0.99960     1.94955    0.01369     2.96284
      C   10   -0.13364      0.99956     2.12407    0.01001     3.13364
      H   11    0.09346      0.00000     0.40515    0.00139     0.40654
      H   12    0.09099      0.00000     0.40749    0.00152     0.40901
      H   13    0.10096      0.00000     0.39781    0.00124     0.39904
      H   14    0.09475      0.00000     0.40440    0.00085     0.40525
      H   15    0.09779      0.00000     0.40114    0.00107     0.40221
      H   16    0.08542      0.00000     0.41343    0.00114     0.41458
      H   17    0.08572      0.00000     0.41309    0.00119     0.41428
      H   18    0.09827      0.00000     0.40087    0.00086     0.40173
 =======================================================================
   * Total *    0.00000      9.99611    24.87466    0.12923    35.00000

 Normal termination of Gaussian 16 at Tue Dec  8 13:45:20 2020.
