 Gaussian 16, Revision A.03,

 -----------------------------------------------------------
 # opt freq B3LYP/6-31G(d) empiricaldispersion=gd3bj scf=xqc
 -----------------------------------------------------------

 ------------------------------
 CID_66128832_JID_7396_neutraal
 ------------------------------
 Symbolic Z-matrix:
 Charge =  0 Multiplicity = 1

 SCF Done:  E(RB3LYP) =  -779.851816488     A.U. after   15 cycles
 SCF Done:  E(RB3LYP) =  -779.856076368     A.U. after   13 cycles
 SCF Done:  E(RB3LYP) =  -779.856737054     A.U. after   13 cycles
 SCF Done:  E(RB3LYP) =  -779.857969606     A.U. after   12 cycles
 SCF Done:  E(RB3LYP) =  -779.858604260     A.U. after   12 cycles
 SCF Done:  E(RB3LYP) =  -779.859208202     A.U. after   13 cycles
 SCF Done:  E(RB3LYP) =  -779.859561344     A.U. after   12 cycles
 SCF Done:  E(RB3LYP) =  -779.859664754     A.U. after   11 cycles
 SCF Done:  E(RB3LYP) =  -779.859691674     A.U. after   11 cycles
 SCF Done:  E(RB3LYP) =  -779.859705791     A.U. after    9 cycles
 SCF Done:  E(RB3LYP) =  -779.859938182     A.U. after    8 cycles
 SCF Done:  E(RB3LYP) =  -779.859938427     A.U. after    8 cycles
 SCF Done:  E(RB3LYP) =  -779.859938519     A.U. after    7 cycles
 SCF Done:  E(RB3LYP) =  -779.859938576     A.U. after    7 cycles
 Optimization completed.
    -- Stationary point found.
 Normal termination of Gaussian 16 at Fri Dec 11 12:17:56 2020.

 --------------------------------------------------------------------
 #N Geom=AllCheck Guess=TCheck SCRF=Check GenChk RB3LYP/6-31G(d) Freq
 --------------------------------------------------------------------

 Structure from the checkpoint file:  "JID_7396.chk"
 ------------------------------
 CID_66128832_JID_7396_neutraal
 ------------------------------
 Charge =  0 Multiplicity = 1

 SCF Done:  E(RB3LYP) =  -779.859938576     A.U. after    1 cycles

  Exact polarizability: 183.922  21.788 147.091 -15.729   8.553 109.468
 Approx polarizability: 271.079  48.179 238.033 -34.855  19.626 185.203

                      1                      2                      3
                      A                      A                      A
 Frequencies --     27.7821                34.3263                48.0042
 Red. masses --      4.1165                 4.6258                 4.5393
 Frc consts  --      0.0019                 0.0032                 0.0062
 IR Inten    --      0.6560                 0.3615                 0.3622

                      4                      5                      6
                      A                      A                      A
 Frequencies --     74.7050                85.6538               123.6523
 Red. masses --      1.0835                 5.0801                 4.7602
 Frc consts  --      0.0036                 0.0220                 0.0429
 IR Inten    --      0.0651                 3.2241                 0.8177

                      7                      8                      9
                      A                      A                      A
 Frequencies --    126.8115               158.2076               191.0453
 Red. masses --      1.1474                 3.8311                 5.1672
 Frc consts  --      0.0109                 0.0565                 0.1111
 IR Inten    --      0.6357                 1.5146                 2.3402

                     10                     11                     12
                      A                      A                      A
 Frequencies --    199.3725               283.3769               302.6699
 Red. masses --      3.1010                 3.2253                 4.1581
 Frc consts  --      0.0726                 0.1526                 0.2244
 IR Inten    --      5.5432                 2.8644                 4.0825

                     13                     14                     15
                      A                      A                      A
 Frequencies --    319.9917               351.3992               363.1728
 Red. masses --      4.3721                 7.2970                 1.1385
 Frc consts  --      0.2638                 0.5309                 0.0885
 IR Inten    --      1.1214                 1.0544               116.0366

                     16                     17                     18
                      A                      A                      A
 Frequencies --    370.2793               419.9694               428.8719
 Red. masses --      5.7934                 4.1156                 3.1697
 Frc consts  --      0.4680                 0.4277                 0.3435
 IR Inten    --      4.0633                 6.9071                 0.8203

                     19                     20                     21
                      A                      A                      A
 Frequencies --    441.1121               481.0237               526.6415
 Red. masses --      4.2118                 3.7692                 1.4812
 Frc consts  --      0.4828                 0.5138                 0.2420
 IR Inten    --      8.0918                 6.8873                63.2420

                     22                     23                     24
                      A                      A                      A
 Frequencies --    528.8384               610.7192               620.4764
 Red. masses --      2.4511                 4.2613                 6.4351
 Frc consts  --      0.4039                 0.9364                 1.4597
 IR Inten    --     10.4440                18.7077                17.2479

                     25                     26                     27
                      A                      A                      A
 Frequencies --    644.2272               655.4506               672.8801
 Red. masses --      5.1361                 5.7558                 5.4485
 Frc consts  --      1.2559                 1.4569                 1.4535
 IR Inten    --     17.3346                 5.9410                13.0993

                     28                     29                     30
                      A                      A                      A
 Frequencies --    677.6514               725.5434               761.9738
 Red. masses --      4.4830                 4.3845                 5.6929
 Frc consts  --      1.2129                 1.3599                 1.9474
 IR Inten    --      6.2787                12.5192                27.9422

                     31                     32                     33
                      A                      A                      A
 Frequencies --    790.5078               812.3475               831.4472
 Red. masses --      4.1088                 1.3517                 1.9717
 Frc consts  --      1.5128                 0.5255                 0.8031
 IR Inten    --     12.8872                 6.9549                 0.5874

                     34                     35                     36
                      A                      A                      A
 Frequencies --    833.9654               850.1543               914.9647
 Red. masses --      1.8069                 2.1432                 3.1567
 Frc consts  --      0.7404                 0.9127                 1.5570
 IR Inten    --     19.0333                22.6015                14.3733

                     37                     38                     39
                      A                      A                      A
 Frequencies --    938.0059               957.3138              1011.8143
 Red. masses --      1.4502                 1.3503                 1.5327
 Frc consts  --      0.7518                 0.7291                 0.9245
 IR Inten    --      2.8706                 0.4869                 1.4962

                     40                     41                     42
                      A                      A                      A
 Frequencies --   1036.0591              1046.1472              1078.4193
 Red. masses --      2.5296                 3.5190                 1.4738
 Frc consts  --      1.5998                 2.2691                 1.0099
 IR Inten    --      0.3378                36.4200                 1.8738

                     43                     44                     45
                      A                      A                      A
 Frequencies --   1081.6542              1128.7491              1135.9981
 Red. masses --      2.4622                 1.7958                 1.9150
 Frc consts  --      1.6973                 1.3480                 1.4560
 IR Inten    --     14.6135                29.5063                20.4936

                     46                     47                     48
                      A                      A                      A
 Frequencies --   1159.2151              1199.0951              1203.3820
 Red. masses --      1.2990                 1.2792                 1.3155
 Frc consts  --      1.0285                 1.0837                 1.1224
 IR Inten    --      0.8976                42.4379                 5.8526

                     49                     50                     51
                      A                      A                      A
 Frequencies --   1211.3024              1267.8217              1313.8782
 Red. masses --      1.3986                 2.3800                 3.8009
 Frc consts  --      1.2091                 2.2539                 3.8658
 IR Inten    --    159.1581                39.2999               182.1751

                     52                     53                     54
                      A                      A                      A
 Frequencies --   1335.3309              1339.6260              1369.7495
 Red. masses --      3.8384                 2.4683                 3.3625
 Frc consts  --      4.0325                 2.6098                 3.7170
 IR Inten    --     57.1191                17.4302               136.4627

                     55                     56                     57
                      A                      A                      A
 Frequencies --   1382.1549              1404.7377              1434.1874
 Red. masses --      2.4237                 5.7153                 1.2811
 Frc consts  --      2.7280                 6.6448                 1.5526
 IR Inten    --     27.9382                21.4797                22.2081

                     58                     59                     60
                      A                      A                      A
 Frequencies --   1451.1888              1464.1041              1489.4752
 Red. masses --      2.0356                 1.7812                 2.5304
 Frc consts  --      2.5257                 2.2496                 3.3076
 IR Inten    --     23.7955                24.6779                62.2642

                     61                     62                     63
                      A                      A                      A
 Frequencies --   1497.4968              1500.7333              1507.4027
 Red. masses --      2.6803                 3.2452                 1.0678
 Frc consts  --      3.5414                 4.3062                 1.4295
 IR Inten    --     26.5242               166.6285                 6.5060

                     64                     65                     66
                      A                      A                      A
 Frequencies --   1514.7221              1526.1804              1529.8543
 Red. masses --      1.0441                 1.1913                 1.2227
 Frc consts  --      1.4114                 1.6348                 1.6861
 IR Inten    --      6.8808                16.6205                 5.4202

                     67                     68                     69
                      A                      A                      A
 Frequencies --   1568.2452              1586.8898              1651.2028
 Red. masses --      2.8769                 4.9184                 6.0822
 Frc consts  --      4.1687                 7.2974                 9.7704
 IR Inten    --    191.7658                19.1522                 7.0877

                     70                     71                     72
                      A                      A                      A
 Frequencies --   1679.2313              1751.2494              3049.9552
 Red. masses --      6.0741                 8.0869                 1.0379
 Frc consts  --     10.0914                14.6126                 5.6886
 IR Inten    --     17.0141               369.6489                31.9359

                     73                     74                     75
                      A                      A                      A
 Frequencies --   3093.2131              3100.4898              3144.6643
 Red. masses --      1.0311                 1.1014                 1.1001
 Frc consts  --      5.8124                 6.2380                 6.4095
 IR Inten    --     27.3193                19.8167                10.0951

                     76                     77                     78
                      A                      A                      A
 Frequencies --   3165.8789              3175.3298              3191.7373
 Red. masses --      1.1056                 1.0896                 1.1069
 Frc consts  --      6.5291                 6.4729                 6.6436
 IR Inten    --      9.8152                18.1675                 6.5465

                     79                     80                     81
                      A                      A                      A
 Frequencies --   3202.3931              3219.0615              3223.7549
 Red. masses --      1.0891                 1.0930                 1.0941
 Frc consts  --      6.5808                 6.6731                 6.6995
 IR Inten    --      6.3759                 7.4480                 3.8409

                     82                     83                     84
                      A                      A                      A
 Frequencies --   3293.9892              3573.8857              3752.2062
 Red. masses --      1.0971                 1.0750                 1.0660
 Frc consts  --      7.0138                 8.0901                 8.8423
 IR Inten    --      0.3724                40.1122                49.2207

 - Thermochemistry -
 -------------------
 Temperature   298.150 Kelvin.  Pressure   1.00000 Atm.
 Atom     1 has atomic number  6 and mass  12.00000

 Molecular mass:   231.10078 amu.
 Principal axes and moments of inertia in atomic units:
                           1         2         3
     Eigenvalues --  2371.900415942.223137498.45837
           X            0.99998  -0.00411  -0.00435
           Y            0.00407   0.99997  -0.00726
           Z            0.00438   0.00724   0.99996
 This molecule is an asymmetric top.
 Rotational symmetry number  1.
 Warning -- assumption of classical behavior for rotation
           may cause significant error
 Rotational temperatures (Kelvin)      0.03652     0.01458     0.01155
 Rotational constants (GHZ):           0.76088     0.30371     0.24068
 Zero-point vibrational energy     629405.6 (Joules/Mol)
                                  150.43154 (Kcal/Mol)
 Warning -- explicit consideration of  24 degrees of freedom as
           vibrations may cause significant error
 Vibrational temperatures:     39.97    49.39    69.07   107.48   123.24
          (Kelvin)            177.91   182.45   227.63   274.87   286.85
                              407.72   435.47   460.40   505.59   522.52
                              532.75   604.24   617.05   634.66   692.09
                              757.72   760.88   878.69   892.73   926.90
                              943.05   968.12   974.99  1043.90  1096.31
                             1137.36  1168.79  1196.27  1199.89  1223.18
                             1316.43  1349.58  1377.36  1455.78  1490.66
                             1505.17  1551.60  1556.26  1624.02  1634.45
                             1667.85  1725.23  1731.40  1742.79  1824.11
                             1890.38  1921.24  1927.42  1970.76  1988.61
                             2021.10  2063.48  2087.94  2106.52  2143.02
                             2154.56  2159.22  2168.82  2179.35  2195.83
                             2201.12  2256.36  2283.18  2375.71  2416.04
                             2519.66  4388.21  4450.44  4460.91  4524.47
                             4554.99  4568.59  4592.20  4607.53  4631.51
                             4638.26  4739.32  5142.02  5398.59

 Zero-point correction=                           0.239728 (Hartree/Particle)
 Thermal correction to Energy=                    0.255538
 Thermal correction to Enthalpy=                  0.256482
 Thermal correction to Gibbs Free Energy=         0.194933
 Sum of electronic and zero-point Energies=           -779.620211
 Sum of electronic and thermal Energies=              -779.604401
 Sum of electronic and thermal Enthalpies=            -779.603457
 Sum of electronic and thermal Free Energies=         -779.665006

                     E (Thermal)             CV                S
                      KCal/Mol        Cal/Mol-Kelvin    Cal/Mol-Kelvin
 Total                  160.352             59.227            129.541
 Electronic               0.000              0.000              0.000
 Translational            0.889              2.981             42.215
 Rotational               0.889              2.981             33.024
 Vibrational            158.575             53.265             54.302
 Vibration     1          0.593              1.984              5.982
 Vibration     2          0.594              1.983              5.562
 Vibration     3          0.595              1.978              4.898
 Vibration     4          0.599              1.966              4.025
 Vibration     5          0.601              1.959              3.757
 Vibration     6          0.610              1.929              3.042
 Vibration     7          0.611              1.926              2.994
 Vibration     8          0.621              1.893              2.571
 Vibration     9          0.634              1.852              2.218
 Vibration    10          0.637              1.841              2.139
 Vibration    11          0.682              1.704              1.513
 Vibration    12          0.694              1.669              1.402
 Vibration    13          0.706              1.635              1.310
 Vibration    14          0.728              1.572              1.160
 Vibration    15          0.737              1.548              1.108
 Vibration    16          0.742              1.533              1.079
 Vibration    17          0.783              1.427              0.892
 Vibration    18          0.790              1.407              0.862
 Vibration    19          0.801              1.380              0.823
 Vibration    20          0.837              1.292              0.707
 Vibration    21          0.882              1.191              0.595
 Vibration    22          0.884              1.186              0.590
 Vibration    23          0.970              1.009              0.432
 Vibration    24          0.981              0.989              0.416

                           ! Non-Optimized Parameters !
 Normal termination of Gaussian 16 at Fri Dec 11 12:29:17 2020.

 ----------------------------------------------------------------------
 # B3LYP/6-311++G(d,p) empiricaldispersion=gd3bj scf=xqc pop=npa geom=c
 heck
 ----------------------------------------------------------------------

 --------------------------------------
 CID_66128832_JID_7396_Energie_neutraal
 --------------------------------------
 Structure from the checkpoint file:  "JID_7396.chk"
 Charge =  0 Multiplicity = 1

 SCF Done:  E(RB3LYP) =  -780.081683875     A.U. after   16 cycles
 Normal termination of Gaussian 16 at Fri Dec 11 12:35:24 2020.

 ----------------------------------------------------------------------
 # B3LYP/6-311++G(d,p) empiricaldispersion=gd3bj scf=xqc pop=npa geom=c
 heck
 ----------------------------------------------------------------------

 ------------------------------------
 CID_66128832_JID_7396_Energie_kation
 ------------------------------------
 Structure from the checkpoint file:  "JID_7396.chk"
 Charge =  1 Multiplicity = 2

 SCF Done:  E(UB3LYP) =  -779.785893959     A.U. after   33 cycles
 SCF Done:  E(UB3LYP) =  -779.786175976     a.u. after    6 cycles
 Normal termination of Gaussian 16 at Fri Dec 11 14:17:15 2020.
 Gaussian 16:  ES64L-G16RevA.03 25-Dec-2016

 ----------------------------------------------------------------------
 # B3LYP/6-311++G(d,p) empiricaldispersion=gd3bj scf=xqc pop=npa geom=c
 heck
 ----------------------------------------------------------------------

 -----------------------------------
 CID_66128832_JID_7396_Energie_anion
 -----------------------------------
 Structure from the checkpoint file:  "JID_7396.chk"
 Charge = -1 Multiplicity = 2

                         Standard orientation:
 ---------------------------------------------------------------------
 Center     Atomic      Atomic             Coordinates (Angstroms)
 Number     Number       Type             X           Y           Z
 ---------------------------------------------------------------------
      1          6           0       -1.743151    3.385913   -0.629888
      2          6           0       -1.868686    1.918691   -0.358716
      3          7           0       -2.983670    1.423411    0.197870
      4          7           0       -2.786515    0.097419    0.303507
      5          6           0       -1.554620   -0.277856   -0.165531
      6          6           0       -0.938150    0.891636   -0.603388
      7          6           0       -1.164719   -1.702729   -0.216795
      8          8           0       -1.998370   -2.606190   -0.166790
      9          7           0        0.170500   -2.000576   -0.379052
     10          6           0        1.304553   -1.174571   -0.141891
     11          6           0        1.467393   -0.506649    1.074887
     12          6           0        2.573627    0.310571    1.287343
     13          6           0        3.547168    0.443705    0.291439
     14          6           0        3.402560   -0.240613   -0.919883
     15          6           0        2.281367   -1.035313   -1.133837
     16          8           0        4.658123    1.223006    0.444058
     17          6           0       -3.856869   -0.726545    0.846155
     18          1           0       -1.597053    3.584842   -1.698184
     19          1           0       -2.651102    3.900923   -0.305591
     20          1           0       -0.889641    3.821293   -0.096752
     21          1           0        0.044586    0.983264   -1.038333
     22          1           0        0.322917   -2.995675   -0.499725
     23          1           0        0.716757   -0.618246    1.849919
     24          1           0        2.686471    0.835615    2.233520
     25          1           0        4.166355   -0.127863   -1.681847
     26          1           0        2.149528   -1.547837   -2.082061
     27          1           0        4.634926    1.638666    1.319849
     28          1           0       -4.592629   -0.037565    1.260621
     29          1           0       -4.303072   -1.341728    0.062682
     30          1           0       -3.471123   -1.389428    1.622099
 ---------------------------------------------------------------------

 SCF Done:  E(UB3LYP) =  -780.078841073     A.U. after   33 cycles
 SCF Done:  E(UB3LYP) =  -780.078841073     a.u. after    1 cycles

 The electronic state is 2-A.
 Alpha  occ. eigenvalues --  -19.04506 -18.96170 -14.26545 -14.22271 -14.20594
 Alpha  occ. eigenvalues --  -10.14717 -10.12877 -10.10204 -10.09651 -10.08631
 Alpha  occ. eigenvalues --  -10.07903 -10.07450 -10.07250 -10.07058 -10.06949
 Alpha  occ. eigenvalues --  -10.06562 -10.04271  -0.95657  -0.93493  -0.91404
 Alpha  occ. eigenvalues --   -0.81759  -0.74129  -0.72964  -0.67381  -0.65133
 Alpha  occ. eigenvalues --   -0.63157  -0.62990  -0.56324  -0.53315  -0.52729
 Alpha  occ. eigenvalues --   -0.50312  -0.47587  -0.44476  -0.43335  -0.41936
 Alpha  occ. eigenvalues --   -0.39494  -0.37189  -0.36495  -0.35312  -0.34365
 Alpha  occ. eigenvalues --   -0.32616  -0.32488  -0.31790  -0.31726  -0.30899
 Alpha  occ. eigenvalues --   -0.30470  -0.30008  -0.29145  -0.27949  -0.27792
 Alpha  occ. eigenvalues --   -0.26689  -0.26525  -0.24408  -0.23801  -0.17878
 Alpha  occ. eigenvalues --   -0.16505  -0.16085  -0.14460  -0.13595  -0.12944
 Alpha  occ. eigenvalues --   -0.11122   0.04444
 Alpha virt. eigenvalues --    0.06050   0.07894   0.08222   0.08363   0.08668
 Alpha virt. eigenvalues --    0.09436   0.09868   0.10391   0.11153   0.11447
 Alpha virt. eigenvalues --    0.11974   0.12611   0.12781   0.13312   0.14599

  Beta  occ. eigenvalues --  -19.04436 -18.95947 -14.26363 -14.22265 -14.20451
  Beta  occ. eigenvalues --  -10.14506 -10.12809 -10.10176 -10.09660 -10.08597
  Beta  occ. eigenvalues --  -10.07954 -10.07455 -10.07178 -10.07066 -10.06914
  Beta  occ. eigenvalues --  -10.06554 -10.04178  -0.95504  -0.93210  -0.91036
  Beta  occ. eigenvalues --   -0.81610  -0.74036  -0.72800  -0.67148  -0.65059
  Beta  occ. eigenvalues --   -0.63096  -0.62888  -0.56214  -0.52975  -0.52570
  Beta  occ. eigenvalues --   -0.50148  -0.47485  -0.44370  -0.43223  -0.41866
  Beta  occ. eigenvalues --   -0.39347  -0.37105  -0.36076  -0.35136  -0.34289
  Beta  occ. eigenvalues --   -0.32570  -0.32412  -0.31750  -0.31600  -0.30700
  Beta  occ. eigenvalues --   -0.30215  -0.29926  -0.28706  -0.27838  -0.27613
  Beta  occ. eigenvalues --   -0.26434  -0.26239  -0.24297  -0.23548  -0.17684
  Beta  occ. eigenvalues --   -0.16047  -0.15852  -0.14218  -0.12769  -0.12386
  Beta  occ. eigenvalues --   -0.10815
  Beta virt. eigenvalues --    0.07480   0.07911   0.08313   0.08395   0.08618
  Beta virt. eigenvalues --    0.08791   0.09634   0.10210   0.10650   0.11138
  Beta virt. eigenvalues --    0.11566   0.12054   0.12609   0.12821   0.13485

 Mulliken charges and spin densities:
               1          2
     1  C   -0.358211  -0.178470
     2  C   -0.528954  -0.185303
     3  N   -0.059442   0.098528
     4  N    0.052670   0.031940
     5  C   -0.145908   0.000170
     6  C    0.321884   0.324366
     7  C   -0.085625   0.103308
     8  O   -0.404041   0.076838
     9  N   -0.228676   0.048542
    10  C   -0.258071  -0.112935
    11  C   -0.599947   0.682786
    12  C   -0.581093   0.585368
    13  C    1.434336  -1.960583
    14  C    0.420519  -0.577603
    15  C    0.061782   0.204130
    16  O   -0.302465   0.066913
    17  C   -0.309407   0.001307
    18  H    0.130128   0.004891
    19  H    0.129344   0.006427
    20  H    0.064602   0.089165
    21  H    0.155411   0.036815
    22  H    0.272490   0.038774
    23  H    0.223825  -0.055311
    24  H   -0.756777   0.930763
    25  H    0.160001   0.016205
    26  H    0.148367   0.009150
    27  H   -0.424377   0.705757
    28  H    0.126267   0.001286
    29  H    0.178624   0.003224
    30  H    0.162743   0.003553
 Sum of Mulliken charges =  -1.00000   1.00000

 Dipole moment (field-independent basis, Debye):
    X=             -3.8274    Y=             -2.6733    Z=             -2.7402  Tot=              5.4134
 Quadrupole moment (field-independent basis, Debye-Ang):
   XX=           -173.4495   YY=           -135.7476   ZZ=           -117.1948
   XY=            -19.0898   XZ=            -17.5095   YZ=             -9.7462

 Summary of Natural Population Analysis:

                                       Natural Population
                Natural  -----------------------------------------------
    Atom  No    Charge         Core      Valence    Rydberg      Total
 -----------------------------------------------------------------------
      C    1   -0.29546      0.99963     2.29129    0.00454     3.29546
      C    2    0.05047      0.99961     1.93635    0.01357     2.94953
      N    3   -0.14285      0.99970     2.63124    0.01191     3.64285
      N    4   -0.07362      0.99963     2.56248    0.01151     3.57362
      C    5    0.04021      0.99948     1.94904    0.01128     2.95979
      C    6   -0.13008      0.99948     2.12211    0.00850     3.13008
      C    7    0.35265      0.99962     1.62826    0.01946     2.64735
      O    8   -0.31239      0.99988     3.30696    0.00555     4.31239
      N    9   -0.32004      0.99965     2.80939    0.01100     3.82004
      C   10    0.05479      0.99946     1.93419    0.01155     2.94521
      C   11   -0.09090      0.99952     2.08260    0.00879     3.09090
      C   12   -0.13450      0.99952     2.12427    0.01071     3.13450
      C   13    0.16739      0.99938     1.81933    0.01389     2.83261
      C   14   -0.13068      0.99952     2.12163    0.00952     3.13068
      C   15   -0.08791      0.99952     2.07946    0.00892     3.08791
      O   16   -0.34075      0.99988     3.33357    0.00730     4.34075
      C   17   -0.17257      0.99965     2.16654    0.00638     3.17257
      H   18    0.09806      0.00000     0.40079    0.00115     0.40194
      H   19    0.10454      0.00000     0.39437    0.00110     0.39546
      H   20    0.10260      0.00000     0.39607    0.00132     0.39740
      H   21    0.11114      0.00000     0.38767    0.00119     0.38886
      H   22    0.19392      0.00000     0.30453    0.00155     0.30608
      H   23    0.10527      0.00000     0.39343    0.00130     0.39473
      H   24    0.10431      0.00000     0.39415    0.00154     0.39569
      H   25    0.10318      0.00000     0.39603    0.00079     0.39682
      H   26    0.09987      0.00000     0.39909    0.00103     0.40013
      H   27    0.24070      0.00000     0.23862    0.02069     0.25930
      H   28    0.09916      0.00000     0.39994    0.00090     0.40084
      H   29    0.10216      0.00000     0.39679    0.00105     0.39784
      H   30    0.10133      0.00000     0.39770    0.00097     0.39867
 =======================================================================
   * Total *    0.00001     16.99314    43.79789    0.20896    60.99999

 Normal termination of Gaussian 16 at Fri Dec 11 14:33:04 2020.
