 Gaussian 16, Revision A.03,

 -----------------------------------------------------------
 # opt freq B3LYP/6-31G(d) empiricaldispersion=gd3bj scf=xqc
 -----------------------------------------------------------

 ---------------------------
 CID_145752_JID_959_neutraal
 ---------------------------
 Symbolic Z-matrix:
 Charge =  0 Multiplicity = 1

 SCF Done:  E(RB3LYP) =  -547.749768668     A.U. after   15 cycles
 SCF Done:  E(RB3LYP) =  -547.757701314     A.U. after   13 cycles
 SCF Done:  E(RB3LYP) =  -547.758350525     A.U. after   12 cycles
 SCF Done:  E(RB3LYP) =  -547.758740569     A.U. after   12 cycles
 SCF Done:  E(RB3LYP) =  -547.759150683     A.U. after   11 cycles
 SCF Done:  E(RB3LYP) =  -547.759204192     A.U. after   10 cycles
 SCF Done:  E(RB3LYP) =  -547.759244421     A.U. after   12 cycles
 SCF Done:  E(RB3LYP) =  -547.759272465     A.U. after   10 cycles
 SCF Done:  E(RB3LYP) =  -547.759320717     A.U. after   11 cycles
 SCF Done:  E(RB3LYP) =  -547.759380270     A.U. after   12 cycles
 SCF Done:  E(RB3LYP) =  -547.759754153     A.U. after    7 cycles
 SCF Done:  E(RB3LYP) =  -547.759754228     A.U. after    8 cycles
 SCF Done:  E(RB3LYP) =  -547.759754275     A.U. after    7 cycles
 SCF Done:  E(RB3LYP) =  -547.759754320     A.U. after    8 cycles
 SCF Done:  E(RB3LYP) =  -547.759754345     A.U. after    7 cycles
 SCF Done:  E(RB3LYP) =  -547.759754361     A.U. after    7 cycles
 Optimization completed.
    -- Stationary point found.
 Normal termination of Gaussian 16 at Tue Dec  8 13:42:23 2020.

 --------------------------------------------------------------------
 #N Geom=AllCheck Guess=TCheck SCRF=Check GenChk RB3LYP/6-31G(d) Freq
 --------------------------------------------------------------------

 Structure from the checkpoint file:  "JID_959.chk"
 ---------------------------
 CID_145752_JID_959_neutraal
 ---------------------------
 Charge =  0 Multiplicity = 1

 SCF Done:  E(RB3LYP) =  -547.759754361     A.U. after    1 cycles

  Exact polarizability:  90.403   4.414  67.482  -2.148  -0.342  56.607
 Approx polarizability: 111.077   7.373 108.048  -1.879  -0.814  83.108

                      1                      2                      3
                      A                      A                      A
 Frequencies --     19.8812                55.3033                87.6281
 Red. masses --      3.5257                 4.6309                 1.3926
 Frc consts  --      0.0008                 0.0083                 0.0063
 IR Inten    --      1.4720                 2.4599                 1.5919

                      4                      5                      6
                      A                      A                      A
 Frequencies --    112.3515               118.3342               142.9994
 Red. masses --      2.2928                 1.5160                 1.3377
 Frc consts  --      0.0171                 0.0125                 0.0161
 IR Inten    --      6.7740                38.2568                13.5387

                      7                      8                      9
                      A                      A                      A
 Frequencies --    158.4271               172.9711               197.5528
 Red. masses --      2.1208                 5.4900                 2.4135
 Frc consts  --      0.0314                 0.0968                 0.0555
 IR Inten    --     18.7119                 1.6536                 3.0023

                     10                     11                     12
                      A                      A                      A
 Frequencies --    279.6241               293.8182               383.8987
 Red. masses --      5.2523                 3.2493                 4.5895
 Frc consts  --      0.2420                 0.1653                 0.3985
 IR Inten    --      0.6585                 4.6787                24.2407

                     13                     14                     15
                      A                      A                      A
 Frequencies --    446.4953               526.4250               581.2133
 Red. masses --      5.2550                 3.2523                 3.9789
 Frc consts  --      0.6172                 0.5310                 0.7919
 IR Inten    --     19.0038                11.6229                28.6173

                     16                     17                     18
                      A                      A                      A
 Frequencies --    611.9528               657.2348               752.4604
 Red. masses --      1.6266                 5.2035                10.3388
 Frc consts  --      0.3589                 1.3243                 3.4489
 IR Inten    --     87.5962                 7.5360                28.5476

                     19                     20                     21
                      A                      A                      A
 Frequencies --    775.2379               830.8505               902.3307
 Red. masses --      8.8265                 5.6942                 7.3527
 Frc consts  --      3.1254                 2.3159                 3.5272
 IR Inten    --      0.2588                14.8779                14.6304

                     22                     23                     24
                      A                      A                      A
 Frequencies --   1006.2467              1068.7969              1154.4657
 Red. masses --      3.8730                 1.7618                 1.4332
 Frc consts  --      2.3105                 1.1858                 1.1254
 IR Inten    --     46.7803               117.0943                30.9396

                     25                     26                     27
                      A                      A                      A
 Frequencies --   1156.4245              1170.5617              1191.4043
 Red. masses --      1.4013                 2.1616                 2.0742
 Frc consts  --      1.1041                 1.7451                 1.7347
 IR Inten    --     46.4003               125.3071                18.3980

                     28                     29                     30
                      A                      A                      A
 Frequencies --   1234.6228              1295.8899              1356.6990
 Red. masses --      4.1889                 1.3398                 2.8010
 Frc consts  --      3.7620                 1.3256                 3.0376
 IR Inten    --     23.0183               180.6743                38.3279

                     31                     32                     33
                      A                      A                      A
 Frequencies --   1381.9643              1404.5924              1479.3832
 Red. masses --      3.3753                 1.2239                 1.2329
 Frc consts  --      3.7980                 1.4226                 1.5898
 IR Inten    --    552.4903                44.8298                36.6026

                     34                     35                     36
                      A                      A                      A
 Frequencies --   1489.8721              1498.7449              1516.3480
 Red. masses --      1.4090                 1.3227                 1.0588
 Frc consts  --      1.8427                 1.7505                 1.4344
 IR Inten    --      8.6180                 4.4893                13.0208

                     37                     38                     39
                      A                      A                      A
 Frequencies --   1526.3806              1542.2078              1551.4083
 Red. masses --      1.0655                 1.0641                 1.1177
 Frc consts  --      1.4627                 1.4911                 1.5850
 IR Inten    --      2.2047                36.4396                45.6784

                     40                     41                     42
                      A                      A                      A
 Frequencies --   1696.0184              1801.5909              1858.3397
 Red. masses --      1.0841                 9.4476                 9.8666
 Frc consts  --      1.8373                18.0668                20.0756
 IR Inten    --     57.7573               199.2544               508.3632

                     43                     44                     45
                      A                      A                      A
 Frequencies --   3045.6062              3070.0794              3105.7718
 Red. masses --      1.0422                 1.0374                 1.0998
 Frc consts  --      5.6956                 5.7612                 6.2502
 IR Inten    --     54.0061                31.9419                26.2226

                     46                     47                     48
                      A                      A                      A
 Frequencies --   3142.9599              3170.8850              3175.4523
 Red. masses --      1.0995                 1.0992                 1.1053
 Frc consts  --      6.3991                 6.5116                 6.5668
 IR Inten    --     15.4612                10.9688                 8.4890

                     49                     50                     51
                      A                      A                      A
 Frequencies --   3372.5804              3474.7977              3619.6734
 Red. masses --      1.0488                 1.0926                 1.0761
 Frc consts  --      7.0286                 7.7724                 8.3071
 IR Inten    --     15.3735                 5.9291                34.9539

 - Thermochemistry -
 -------------------
 Temperature   298.150 Kelvin.  Pressure   1.00000 Atm.
 Atom     1 has atomic number  6 and mass  12.00000

 Molecular mass:   147.06439 amu.
 Principal axes and moments of inertia in atomic units:
                           1         2         3
     Eigenvalues --   760.599862123.482822357.22823
           X            0.99946   0.02752  -0.01801
           Y           -0.02692   0.99910   0.03267
           Z            0.01889  -0.03217   0.99930
 This molecule is an asymmetric top.
 Rotational symmetry number  1.
 Warning -- assumption of classical behavior for rotation
           may cause significant error
 Rotational temperatures (Kelvin)      0.11388     0.04079     0.03674
 Rotational constants (GHZ):           2.37279     0.84990     0.76562
 Zero-point vibrational energy     398755.8 (Joules/Mol)
                                   95.30492 (Kcal/Mol)
 Warning -- explicit consideration of  16 degrees of freedom as
           vibrations may cause significant error
 Vibrational temperatures:     28.60    79.57   126.08   161.65   170.26
          (Kelvin)            205.74   227.94   248.87   284.23   402.32
                              422.74   552.34   642.41   757.41   836.24
                              880.46   945.61  1082.62  1115.39  1195.41
                             1298.25  1447.76  1537.76  1661.02  1663.84
                             1684.18  1714.17  1776.35  1864.50  1951.99
                             1988.34  2020.90  2128.50  2143.59  2156.36
                             2181.69  2196.12  2218.89  2232.13  2440.19
                             2592.09  2673.74  4381.95  4417.16  4468.51
                             4522.02  4562.20  4568.77  4852.39  4999.46
                             5207.90

 Zero-point correction=                           0.151878 (Hartree/Particle)
 Thermal correction to Energy=                    0.163714
 Thermal correction to Enthalpy=                  0.164659
 Thermal correction to Gibbs Free Energy=         0.112460
 Sum of electronic and zero-point Energies=           -547.607876
 Sum of electronic and thermal Energies=              -547.596040
 Sum of electronic and thermal Enthalpies=            -547.595096
 Sum of electronic and thermal Free Energies=         -547.647294

                     E (Thermal)             CV                S
                      KCal/Mol        Cal/Mol-Kelvin    Cal/Mol-Kelvin
 Total                  102.732             39.093            109.861
 Electronic               0.000              0.000              0.000
 Translational            0.889              2.981             40.868
 Rotational               0.889              2.981             29.722
 Vibrational            100.955             33.131             39.271
 Vibration     1          0.593              1.986              6.646
 Vibration     2          0.596              1.975              4.618
 Vibration     3          0.601              1.958              3.712
 Vibration     4          0.607              1.939              3.228
 Vibration     5          0.608              1.934              3.127
 Vibration     6          0.616              1.910              2.763
 Vibration     7          0.621              1.893              2.568
 Vibration     8          0.626              1.876              2.403
 Vibration     9          0.637              1.843              2.156
 Vibration    10          0.680              1.711              1.536
 Vibration    11          0.689              1.685              1.452
 Vibration    12          0.753              1.505              1.024
 Vibration    13          0.806              1.369              0.806
 Vibration    14          0.881              1.192              0.595
 Vibration    15          0.938              1.072              0.483
 Vibration    16          0.971              1.007              0.430

                           ! Non-Optimized Parameters !
 Normal termination of Gaussian 16 at Tue Dec  8 13:46:27 2020.

 ----------------------------------------------------------------------
 # B3LYP/6-311++G(d,p) empiricaldispersion=gd3bj scf=xqc pop=npa geom=c
 heck
 ----------------------------------------------------------------------

 -----------------------------------
 CID_145752_JID_959_Energie_neutraal
 -----------------------------------
 Structure from the checkpoint file:  "JID_959.chk"
 Charge =  0 Multiplicity = 1

 SCF Done:  E(RB3LYP) =  -547.936119755     A.U. after   14 cycles
 Normal termination of Gaussian 16 at Tue Dec  8 13:48:24 2020.

 ----------------------------------------------------------------------
 # B3LYP/6-311++G(d,p) empiricaldispersion=gd3bj scf=xqc pop=npa geom=c
 heck
 ----------------------------------------------------------------------

 ---------------------------------
 CID_145752_JID_959_Energie_kation
 ---------------------------------
 Structure from the checkpoint file:  "JID_959.chk"
 Charge =  1 Multiplicity = 2

 SCF Done:  E(UB3LYP) =  -547.594610136     A.U. after   27 cycles
 Normal termination of Gaussian 16 at Tue Dec  8 13:54:25 2020.
 Gaussian 16:  ES64L-G16RevA.03 25-Dec-2016

 ----------------------------------------------------------------------
 # B3LYP/6-311++G(d,p) empiricaldispersion=gd3bj scf=xqc pop=npa geom=c
 heck
 ----------------------------------------------------------------------

 --------------------------------
 CID_145752_JID_959_Energie_anion
 --------------------------------
 Structure from the checkpoint file:  "JID_959.chk"
 Charge = -1 Multiplicity = 2

                         Standard orientation:
 ---------------------------------------------------------------------
 Center     Atomic      Atomic             Coordinates (Angstroms)
 Number     Number       Type             X           Y           Z
 ---------------------------------------------------------------------
      1          6           0       -2.552214   -0.863508    1.155402
      2          7           0       -2.406159    0.187530    0.161680
      3          6           0       -1.247653    0.647687   -0.394432
      4          8           0       -1.156453    1.700249   -0.990913
      5          7           0       -0.147556   -0.281781   -0.263855
      6          6           0       -0.213064   -1.541347   -1.015683
      7          6           0        1.053471    0.231677    0.167707
      8          8           0        1.202793    1.258284    0.799338
      9          8           0        2.070741   -0.626047   -0.147288
     10          7           0        3.355657   -0.214103    0.375858
     11          1           0       -1.563933   -1.165903    1.503771
     12          1           0       -3.067868   -1.742720    0.749078
     13          1           0       -3.121443   -0.491277    2.013365
     14          1           0       -3.185493    0.814718    0.013276
     15          1           0        0.277264   -1.449147   -1.990451
     16          1           0        0.268707   -2.342229   -0.452170
     17          1           0       -1.263823   -1.790114   -1.170512
     18          1           0        3.756677    0.307286   -0.409322
     19          1           0        3.106420    0.510915    1.060117
 ---------------------------------------------------------------------

 SCF Done:  E(UB3LYP) =  -547.925671666     A.U. after   29 cycles

 The electronic state is 2-A.
 Alpha  occ. eigenvalues --  -19.09869 -19.01303 -18.99666 -14.27381 -14.25909
 Alpha  occ. eigenvalues --  -14.24195 -10.23157 -10.20842 -10.10905 -10.09709
 Alpha  occ. eigenvalues --   -1.04010  -0.96392  -0.93777  -0.85590  -0.82249
 Alpha  occ. eigenvalues --   -0.74596  -0.62100  -0.60936  -0.56055  -0.48717
 Alpha  occ. eigenvalues --   -0.44199  -0.43023  -0.41433  -0.39419  -0.38032
 Alpha  occ. eigenvalues --   -0.35806  -0.35010  -0.33239  -0.32629  -0.31409
 Alpha  occ. eigenvalues --   -0.30354  -0.29441  -0.28664  -0.25259  -0.20606
 Alpha  occ. eigenvalues --   -0.19113  -0.18502  -0.16451  -0.15816   0.04452
 Alpha virt. eigenvalues --    0.06288   0.07646   0.08705   0.09808   0.09853
 Alpha virt. eigenvalues --    0.10596   0.11551   0.12087   0.13099   0.13734
 Alpha virt. eigenvalues --    0.14605   0.15587   0.16362   0.16537   0.17344

  Beta  occ. eigenvalues --  -19.09860 -19.01296 -18.99663 -14.27356 -14.25904
  Beta  occ. eigenvalues --  -14.24170 -10.23154 -10.20844 -10.10859 -10.09629
  Beta  occ. eigenvalues --   -1.03994  -0.96382  -0.93765  -0.85575  -0.82206
  Beta  occ. eigenvalues --   -0.74545  -0.62028  -0.60831  -0.56008  -0.48690
  Beta  occ. eigenvalues --   -0.44156  -0.42984  -0.41375  -0.39300  -0.38006
  Beta  occ. eigenvalues --   -0.35764  -0.34954  -0.33202  -0.32593  -0.31371
  Beta  occ. eigenvalues --   -0.30312  -0.29368  -0.28634  -0.25238  -0.20584
  Beta  occ. eigenvalues --   -0.19098  -0.18483  -0.16429  -0.15790
  Beta virt. eigenvalues --    0.06672   0.07704   0.08584   0.09517   0.10059
  Beta virt. eigenvalues --    0.10903   0.11233   0.12125   0.12459   0.13460
  Beta virt. eigenvalues --    0.14336   0.14859   0.15697   0.16564   0.16610

 Mulliken charges and spin densities:
               1          2
     1  C    2.187658  -2.567228
     2  N   -0.579047   0.352491
     3  C    0.009404   0.202450
     4  O   -0.335241   0.012971
     5  N   -0.329261   0.068261
     6  C    0.931853  -1.282024
     7  C    0.336368  -0.192247
     8  O   -0.337984   0.009839
     9  O   -0.065696   0.048973
    10  N   -0.330771  -0.110497
    11  H   -0.299376   0.490667
    12  H   -0.809191   0.997116
    13  H   -0.746805   0.899136
    14  H   -0.212573   0.544154
    15  H   -0.294146   0.481432
    16  H   -0.138543   0.337384
    17  H   -0.207104   0.387492
    18  H    0.025623   0.257461
    19  H    0.194832   0.062169
 Sum of Mulliken charges =  -1.00000   1.00000

 Dipole moment (field-independent basis, Debye):
    X=              5.9205    Y=              2.2013    Z=             -1.4670  Tot=              6.4846
 Quadrupole moment (field-independent basis, Debye-Ang):
   XX=           -119.4660   YY=           -101.0032   ZZ=            -90.2244
   XY=             -5.3642   XZ=              7.4631   YZ=              2.5531

 Summary of Natural Population Analysis:

                                       Natural Population
                Natural  -----------------------------------------------
    Atom  No    Charge         Core      Valence    Rydberg      Total
 -----------------------------------------------------------------------
      C    1   -0.18098      0.99964     2.17248    0.00886     3.18098
      N    2   -0.31309      0.99968     2.80311    0.01031     3.81309
      C    3    0.41896      0.99967     1.55656    0.02482     2.58104
      O    4   -0.30719      0.99987     3.30178    0.00554     4.30719
      N    5   -0.28963      0.99962     2.77865    0.01135     3.78963
      C    6   -0.17641      0.99963     2.16838    0.00840     3.17641
      C    7    0.46759      0.99968     1.50813    0.02461     2.53241
      O    8   -0.32335      0.99987     3.31758    0.00590     4.32335
      O    9   -0.21637      0.99987     3.20727    0.00923     4.21637
      N   10   -0.23880      0.99977     2.72817    0.01087     3.73880
      H   11    0.10348      0.00000     0.39446    0.00205     0.39652
      H   12    0.09959      0.00000     0.39396    0.00645     0.40041
      H   13    0.10212      0.00000     0.39405    0.00383     0.39788
      H   14    0.19903      0.00000     0.29797    0.00300     0.30097
      H   15    0.09776      0.00000     0.40065    0.00158     0.40224
      H   16    0.10526      0.00000     0.39293    0.00181     0.39474
      H   17    0.10700      0.00000     0.39116    0.00184     0.39300
      H   18    0.16701      0.00000     0.33024    0.00274     0.33299
      H   19    0.17802      0.00000     0.31963    0.00235     0.32198
 =======================================================================
   * Total *    0.00000      9.99728    28.85717    0.14555    39.00000

 Normal termination of Gaussian 16 at Tue Dec  8 13:59:52 2020.
