 Gaussian 16, Revision A.03,

 -----------------------------------------------------------
 # opt freq B3LYP/6-31G(d) empiricaldispersion=gd3bj scf=xqc
 -----------------------------------------------------------

 -------------------------------
 CID_150598321_JID_2797_neutraal
 -------------------------------
 Symbolic Z-matrix:
 Charge =  0 Multiplicity = 1

 SCF Done:  E(RB3LYP) =  -566.654743705     A.U. after   17 cycles
 SCF Done:  E(RB3LYP) =  -566.665064149     A.U. after   14 cycles
 SCF Done:  E(RB3LYP) =  -566.669836236     A.U. after   14 cycles
 SCF Done:  E(RB3LYP) =  -566.671957874     A.U. after   14 cycles
 SCF Done:  E(RB3LYP) =  -566.672880990     A.U. after   14 cycles
 SCF Done:  E(RB3LYP) =  -566.673286060     A.U. after   15 cycles
 SCF Done:  E(RB3LYP) =  -566.673957038     A.U. after   15 cycles
 SCF Done:  E(RB3LYP) =  -566.674178269     A.U. after   15 cycles
 SCF Done:  E(RB3LYP) =  -566.674638256     A.U. after   12 cycles
 SCF Done:  E(RB3LYP) =  -566.674934022     A.U. after   14 cycles
 SCF Done:  E(RB3LYP) =  -566.675847028     A.U. after   12 cycles
 SCF Done:  E(RB3LYP) =  -566.675850967     A.U. after   11 cycles
 SCF Done:  E(RB3LYP) =  -566.675856265     A.U. after   11 cycles
 SCF Done:  E(RB3LYP) =  -566.675856491     A.U. after    8 cycles
 SCF Done:  E(RB3LYP) =  -566.675856527     A.U. after    8 cycles
 SCF Done:  E(RB3LYP) =  -566.675856541     A.U. after    7 cycles
 Optimization completed.
    -- Stationary point found.

 1\1\GINC-NODE101\FOpt\RB3LYP\6-31G(d)\C6H16N6\VSC10255\09-Dec-2020\0\\
 # opt freq B3LYP/6-31G(d) empiricaldispersion=gd3bj scf=xqc\\CID_15059
 8321_JID_2797_neutraal\\0,1\C,0.8939369169,-0.3377154036,0.338794593\C
 ,0.635611999,-0.1945350784,1.8415330034\C,0.9410781853,1.2046470472,2.
 3946564518\C,0.120412627,2.3235638023,1.7547152254\N,-1.3286518605,2.1
 123257642,1.9101709919\N,-1.8430286892,2.5792428652,3.1123220025\C,-2.
 4910826889,1.6196523277,3.9962147331\C,-1.5715006367,0.7588955915,4.86
 67454028\N,-0.7443549463,1.6140775014,5.7267896241\N,-1.9213775106,2.8

 Normal termination of Gaussian 16 at Wed Dec  9 18:19:21 2020.

 --------------------------------------------------------------------
 #N Geom=AllCheck Guess=TCheck SCRF=Check GenChk RB3LYP/6-31G(d) Freq
 --------------------------------------------------------------------

 Structure from the checkpoint file:  "JID_2797.chk"
 -------------------------------
 CID_150598321_JID_2797_neutraal
 -------------------------------
 Charge =  0 Multiplicity = 1

 SCF Done:  E(RB3LYP) =  -566.675856541     A.U. after    1 cycles

  Exact polarizability: 127.038  -2.584 107.286 -13.568  -1.448  90.389
 Approx polarizability: 193.655   3.692 142.788 -39.278  -6.627 144.849

                      1                      2                      3
                      A                      A                      A
 Frequencies --     27.1983                46.0089                58.2831
 Red. masses --      4.9070                 3.3381                 4.3388
 Frc consts  --      0.0021                 0.0042                 0.0087
 IR Inten    --      0.1636                 1.6484                 0.2344

                      4                      5                      6
                      A                      A                      A
 Frequencies --     68.5961                85.8071               119.5030
 Red. masses --      3.1468                 4.4471                 3.2583
 Frc consts  --      0.0087                 0.0193                 0.0274
 IR Inten    --      1.2531                 0.6056                 0.8258

                      7                      8                      9
                      A                      A                      A
 Frequencies --    149.9401               184.1063               202.4717
 Red. masses --      2.8069                 2.3362                 3.0002
 Frc consts  --      0.0372                 0.0467                 0.0725
 IR Inten    --      1.4417                 3.7485                 3.3682

                     10                     11                     12
                      A                      A                      A
 Frequencies --    222.5717               256.4238               274.6298
 Red. masses --      1.1910                 2.6538                 1.5794
 Frc consts  --      0.0348                 0.1028                 0.0702
 IR Inten    --     65.9065                 4.0647                 2.1113

                     13                     14                     15
                      A                      A                      A
 Frequencies --    327.4742               371.1471               393.1121
 Red. masses --      2.4306                 2.5509                 2.1954
 Frc consts  --      0.1536                 0.2070                 0.1999
 IR Inten    --      1.4492                21.8877                 3.8862

                     16                     17                     18
                      A                      A                      A
 Frequencies --    411.8368               437.8572               480.9511
 Red. masses --      5.0787                 1.5447                 2.0784
 Frc consts  --      0.5075                 0.1745                 0.2833
 IR Inten    --      7.5887                22.5146                 2.2318

                     19                     20                     21
                      A                      A                      A
 Frequencies --    507.9905               542.8113               568.3953
 Red. masses --      2.5401                11.6715                 2.0220
 Frc consts  --      0.3862                 2.0262                 0.3849
 IR Inten    --      9.4753                10.2357                37.7719

                     22                     23                     24
                      A                      A                      A
 Frequencies --    693.7829               752.2767               759.6940
 Red. masses --      4.0487                 1.5096                 4.6560
 Frc consts  --      1.1482                 0.5034                 1.5832
 IR Inten    --     23.0223                28.1919                18.6541

                     25                     26                     27
                      A                      A                      A
 Frequencies --    809.9281               827.0065               877.5373
 Red. masses --      1.6198                 2.3029                 1.6895
 Frc consts  --      0.6260                 0.9280                 0.7665
 IR Inten    --      4.5527                 3.1275                99.6473

                     28                     29                     30
                      A                      A                      A
 Frequencies --    888.7792               898.8904               959.2249
 Red. masses --      1.5301                 1.8200                 1.8245
 Frc consts  --      0.7121                 0.8664                 0.9891
 IR Inten    --     29.1160                49.9347                13.5533

                     31                     32                     33
                      A                      A                      A
 Frequencies --    973.7103              1021.6809              1066.0369
 Red. masses --      2.0529                 1.5378                 1.8175
 Frc consts  --      1.1468                 0.9457                 1.2169
 IR Inten    --      7.6967                12.7407                 6.1739

                     34                     35                     36
                      A                      A                      A
 Frequencies --   1089.1762              1110.8058              1136.6547
 Red. masses --      2.0025                 2.5228                 2.0580
 Frc consts  --      1.3996                 1.8340                 1.5666
 IR Inten    --      6.8184                12.8307                17.3488

                     37                     38                     39
                      A                      A                      A
 Frequencies --   1145.1375              1169.0456              1186.0190
 Red. masses --      2.5127                 2.2475                 1.9272
 Frc consts  --      1.9413                 1.8097                 1.5972
 IR Inten    --     17.3244                10.0188                16.8496

                     40                     41                     42
                      A                      A                      A
 Frequencies --   1202.2597              1271.1575              1279.9642
 Red. masses --      2.2657                 1.2530                 1.6797
 Frc consts  --      1.9295                 1.1929                 1.6213
 IR Inten    --     31.7293                21.2320                17.7196

                     43                     44                     45
                      A                      A                      A
 Frequencies --   1305.6535              1317.5513              1342.1695
 Red. masses --      2.9654                 1.2487                 1.1491
 Frc consts  --      2.9785                 1.2771                 1.2196
 IR Inten    --     46.6653                 4.7324                 4.4661

                     46                     47                     48
                      A                      A                      A
 Frequencies --   1366.0933              1389.2868              1407.6487
 Red. masses --      1.1799                 1.3296                 1.4739
 Frc consts  --      1.2973                 1.5120                 1.7207
 IR Inten    --      7.4363                10.7751                 5.7846

                     49                     50                     51
                      A                      A                      A
 Frequencies --   1408.9944              1427.1428              1442.0638
 Red. masses --      1.2610                 1.3570                 1.4246
 Frc consts  --      1.4749                 1.6284                 1.7455
 IR Inten    --     11.4116                 6.9062                 7.7181

                     52                     53                     54
                      A                      A                      A
 Frequencies --   1444.2700              1483.8312              1507.7311
 Red. masses --      1.2740                 1.0903                 1.0952
 Frc consts  --      1.5658                 1.4143                 1.4669
 IR Inten    --      4.3302                 3.7052                 1.0114

                     55                     56                     57
                      A                      A                      A
 Frequencies --   1515.6016              1518.5694              1529.4812
 Red. masses --      1.0999                 1.1125                 1.0724
 Frc consts  --      1.4886                 1.5116                 1.4780
 IR Inten    --      5.6640                 4.3084                 1.5995

                     58                     59                     60
                      A                      A                      A
 Frequencies --   1535.6380              1538.2697              1547.0160
 Red. masses --      1.1366                 1.0892                 1.0776
 Frc consts  --      1.5792                 1.5185                 1.5195
 IR Inten    --     13.0417                 9.2737                 4.4564

                     61                     62                     63
                      A                      A                      A
 Frequencies --   1697.9038              2220.8625              2976.9230
 Red. masses --      1.0884                13.9686                 1.0741
 Frc consts  --      1.8487                40.5927                 5.6081
 IR Inten    --     30.6922               508.9707                55.4837

                     64                     65                     66
                      A                      A                      A
 Frequencies --   3003.3678              3041.5503              3045.5807
 Red. masses --      1.0689                 1.0645                 1.0411
 Frc consts  --      5.6806                 5.8022                 5.6896
 IR Inten    --     60.2249                25.3411                31.3782

                     67                     68                     69
                      A                      A                      A
 Frequencies --   3048.2957              3064.8113              3080.4936
 Red. masses --      1.0655                 1.0682                 1.0865
 Frc consts  --      5.8335                 5.9119                 6.0745
 IR Inten    --     28.4024                 7.1501                72.9152

                     70                     71                     72
                      A                      A                      A
 Frequencies --   3085.9346              3092.1392              3113.3361
 Red. masses --      1.0934                 1.0968                 1.1003
 Frc consts  --      6.1346                 6.1788                 6.2838
 IR Inten    --     17.9636                16.6634                45.3711

                     73                     74                     75
                      A                      A                      A
 Frequencies --   3122.0726              3125.2137              3145.3286
 Red. masses --      1.1023                 1.1041                 1.0887
 Frc consts  --      6.3302                 6.3533                 6.3460
 IR Inten    --     48.8939                19.0784                17.8556

                     76                     77                     78
                      A                      A                      A
 Frequencies --   3473.3593              3488.6862              3556.4915
 Red. masses --      1.0504                 1.0744                 1.0916
 Frc consts  --      7.4661                 7.7041                 8.1348
 IR Inten    --      1.9827                 1.9688                 0.3256

 - Thermochemistry -
 -------------------
 Temperature   298.150 Kelvin.  Pressure   1.00000 Atm.
 Atom     1 has atomic number  6 and mass  12.00000

 Molecular mass:   172.14364 amu.
 Principal axes and moments of inertia in atomic units:
                           1         2         3
     Eigenvalues --  2078.981092430.915603862.24333
           X            0.98147   0.19151   0.00705
           Y           -0.19151   0.98149  -0.00082
           Z           -0.00708  -0.00054   0.99997
 This molecule is an asymmetric top.
 Rotational symmetry number  1.
 Warning -- assumption of classical behavior for rotation
           may cause significant error
 Rotational temperatures (Kelvin)      0.04166     0.03563     0.02243
 Rotational constants (GHZ):           0.86809     0.74241     0.46728
 Zero-point vibrational energy     641588.7 (Joules/Mol)
                                  153.34337 (Kcal/Mol)
 Warning -- explicit consideration of  21 degrees of freedom as
           vibrations may cause significant error
 Vibrational temperatures:     39.13    66.20    83.86    98.69   123.46
          (Kelvin)            171.94   215.73   264.89   291.31   320.23
                              368.94   395.13   471.16   534.00   565.60
                              592.54   629.98   691.98   730.89   780.98
                              817.79   998.20  1082.36  1093.03  1165.31
                             1189.88  1262.58  1278.76  1293.30  1380.11
                             1400.95  1469.97  1533.79  1567.08  1598.20
                             1635.39  1647.60  1682.00  1706.42  1729.78
                             1828.91  1841.58  1878.54  1895.66  1931.08
                             1965.50  1998.87  2025.29  2027.23  2053.34
                             2074.81  2077.98  2134.90  2169.29  2180.61
                             2184.88  2200.58  2209.44  2213.23  2225.81
                             2442.90  3195.33  4283.13  4321.18  4376.11
                             4381.91  4385.82  4409.58  4432.14  4439.97
                             4448.90  4479.40  4491.97  4496.49  4525.43
                             4997.39  5019.44  5117.00

 Zero-point correction=                           0.244368 (Hartree/Particle)
 Thermal correction to Energy=                    0.258739
 Thermal correction to Enthalpy=                  0.259683
 Thermal correction to Gibbs Free Energy=         0.201844
 Sum of electronic and zero-point Energies=           -566.431488
 Sum of electronic and thermal Energies=              -566.417118
 Sum of electronic and thermal Enthalpies=            -566.416174
 Sum of electronic and thermal Free Energies=         -566.474013

                     E (Thermal)             CV                S
                      KCal/Mol        Cal/Mol-Kelvin    Cal/Mol-Kelvin
 Total                  162.361             51.213            121.733
 Electronic               0.000              0.000              0.000
 Translational            0.889              2.981             41.337
 Rotational               0.889              2.981             31.346
 Vibrational            160.584             45.251             49.050
 Vibration     1          0.593              1.984              6.024
 Vibration     2          0.595              1.979              4.982
 Vibration     3          0.596              1.974              4.514
 Vibration     4          0.598              1.969              4.193
 Vibration     5          0.601              1.959              3.753
 Vibration     6          0.609              1.933              3.108
 Vibration     7          0.618              1.903              2.673
 Vibration     8          0.631              1.861              2.286
 Vibration     9          0.639              1.836              2.111
 Vibration    10          0.648              1.807              1.938
 Vibration    11          0.666              1.752              1.686
 Vibration    12          0.677              1.720              1.567
 Vibration    13          0.711              1.621              1.273
 Vibration    14          0.743              1.531              1.075
 Vibration    15          0.760              1.485              0.988
 Vibration    16          0.776              1.445              0.920
 Vibration    17          0.798              1.388              0.833
 Vibration    18          0.837              1.292              0.708
 Vibration    19          0.863              1.232              0.638
 Vibration    20          0.898              1.155              0.559
 Vibration    21          0.924              1.100              0.507

 Optimization completed.
    -- Stationary point found.

 1\1\GINC-NODE101\Freq\RB3LYP\6-31G(d)\C6H16N6\VSC10255\09-Dec-2020\0\\
 #N Geom=AllCheck Guess=TCheck SCRF=Check GenChk RB3LYP/6-31G(d) Freq\\
 CID_150598321_JID_2797_neutraal\\0,1\C,0.8939369169,-0.3377154036,0.33
 8794593\C,0.635611999,-0.1945350784,1.8415330034\C,0.9410781853,1.2046
 470472,2.3946564518\C,0.120412627,2.3235638023,1.7547152254\N,-1.32865
 18605,2.1123257642,1.9101709919\N,-1.8430286892,2.5792428652,3.1123220
 025\C,-2.4910826889,1.6196523277,3.9962147331\C,-1.5715006367,0.758895
 5915,4.8667454028\N,-0.7443549463,1.6140775014,5.7267896241\N,-1.92137

 Normal termination of Gaussian 16 at Wed Dec  9 18:26:38 2020.

 ----------------------------------------------------------------------
 # B3LYP/6-311++G(d,p) empiricaldispersion=gd3bj scf=xqc pop=npa geom=c
 heck
 ----------------------------------------------------------------------

 ---------------------------------------
 CID_150598321_JID_2797_Energie_neutraal
 ---------------------------------------
 Structure from the checkpoint file:  "JID_2797.chk"
 Charge =  0 Multiplicity = 1

 SCF Done:  E(RB3LYP) =  -566.848328987     A.U. after   16 cycles
 Normal termination of Gaussian 16 at Wed Dec  9 18:30:13 2020.

 ----------------------------------------------------------------------
 # B3LYP/6-311++G(d,p) empiricaldispersion=gd3bj scf=xqc pop=npa geom=c
 heck
 ----------------------------------------------------------------------

 -------------------------------------
 CID_150598321_JID_2797_Energie_kation
 -------------------------------------
 Structure from the checkpoint file:  "JID_2797.chk"
 Charge =  1 Multiplicity = 2

 SCF Done:  E(UB3LYP) =  -566.546972475     A.U. after   26 cycles
 Normal termination of Gaussian 16 at Wed Dec  9 18:38:11 2020.
 Gaussian 16:  ES64L-G16RevA.03 25-Dec-2016

 ------------------------------------
 CID_150598321_JID_2797_Energie_anion
 ------------------------------------
 Structure from the checkpoint file:  "JID_2797.chk"
 Charge = -1 Multiplicity = 2

                         Standard orientation:
 ---------------------------------------------------------------------
 Center     Atomic      Atomic             Coordinates (Angstroms)
 Number     Number       Type             X           Y           Z
 ---------------------------------------------------------------------
      1          6           0       -2.340261   -2.498478   -0.778948
      2          6           0       -2.313994   -0.970309   -0.681651
      3          6           0       -1.934920   -0.441995    0.709087
      4          6           0       -0.553097   -0.882132    1.190582
      5          7           0        0.518173   -0.463951    0.270756
      6          7           0        0.980053    0.827039    0.489330
      7          6           0        0.863983    1.787216   -0.600001
      8          6           0       -0.505989    2.443031   -0.793495
      9          7           0       -0.900353    3.158173    0.426436
     10          7           0        1.625044   -1.458080    0.548835
     11          7           0        2.627012   -1.165682   -0.110320
     12          7           0        3.599521   -0.934483   -0.667239
     13          1           0       -1.340900   -2.926818   -0.648125
     14          1           0       -2.707704   -2.820534   -1.759267
     15          1           0       -2.997287   -2.935465   -0.016331
     16          1           0       -1.605297   -0.575379   -1.417950
     17          1           0       -3.301392   -0.569889   -0.945499
     18          1           0       -2.007184    0.651671    0.717011
     19          1           0       -2.662355   -0.799120    1.451212
     20          1           0       -0.354390   -0.504280    2.208715
     21          1           0       -0.506107   -1.970731    1.242798
     22          1           0        0.820496    1.186327    1.428353
     23          1           0        1.599144    2.575025   -0.399974
     24          1           0        1.162334    1.269878   -1.516482
     25          1           0       -0.415886    3.181027   -1.599791
     26          1           0       -1.233727    1.687024   -1.129522
     27          1           0       -1.744920    3.700094    0.255079
     28          1           0       -1.145301    2.486057    1.151741
 ---------------------------------------------------------------------

 SCF Done:  E(UB3LYP) =  -566.843955356     A.U. after   30 cycles

 The electronic state is 2-A.
 Alpha  occ. eigenvalues --  -14.31167 -14.25113 -14.22803 -14.22386 -14.21740
 Alpha  occ. eigenvalues --  -14.19370 -10.09046 -10.08880 -10.08279 -10.05889
 Alpha  occ. eigenvalues --  -10.05827 -10.05519  -0.99152  -0.89438  -0.81267
 Alpha  occ. eigenvalues --   -0.78169  -0.71556  -0.67439  -0.61553  -0.58912
 Alpha  occ. eigenvalues --   -0.53179  -0.50132  -0.46802  -0.44227  -0.40357
 Alpha  occ. eigenvalues --   -0.38466  -0.38008  -0.36718  -0.35909  -0.35362
 Alpha  occ. eigenvalues --   -0.34399  -0.33303  -0.31005  -0.29515  -0.28853
 Alpha  occ. eigenvalues --   -0.27923  -0.27353  -0.26885  -0.26254  -0.23473
 Alpha  occ. eigenvalues --   -0.22668  -0.22109  -0.20890  -0.17616  -0.14950
 Alpha  occ. eigenvalues --   -0.11765  -0.09370   0.04500
 Alpha virt. eigenvalues --    0.06208   0.07458   0.07970   0.09228   0.09760
 Alpha virt. eigenvalues --    0.10153   0.11041   0.11463   0.12077   0.13178
 Alpha virt. eigenvalues --    0.13362   0.13947   0.14274   0.14740   0.15299

  Beta  occ. eigenvalues --  -14.30874 -14.24931 -14.22851 -14.21916 -14.21724
  Beta  occ. eigenvalues --  -14.19334 -10.09046 -10.08871 -10.08254 -10.05864
  Beta  occ. eigenvalues --  -10.05813 -10.05502  -0.98553  -0.89180  -0.81004
  Beta  occ. eigenvalues --   -0.78080  -0.71441  -0.67338  -0.61499  -0.58771
  Beta  occ. eigenvalues --   -0.53079  -0.50032  -0.46716  -0.43913  -0.40256
  Beta  occ. eigenvalues --   -0.38312  -0.37881  -0.36553  -0.35203  -0.35062
  Beta  occ. eigenvalues --   -0.34343  -0.32861  -0.30055  -0.29468  -0.28780
  Beta  occ. eigenvalues --   -0.27861  -0.27311  -0.26796  -0.26192  -0.23368
  Beta  occ. eigenvalues --   -0.22631  -0.22053  -0.20122  -0.17422  -0.14898
  Beta  occ. eigenvalues --   -0.11630  -0.09176
  Beta virt. eigenvalues --    0.07008   0.07829   0.08293   0.09479   0.09994
  Beta virt. eigenvalues --    0.10194   0.10465   0.11087   0.11770   0.12214
  Beta virt. eigenvalues --    0.13252   0.13659   0.14103   0.14471   0.14854

 Mulliken charges and spin densities:
               1          2
     1  C    0.503801  -1.122286
     2  C   -0.296525   0.183361
     3  C    0.075024  -0.161161
     4  C    0.057325  -0.658115
     5  N    0.378483   0.073092
     6  N   -0.324680  -0.117358
     7  C   -0.247856  -0.085408
     8  C    0.180753  -0.551204
     9  N   -0.257847  -0.091155
    10  N   -0.884304   0.071174
    11  N    0.624955   0.015933
    12  N   -0.173674   0.285709
    13  H    0.066354   0.085014
    14  H   -0.006364   0.135024
    15  H   -0.039555   0.167666
    16  H    0.187817  -0.071428
    17  H   -0.349409   0.505909
    18  H   -0.073108   0.158804
    19  H   -0.676183   0.863136
    20  H   -0.158092   0.284302
    21  H    0.119949   0.069217
    22  H    0.119685   0.098818
    23  H    0.125968   0.028305
    24  H    0.177646  -0.021008
    25  H    0.119497   0.040037
    26  H   -0.146763   0.262523
    27  H   -0.211510   0.457000
    28  H    0.108613   0.094096
 Sum of Mulliken charges =  -1.00000   1.00000

 Dipole moment (field-independent basis, Debye):
    X=              0.8691    Y=              0.1700    Z=             -1.8026  Tot=              2.0084
 Quadrupole moment (field-independent basis, Debye-Ang):
   XX=           -139.0277   YY=           -115.6336   ZZ=            -96.4147
   XY=              7.4866   XZ=              6.3913   YZ=             -3.2824

 Summary of Natural Population Analysis:

                                       Natural Population
                Natural  -----------------------------------------------
    Atom  No    Charge         Core      Valence    Rydberg      Total
 -----------------------------------------------------------------------
      C    1   -0.28821      0.99966     2.28317    0.00538     3.28821
      C    2   -0.19306      0.99964     2.18416    0.00927     3.19306
      C    3   -0.19713      0.99961     2.18679    0.01073     3.19713
      C    4   -0.08848      0.99960     2.07545    0.01344     3.08848
      N    5   -0.09449      0.99970     2.57923    0.01556     3.59449
      N    6   -0.25118      0.99972     2.73741    0.01404     3.75118
      C    7   -0.08991      0.99962     2.07781    0.01248     3.08991
      C    8   -0.10202      0.99963     2.09130    0.01109     3.10202
      N    9   -0.42695      0.99977     2.91607    0.01111     3.92695
      N   10   -0.14963      0.99973     2.63617    0.01372     3.64963
      N   11    0.12960      0.99972     2.35392    0.01676     3.37040
      N   12    0.00228      0.99982     2.48521    0.01270     3.49772
      H   13    0.09999      0.00000     0.39907    0.00094     0.40001
      H   14    0.09577      0.00000     0.40354    0.00069     0.40423
      H   15    0.09461      0.00000     0.40447    0.00091     0.40539
      H   16    0.09836      0.00000     0.39997    0.00167     0.40164
      H   17    0.09455      0.00000     0.40427    0.00119     0.40545
      H   18    0.09454      0.00000     0.40303    0.00243     0.40546
      H   19    0.09963      0.00000     0.39793    0.00243     0.40037
      H   20    0.08346      0.00000     0.41456    0.00199     0.41654
      H   21    0.10484      0.00000     0.39324    0.00192     0.39516
      H   22    0.16932      0.00000     0.32770    0.00298     0.33068
      H   23    0.09334      0.00000     0.40564    0.00102     0.40666
      H   24    0.09971      0.00000     0.39923    0.00107     0.40029
      H   25    0.08789      0.00000     0.41104    0.00106     0.41211
      H   26    0.08266      0.00000     0.41536    0.00198     0.41734
      H   27    0.17740      0.00000     0.32024    0.00236     0.32260
      H   28    0.17313      0.00000     0.32441    0.00246     0.32687
 =======================================================================
   * Total *   -0.00000     11.99623    34.83040    0.17338    47.00000

 Normal termination of Gaussian 16 at Wed Dec  9 18:47:06 2020.
