 Gaussian 16, Revision A.03,

 -----------------------------------------------------------
 # opt freq B3LYP/6-31G(d) empiricaldispersion=gd3bj scf=xqc
 -----------------------------------------------------------

 -------------------------------
 CID_150458424_JID_1145_neutraal
 -------------------------------
 Symbolic Z-matrix:
 Charge =  0 Multiplicity = 1

 SCF Done:  E(RB3LYP) =  -576.094520617     A.U. after   14 cycles
 SCF Done:  E(RB3LYP) =  -576.098832091     A.U. after   12 cycles
 SCF Done:  E(RB3LYP) =  -576.098498084     A.U. after   12 cycles
 SCF Done:  E(RB3LYP) =  -576.099536314     A.U. after   12 cycles
 SCF Done:  E(RB3LYP) =  -576.099740034     A.U. after   10 cycles
 SCF Done:  E(RB3LYP) =  -576.099810057     A.U. after   10 cycles
 SCF Done:  E(RB3LYP) =  -576.099830789     A.U. after   10 cycles
 SCF Done:  E(RB3LYP) =  -576.099847492     A.U. after   10 cycles
 SCF Done:  E(RB3LYP) =  -576.099875538     A.U. after   10 cycles
 SCF Done:  E(RB3LYP) =  -576.099885040     A.U. after   10 cycles
 SCF Done:  E(RB3LYP) =  -576.099895211     A.U. after   10 cycles
 SCF Done:  E(RB3LYP) =  -576.099901126     A.U. after    9 cycles
 SCF Done:  E(RB3LYP) =  -576.099901440     A.U. after    8 cycles
 SCF Done:  E(RB3LYP) =  -576.099901481     A.U. after    7 cycles
 Optimization completed.
    -- Stationary point found.

 1\1\GINC-NODE110\FOpt\RB3LYP\6-31G(d)\C7H14O4\VSC10255\08-Dec-2020\0\\
 # opt freq B3LYP/6-31G(d) empiricaldispersion=gd3bj scf=xqc\\CID_15045
 8424_JID_1145_neutraal\\0,1\C,0.750479104,0.1125930544,-0.1563744726\C
 ,0.9901335379,1.5616568902,0.2968148006\C,1.2178055578,2.4875609872,-0
 .8778678437\O,0.4732941497,3.3765430136,-1.2269661982\O,2.375694933,2.
 1695819083,-1.5140594166\C,2.7039678641,2.9167260738,-2.7000341982\C,2
 .4323198779,2.077258362,-3.9549516213\C,0.9733041766,1.6527096871,-4.1
 023140767\O,2.9711218253,2.7890269567,-5.0811415383\C,2.2066776797,3.8

 Normal termination of Gaussian 16 at Tue Dec  8 19:15:37 2020.

 --------------------------------------------------------------------
 #N Geom=AllCheck Guess=TCheck SCRF=Check GenChk RB3LYP/6-31G(d) Freq
 --------------------------------------------------------------------

 Structure from the checkpoint file:  "JID_1145.chk"
 -------------------------------
 CID_150458424_JID_1145_neutraal
 -------------------------------
 Charge =  0 Multiplicity = 1

 SCF Done:  E(RB3LYP) =  -576.099901481     A.U. after    1 cycles

  Exact polarizability: 104.665  -3.493  76.195   0.855   0.910  76.625
 Approx polarizability: 121.734  -3.278 103.683  -0.581   5.428 125.251

                      1                      2                      3
                      A                      A                      A
 Frequencies --     28.6364                44.0557                57.4799
 Red. masses --      2.8626                 3.8493                 4.6314
 Frc consts  --      0.0014                 0.0044                 0.0090
 IR Inten    --      0.0925                 0.2032                 1.3578

                      4                      5                      6
                      A                      A                      A
 Frequencies --     67.4683                77.5933               142.4229
 Red. masses --      3.7877                 3.8253                 3.4587
 Frc consts  --      0.0102                 0.0136                 0.0413
 IR Inten    --      0.3166                 1.3226                 2.1083

                      7                      8                      9
                      A                      A                      A
 Frequencies --    213.7146               224.0979               252.7509
 Red. masses --      2.0611                 1.6268                 1.4176
 Frc consts  --      0.0555                 0.0481                 0.0534
 IR Inten    --      0.4135                 0.4696                 2.5120

                     10                     11                     12
                      A                      A                      A
 Frequencies --    283.5121               289.6755               306.4306
 Red. masses --      2.2601                 1.9712                 2.5350
 Frc consts  --      0.1070                 0.0975                 0.1402
 IR Inten    --      1.7312                 5.0191                28.2683

                     13                     14                     15
                      A                      A                      A
 Frequencies --    350.4198               387.2581               403.1877
 Red. masses --      2.4342                 1.5672                 2.3390
 Frc consts  --      0.1761                 0.1385                 0.2240
 IR Inten    --     22.3027                85.2692                24.7764

                     16                     17                     18
                      A                      A                      A
 Frequencies --    473.9425               538.2615               605.8380
 Red. masses --      2.5300                 4.5696                 3.5402
 Frc consts  --      0.3348                 0.7800                 0.7656
 IR Inten    --     19.6072                10.1112                45.7439

                     19                     20                     21
                      A                      A                      A
 Frequencies --    637.0492               732.2825               809.6737
 Red. masses --      3.9646                 3.4601                 1.4214
 Frc consts  --      0.9480                 1.0932                 0.5490
 IR Inten    --      2.4696                 5.5337                 0.7396

                     22                     23                     24
                      A                      A                      A
 Frequencies --    824.1117               851.1874               920.2443
 Red. masses --      2.6582                 2.7041                 2.5018
 Frc consts  --      1.0637                 1.1543                 1.2483
 IR Inten    --      5.0335                 7.4087                 8.5125

                     25                     26                     27
                      A                      A                      A
 Frequencies --    949.4312               976.4445              1019.7237
 Red. masses --      1.4144                 2.1216                 1.9798
 Frc consts  --      0.7512                 1.1918                 1.2129
 IR Inten    --      5.4813                 6.8044                51.1940

                     28                     29                     30
                      A                      A                      A
 Frequencies --   1046.3382              1066.5700              1096.4699
 Red. masses --      3.5990                 4.0505                 1.8988
 Frc consts  --      2.3216                 2.7148                 1.3450
 IR Inten    --     37.6403               253.9172                 8.7567

                     31                     32                     33
                      A                      A                      A
 Frequencies --   1098.5943              1116.1014              1148.2040
 Red. masses --      2.2435                 1.9175                 3.4625
 Frc consts  --      1.5954                 1.4073                 2.6895
 IR Inten    --     73.3647                80.2670               126.4067

                     34                     35                     36
                      A                      A                      A
 Frequencies --   1178.8767              1198.0989              1249.1849
 Red. masses --      2.3422                 2.0755                 2.2422
 Frc consts  --      1.9178                 1.7553                 2.0615
 IR Inten    --    107.5605                 5.0711               153.7990

                     37                     38                     39
                      A                      A                      A
 Frequencies --   1303.7850              1307.6376              1321.0953
 Red. masses --      1.1867                 1.2597                 1.4250
 Frc consts  --      1.1885                 1.2691                 1.4653
 IR Inten    --     14.9712                 3.9195                97.1745

                     40                     41                     42
                      A                      A                      A
 Frequencies --   1364.3501              1373.8801              1404.5439
 Red. masses --      1.4662                 1.3057                 1.2153
 Frc consts  --      1.6080                 1.4521                 1.4125
 IR Inten    --      8.1358                11.3760                 7.2568

                     43                     44                     45
                      A                      A                      A
 Frequencies --   1408.9971              1427.4238              1437.8541
 Red. masses --      1.2647                 1.3167                 1.2537
 Frc consts  --      1.4793                 1.5807                 1.5271
 IR Inten    --      8.4540                 6.9349                 5.9452

                     46                     47                     48
                      A                      A                      A
 Frequencies --   1448.5933              1467.2196              1506.1637
 Red. masses --      1.2899                 1.1637                 1.0797
 Frc consts  --      1.5948                 1.4760                 1.4432
 IR Inten    --     23.8745                42.4757                 3.8944

                     49                     50                     51
                      A                      A                      A
 Frequencies --   1510.1485              1523.6485              1525.6671
 Red. masses --      1.0642                 1.0886                 1.0531
 Frc consts  --      1.4299                 1.4890                 1.4443
 IR Inten    --      2.2649                 8.9576                 5.0310

                     52                     53                     54
                      A                      A                      A
 Frequencies --   1529.4166              1538.8431              1548.1603
 Red. masses --      1.0431                 1.0623                 1.0902
 Frc consts  --      1.4375                 1.4822                 1.5396
 IR Inten    --      7.5488                17.6253                 1.8152

                     55                     56                     57
                      A                      A                      A
 Frequencies --   1830.3233              3041.8060              3060.6922
 Red. masses --     10.9122                 1.0604                 1.0364
 Frc consts  --     21.5386                 5.7806                 5.7201
 IR Inten    --    194.0593                73.5338                16.8966

                     58                     59                     60
                      A                      A                      A
 Frequencies --   3070.8882              3071.9072              3075.4986
 Red. masses --      1.0636                 1.0824                 1.0401
 Frc consts  --      5.9095                 6.0183                 5.7964
 IR Inten    --     13.7145                23.2485                 8.9733

                     61                     62                     63
                      A                      A                      A
 Frequencies --   3098.6979              3107.5352              3124.8478
 Red. masses --      1.0672                 1.0950                 1.0997
 Frc consts  --      6.0377                 6.2300                 6.3266
 IR Inten    --     54.1579                17.9217                17.4184

                     64                     65                     66
                      A                      A                      A
 Frequencies --   3132.9628              3144.3939              3149.8311
 Red. masses --      1.1036                 1.1008                 1.1024
 Frc consts  --      6.3820                 6.4126                 6.4440
 IR Inten    --     17.3109                24.0385                28.6164

                     67                     68                     69
                      A                      A                      A
 Frequencies --   3159.2977              3162.3644              3732.1285
 Red. masses --      1.1074                 1.1060                 1.0655
 Frc consts  --      6.5126                 6.5170                 8.7442
 IR Inten    --     12.8279                21.5458                21.3488

 - Thermochemistry -
 -------------------
 Temperature   298.150 Kelvin.  Pressure   1.00000 Atm.
 Atom     1 has atomic number  6 and mass  12.00000

 Molecular mass:   162.08921 amu.
 Principal axes and moments of inertia in atomic units:
                           1         2         3
     Eigenvalues --   770.619683678.797323722.21576
           X            0.99986  -0.01624  -0.00259
           Y            0.01579   0.99224  -0.12331
           Z            0.00458   0.12326   0.99236
 This molecule is an asymmetric top.
 Rotational symmetry number  1.
 Warning -- assumption of classical behavior for rotation
           may cause significant error
 Rotational temperatures (Kelvin)      0.11240     0.02354     0.02327
 Rotational constants (GHZ):           2.34193     0.49058     0.48486
 Zero-point vibrational energy     565689.7 (Joules/Mol)
                                  135.20309 (Kcal/Mol)
 Warning -- explicit consideration of  18 degrees of freedom as
           vibrations may cause significant error
 Vibrational temperatures:     41.20    63.39    82.70    97.07   111.64
          (Kelvin)            204.91   307.49   322.43   363.65   407.91
                              416.78   440.89   504.18   557.18   580.10
                              681.90   774.44   871.67   916.57  1053.59
                             1164.94  1185.71  1224.67  1324.03  1366.02
                             1404.89  1467.15  1505.45  1534.56  1577.58
                             1580.63  1605.82  1652.01  1696.14  1723.80
                             1797.30  1875.86  1881.40  1900.76  1963.00
                             1976.71  2020.83  2027.23  2053.74  2068.75
                             2084.20  2111.00  2167.03  2172.77  2192.19
                             2195.09  2200.49  2214.05  2227.46  2633.43
                             4376.48  4403.65  4418.32  4419.79  4424.96
                             4458.34  4471.05  4495.96  4507.63  4524.08
                             4531.90  4545.52  4549.94  5369.70

 Zero-point correction=                           0.215460 (Hartree/Particle)
 Thermal correction to Energy=                    0.228439
 Thermal correction to Enthalpy=                  0.229383
 Thermal correction to Gibbs Free Energy=         0.174411
 Sum of electronic and zero-point Energies=           -575.884442
 Sum of electronic and thermal Energies=              -575.871463
 Sum of electronic and thermal Enthalpies=            -575.870519
 Sum of electronic and thermal Free Energies=         -575.925490

                     E (Thermal)             CV                S
                      KCal/Mol        Cal/Mol-Kelvin    Cal/Mol-Kelvin
 Total                  143.347             45.470            115.698
 Electronic               0.000              0.000              0.000
 Translational            0.889              2.981             41.158
 Rotational               0.889              2.981             30.735
 Vibrational            141.570             39.508             43.805
 Vibration     1          0.593              1.984              5.922
 Vibration     2          0.595              1.980              5.068
 Vibration     3          0.596              1.975              4.542
 Vibration     4          0.598              1.970              4.226
 Vibration     5          0.599              1.964              3.951
 Vibration     6          0.616              1.911              2.771
 Vibration     7          0.644              1.820              2.012
 Vibration     8          0.649              1.804              1.926
 Vibration     9          0.664              1.758              1.711
 Vibration    10          0.682              1.704              1.512
 Vibration    11          0.686              1.693              1.476
 Vibration    12          0.697              1.661              1.382
 Vibration    13          0.727              1.574              1.164
 Vibration    14          0.756              1.497              1.011
 Vibration    15          0.769              1.463              0.951
 Vibration    16          0.831              1.308              0.727
 Vibration    17          0.893              1.165              0.569
 Vibration    18          0.964              1.019              0.440

                           ! Non-Optimized Parameters !

 1\1\GINC-NODE110\Freq\RB3LYP\6-31G(d)\C7H14O4\VSC10255\08-Dec-2020\0\\
 #N Geom=AllCheck Guess=TCheck SCRF=Check GenChk RB3LYP/6-31G(d) Freq\\
 CID_150458424_JID_1145_neutraal\\0,1\C,0.750479104,0.1125930544,-0.156
 3744726\C,0.9901335379,1.5616568902,0.2968148006\C,1.2178055578,2.4875
 609872,-0.8778678437\O,0.4732941497,3.3765430136,-1.2269661982\O,2.375
 694933,2.1695819083,-1.5140594166\C,2.7039678641,2.9167260738,-2.70003
 41982\C,2.4323198779,2.077258362,-3.9549516213\C,0.9733041766,1.652709
 6871,-4.1023140767\O,2.9711218253,2.7890269567,-5.0811415383\C,2.20667

 Normal termination of Gaussian 16 at Tue Dec  8 19:20:37 2020.

 ----------------------------------------------------------------------
 # B3LYP/6-311++G(d,p) empiricaldispersion=gd3bj scf=xqc pop=npa geom=c
 heck
 ----------------------------------------------------------------------

 ---------------------------------------
 CID_150458424_JID_1145_Energie_neutraal
 ---------------------------------------
 Structure from the checkpoint file:  "JID_1145.chk"
 Charge =  0 Multiplicity = 1

 SCF Done:  E(RB3LYP) =  -576.284046473     A.U. after   14 cycles
 Normal termination of Gaussian 16 at Tue Dec  8 19:22:51 2020.

 ----------------------------------------------------------------------
 # B3LYP/6-311++G(d,p) empiricaldispersion=gd3bj scf=xqc pop=npa geom=c
 heck
 ----------------------------------------------------------------------

 -------------------------------------
 CID_150458424_JID_1145_Energie_kation
 -------------------------------------
 Structure from the checkpoint file:  "JID_1145.chk"
 Charge =  1 Multiplicity = 2

 SCF Done:  E(UB3LYP) =  -575.931800150     A.U. after   30 cycles
 Normal termination of Gaussian 16 at Tue Dec  8 19:29:37 2020.
 Gaussian 16:  ES64L-G16RevA.03 25-Dec-2016

 ------------------------------------
 CID_150458424_JID_1145_Energie_anion
 ------------------------------------
 Structure from the checkpoint file:  "JID_1145.chk"
 Charge = -1 Multiplicity = 2

                         Standard orientation:
 ---------------------------------------------------------------------
 Center     Atomic      Atomic             Coordinates (Angstroms)
 Number     Number       Type             X           Y           Z
 ---------------------------------------------------------------------
      1          6           0        3.428994   -1.318787   -0.207266
      2          6           0        3.368539    0.173581    0.155755
      3          6           0        1.946172    0.642865    0.369432
      4          8           0        1.476311    1.004609    1.425286
      5          8           0        1.247385    0.581658   -0.794401
      6          6           0       -0.148290    0.931272   -0.745557
      7          6           0       -1.019337   -0.330269   -0.801296
      8          6           0       -0.774856   -1.293544    0.357589
      9          8           0       -2.384666    0.088862   -0.960766
     10          6           0       -3.073368    0.523049    0.188415
     11          8           0       -3.634511   -0.530902    0.931713
     12          1           0        2.982333   -1.931670    0.583278
     13          1           0        4.467933   -1.638284   -0.335234
     14          1           0        2.890532   -1.513354   -1.138971
     15          1           0        3.918122    0.375607    1.078122
     16          1           0        3.814353    0.767188   -0.650780
     17          1           0       -0.339441    1.507796    0.161629
     18          1           0       -0.342408    1.547598   -1.625901
     19          1           0       -0.797894   -0.848845   -1.740478
     20          1           0       -0.908463   -0.812492    1.329513
     21          1           0       -1.460579   -2.141643    0.295056
     22          1           0        0.251300   -1.670384    0.303567
     23          1           0       -2.425796    1.059396    0.889464
     24          1           0       -3.846616    1.203852   -0.190788
     25          1           0       -4.206644   -1.027578    0.324431
 ---------------------------------------------------------------------

 SCF Done:  E(UB3LYP) =  -576.269242467     A.U. after   32 cycles

 The electronic state is 2-A.
 Alpha  occ. eigenvalues --  -19.07036 -19.03716 -19.02956 -19.01443 -10.20167
 Alpha  occ. eigenvalues --  -10.16935 -10.13276 -10.12922 -10.08314 -10.06590
 Alpha  occ. eigenvalues --  -10.06036  -1.00946  -0.97172  -0.92545  -0.90992
 Alpha  occ. eigenvalues --   -0.70296  -0.67659  -0.61300  -0.58874  -0.55009
 Alpha  occ. eigenvalues --   -0.50432  -0.47102  -0.43862  -0.40467  -0.39944
 Alpha  occ. eigenvalues --   -0.39114  -0.37737  -0.36655  -0.34645  -0.33539
 Alpha  occ. eigenvalues --   -0.32970  -0.31946  -0.28831  -0.28634  -0.28128
 Alpha  occ. eigenvalues --   -0.27420  -0.26431  -0.25795  -0.25400  -0.22505
 Alpha  occ. eigenvalues --   -0.20930  -0.19888  -0.18242  -0.17927   0.04556
 Alpha virt. eigenvalues --    0.06027   0.07791   0.08406   0.08764   0.09329
 Alpha virt. eigenvalues --    0.09861   0.10563   0.10854   0.11510   0.11977
 Alpha virt. eigenvalues --    0.12988   0.13769   0.14748   0.15231   0.15481

  Beta  occ. eigenvalues --  -19.07020 -19.03708 -19.02914 -19.01406 -10.20129
  Beta  occ. eigenvalues --  -10.16915 -10.13267 -10.12914 -10.08296 -10.06532
  Beta  occ. eigenvalues --  -10.06017  -1.00898  -0.97130  -0.92490  -0.90928
  Beta  occ. eigenvalues --   -0.70247  -0.67612  -0.61258  -0.58805  -0.54905
  Beta  occ. eigenvalues --   -0.50378  -0.47057  -0.43799  -0.40420  -0.39860
  Beta  occ. eigenvalues --   -0.39062  -0.37681  -0.36577  -0.34604  -0.33504
  Beta  occ. eigenvalues --   -0.32908  -0.31884  -0.28777  -0.28599  -0.28084
  Beta  occ. eigenvalues --   -0.27373  -0.26358  -0.25737  -0.25362  -0.22418
  Beta  occ. eigenvalues --   -0.20886  -0.19842  -0.18201  -0.17885
  Beta virt. eigenvalues --    0.06982   0.07497   0.08327   0.08925   0.09448
  Beta virt. eigenvalues --    0.09551   0.10331   0.10946   0.11241   0.11938
  Beta virt. eigenvalues --    0.12403   0.13054   0.13897   0.14750   0.15431

 Mulliken charges and spin densities:
               1          2
     1  C    1.116209  -1.587312
     2  C   -0.731458   0.384785
     3  C    0.431959  -0.396499
     4  O   -0.271200   0.029662
     5  O   -0.026301   0.053468
     6  C    0.276722  -0.346891
     7  C   -0.908435   0.458542
     8  C    0.371377  -0.782286
     9  O   -0.146032   0.033028
    10  C    0.687660  -0.897397
    11  O   -0.251740   0.019493
    12  H   -0.128790   0.271620
    13  H   -0.960230   1.133329
    14  H   -0.017811   0.179010
    15  H    0.057713   0.094835
    16  H   -0.303906   0.484133
    17  H    0.166099   0.027453
    18  H    0.090527   0.108703
    19  H   -0.303634   0.520304
    20  H    0.079087   0.123400
    21  H   -0.178725   0.325723
    22  H    0.462646  -0.319771
    23  H    0.097431   0.070029
    24  H   -0.395523   0.537749
    25  H   -0.213645   0.474891
 Sum of Mulliken charges =  -1.00000   1.00000

 Dipole moment (field-independent basis, Debye):
    X=             -1.4909    Y=              3.2168    Z=              0.6082  Tot=              3.5973
 Quadrupole moment (field-independent basis, Debye-Ang):
   XX=           -167.7456   YY=            -96.3258   ZZ=            -98.8132
   XY=              4.5218   XZ=              5.8736   YZ=             -1.7044

 Summary of Natural Population Analysis:

                                       Natural Population
                Natural  -----------------------------------------------
    Atom  No    Charge         Core      Valence    Rydberg      Total
 -----------------------------------------------------------------------
      C    1   -0.28199      0.99966     2.27705    0.00528     3.28199
      C    2   -0.23462      0.99959     2.22608    0.00894     3.23462
      C    3    0.41601      0.99968     1.55891    0.02540     2.58399
      O    4   -0.30653      0.99987     3.30117    0.00549     4.30653
      O    5   -0.28637      0.99986     3.27681    0.00970     4.28637
      C    6   -0.02742      0.99952     2.01587    0.01202     3.02742
      C    7    0.05801      0.99955     1.92828    0.01416     2.94199
      C    8   -0.30438      0.99964     2.29823    0.00651     3.30438
      O    9   -0.30566      0.99988     3.29515    0.01062     4.30566
      C   10    0.13989      0.99964     1.84185    0.01862     2.86011
      O   11   -0.36852      0.99990     3.36133    0.00730     4.36852
      H   12    0.09709      0.00000     0.40166    0.00125     0.40291
      H   13    0.10552      0.00000     0.39057    0.00391     0.39448
      H   14    0.10316      0.00000     0.39513    0.00171     0.39684
      H   15    0.10614      0.00000     0.39289    0.00097     0.39386
      H   16    0.11103      0.00000     0.38698    0.00198     0.38897
      H   17    0.09692      0.00000     0.40146    0.00162     0.40308
      H   18    0.09404      0.00000     0.40478    0.00118     0.40596
      H   19    0.09209      0.00000     0.40599    0.00192     0.40791
      H   20    0.10486      0.00000     0.39409    0.00104     0.39514
      H   21    0.10832      0.00000     0.39067    0.00101     0.39168
      H   22    0.10462      0.00000     0.39434    0.00104     0.39538
      H   23    0.07164      0.00000     0.42668    0.00168     0.42836
      H   24    0.07336      0.00000     0.42486    0.00178     0.42664
      H   25    0.23277      0.00000     0.25624    0.01099     0.26723
 =======================================================================
   * Total *   -0.00000     10.99680    32.84708    0.15612    44.00000

 Normal termination of Gaussian 16 at Tue Dec  8 19:36:51 2020.
