 Gaussian 16, Revision A.03,

 -----------------------------------------------------------
 # opt freq B3LYP/6-31G(d) empiricaldispersion=gd3bj scf=xqc
 -----------------------------------------------------------

 -------------------------------
 CID_115077835_JID_6255_neutraal
 -------------------------------
 Symbolic Z-matrix:
 Charge =  0 Multiplicity = 1

 SCF Done:  E(RB3LYP) =  -1158.71828316     A.U. after   15 cycles
 SCF Done:  E(RB3LYP) =  -1158.72800476     A.U. after   13 cycles
 SCF Done:  E(RB3LYP) =  -1158.72926426     A.U. after   13 cycles
 SCF Done:  E(RB3LYP) =  -1158.72932793     A.U. after   12 cycles
 SCF Done:  E(RB3LYP) =  -1158.72978432     A.U. after   13 cycles
 SCF Done:  E(RB3LYP) =  -1158.72997598     A.U. after   12 cycles
 SCF Done:  E(RB3LYP) =  -1158.73014476     A.U. after   13 cycles
 SCF Done:  E(RB3LYP) =  -1158.73024504     A.U. after   12 cycles
 SCF Done:  E(RB3LYP) =  -1158.73035069     A.U. after   13 cycles
 SCF Done:  E(RB3LYP) =  -1158.73042511     A.U. after   12 cycles
 SCF Done:  E(RB3LYP) =  -1158.73155652     A.U. after   11 cycles
 SCF Done:  E(RB3LYP) =  -1158.73155788     A.U. after   11 cycles
 SCF Done:  E(RB3LYP) =  -1158.73156014     A.U. after   10 cycles
 SCF Done:  E(RB3LYP) =  -1158.73156071     A.U. after    8 cycles
 SCF Done:  E(RB3LYP) =  -1158.73156075     A.U. after    7 cycles
 Optimization completed.
    -- Stationary point found.
 Normal termination of Gaussian 16 at Thu Dec 10 22:19:51 2020.

 --------------------------------------------------------------------
 #N Geom=AllCheck Guess=TCheck SCRF=Check GenChk RB3LYP/6-31G(d) Freq
 --------------------------------------------------------------------

 Structure from the checkpoint file:  "JID_6255.chk"
 -------------------------------
 CID_115077835_JID_6255_neutraal
 -------------------------------
 Charge =  0 Multiplicity = 1

 SCF Done:  E(RB3LYP) =  -1158.73156075     A.U. after    1 cycles

  Exact polarizability: 157.671  -0.126 119.470  -7.356   2.362 106.015
 Approx polarizability: 216.352  -7.464 200.302 -26.436  12.100 173.125

                      1                      2                      3
                      A                      A                      A
 Frequencies --     19.6604                33.6253                38.2648
 Red. masses --      4.6800                 5.4380                 5.6803
 Frc consts  --      0.0011                 0.0036                 0.0049
 IR Inten    --      1.7497                 8.3094                 0.7240

                      4                      5                      6
                      A                      A                      A
 Frequencies --     45.6700                74.8997                89.2925
 Red. masses --      4.5274                10.0640                 4.9941
 Frc consts  --      0.0056                 0.0333                 0.0235
 IR Inten    --      0.5672                 0.5769                 1.8137

                      7                      8                      9
                      A                      A                      A
 Frequencies --    141.0020               157.0668               215.3967
 Red. masses --      3.2787                 1.0518                 7.6155
 Frc consts  --      0.0384                 0.0153                 0.2082
 IR Inten    --      0.0878                 0.0831                 2.4770

                     10                     11                     12
                      A                      A                      A
 Frequencies --    238.4422               258.1789               304.3153
 Red. masses --      2.8095                 5.8618                 3.7241
 Frc consts  --      0.0941                 0.2302                 0.2032
 IR Inten    --      2.5800                 2.5560                 1.4223

                     13                     14                     15
                      A                      A                      A
 Frequencies --    331.8785               338.7719               360.3715
 Red. masses --      4.1216                 3.9725                 4.2350
 Frc consts  --      0.2675                 0.2686                 0.3240
 IR Inten    --      2.9806                 3.8032                 7.5077

                     16                     17                     18
                      A                      A                      A
 Frequencies --    392.3905               420.3198               455.4004
 Red. masses --      3.5118                 5.7662                 4.6113
 Frc consts  --      0.3186                 0.6002                 0.5635
 IR Inten    --      0.3117                12.5946                25.0152

                     19                     20                     21
                      A                      A                      A
 Frequencies --    475.5653               522.1851               534.8030
 Red. masses --      3.3517                 2.9734                 3.0504
 Frc consts  --      0.4466                 0.4777                 0.5140
 IR Inten    --      3.8240                 7.5207                11.7191

                     22                     23                     24
                      A                      A                      A
 Frequencies --    568.2458               655.3259               676.3293
 Red. masses --     10.1407                 5.3909                 4.9071
 Frc consts  --      1.9293                 1.3640                 1.3225
 IR Inten    --     33.7421                 3.9371                 7.8063

                     25                     26                     27
                      A                      A                      A
 Frequencies --    708.9614               743.6313               774.6098
 Red. masses --      3.2759                 3.6477                 4.3490
 Frc consts  --      0.9701                 1.1885                 1.5375
 IR Inten    --     66.0604                 2.6135                 5.0068

                     28                     29                     30
                      A                      A                      A
 Frequencies --    798.9715               817.6270               870.9197
 Red. masses --      3.7187                 3.6024                 1.8365
 Frc consts  --      1.3986                 1.4189                 0.8207
 IR Inten    --      3.3401                15.9260                 0.6053

                     31                     32                     33
                      A                      A                      A
 Frequencies --    878.9901               892.4310               917.9743
 Red. masses --      1.8883                 2.5046                 5.1166
 Frc consts  --      0.8596                 1.1753                 2.5404
 IR Inten    --     18.7693                 1.0413                 6.5517

                     34                     35                     36
                      A                      A                      A
 Frequencies --    932.0629               996.6688              1020.9952
 Red. masses --      3.2442                 1.8391                 2.4750
 Frc consts  --      1.6605                 1.0764                 1.5201
 IR Inten    --     11.9951                 1.2516                 5.9334

                     37                     38                     39
                      A                      A                      A
 Frequencies --   1031.4627              1037.7578              1053.5329
 Red. masses --      2.6572                 1.6442                 2.1881
 Frc consts  --      1.6656                 1.0433                 1.4309
 IR Inten    --      3.9698                 4.3836                 0.5217

                     40                     41                     42
                      A                      A                      A
 Frequencies --   1065.0662              1079.1849              1105.0595
 Red. masses --      2.5674                 2.5476                 4.8779
 Frc consts  --      1.7159                 1.7481                 3.5095
 IR Inten    --      1.8046                 1.4359               112.4953

                     43                     44                     45
                      A                      A                      A
 Frequencies --   1153.7074              1165.1710              1197.8907
 Red. masses --      1.5220                 1.4644                 1.5950
 Frc consts  --      1.1936                 1.1713                 1.3485
 IR Inten    --     12.2717                55.1499                27.3729

                     46                     47                     48
                      A                      A                      A
 Frequencies --   1204.7096              1239.5068              1249.3616
 Red. masses --      1.4950                 2.3671                 2.1357
 Frc consts  --      1.2784                 2.1427                 1.9641
 IR Inten    --      9.7441                99.4010                22.1118

                     49                     50                     51
                      A                      A                      A
 Frequencies --   1275.8315              1298.8414              1314.1174
 Red. masses --      1.3210                 1.5284                 1.4846
 Frc consts  --      1.2669                 1.5192                 1.5106
 IR Inten    --      7.9799                23.4617                 5.8904

                     52                     53                     54
                      A                      A                      A
 Frequencies --   1331.1302              1362.8886              1378.3001
 Red. masses --      5.4483                 1.4434                 1.9345
 Frc consts  --      5.6879                 1.5797                 2.1652
 IR Inten    --    142.9076                13.2244                 9.5424

                     55                     56                     57
                      A                      A                      A
 Frequencies --   1388.7754              1413.1589              1427.4555
 Red. masses --      1.8195                 1.3121                 2.8030
 Frc consts  --      2.0676                 1.5439                 3.3651
 IR Inten    --     46.9522                34.4411                71.6007

                     58                     59                     60
                      A                      A                      A
 Frequencies --   1472.2731              1487.4001              1495.0412
 Red. masses --      1.1303                 1.0891                 1.0544
 Frc consts  --      1.4435                 1.4196                 1.3885
 IR Inten    --     14.8243                 5.4454                13.9456

                     61                     62                     63
                      A                      A                      A
 Frequencies --   1503.5878              1511.7446              1528.7602
 Red. masses --      1.0509                 1.0917                 1.1027
 Frc consts  --      1.3998                 1.4699                 1.5184
 IR Inten    --     10.7985                 5.8700                 5.8335

                     64                     65                     66
                      A                      A                      A
 Frequencies --   1560.6429              1626.6442              1831.7881
 Red. masses --      8.7369                 9.2739                10.7415
 Frc consts  --     12.5375                14.4576                21.2357
 IR Inten    --     11.6780               108.9325               188.3408

                     67                     68                     69
                      A                      A                      A
 Frequencies --   3055.5679              3072.2379              3079.8589
 Red. masses --      1.0377                 1.0626                 1.0641
 Frc consts  --      5.7084                 5.9095                 5.9472
 IR Inten    --      2.1498                 2.8944                15.5550

                     70                     71                     72
                      A                      A                      A
 Frequencies --   3093.1648              3107.7932              3115.5357
 Red. masses --      1.0612                 1.0593                 1.0987
 Frc consts  --      5.9823                 6.0282                 6.2834
 IR Inten    --     15.0681                 2.1635                 5.8600

                     73                     74                     75
                      A                      A                      A
 Frequencies --   3134.9703              3135.4385              3145.4952
 Red. masses --      1.1003                 1.1021                 1.0935
 Frc consts  --      6.3714                 6.3838                 6.3746
 IR Inten    --      1.2104                 6.2173                 2.6134

                     76                     77                     78
                      A                      A                      A
 Frequencies --   3147.5137              3173.1883              3177.9727
 Red. masses --      1.0980                 1.1028                 1.1092
 Frc consts  --      6.4091                 6.5424                 6.6000
 IR Inten    --      6.2084                 9.9747                 0.9500

 - Thermochemistry -
 -------------------
 Temperature   298.150 Kelvin.  Pressure   1.00000 Atm.
 Atom     1 has atomic number  6 and mass  12.00000

 Molecular mass:   244.05178 amu.
 Principal axes and moments of inertia in atomic units:
                           1         2         3
     Eigenvalues --  1735.074166887.644247453.88007
           X            0.99986   0.01612   0.00500
           Y           -0.01598   0.99951  -0.02698
           Z           -0.00544   0.02690   0.99962
 This molecule is an asymmetric top.
 Rotational symmetry number  1.
 Warning -- assumption of classical behavior for rotation
           may cause significant error
 Rotational temperatures (Kelvin)      0.04992     0.01258     0.01162
 Rotational constants (GHZ):           1.04015     0.26203     0.24212
 Zero-point vibrational energy     567812.1 (Joules/Mol)
                                  135.71035 (Kcal/Mol)
 Warning -- explicit consideration of  22 degrees of freedom as
           vibrations may cause significant error
 Vibrational temperatures:     28.29    48.38    55.05    65.71   107.76
          (Kelvin)            128.47   202.87   225.98   309.91   343.07
                              371.46   437.84   477.50   487.42   518.49
                              564.56   604.75   655.22   684.23   751.31
                              769.46   817.58   942.87   973.09  1020.04
                             1069.92  1114.49  1149.54  1176.38  1253.06
                             1264.67  1284.01  1320.76  1341.03  1433.98
                             1468.98  1484.04  1493.10  1515.80  1532.39
                             1552.71  1589.93  1659.93  1676.42  1723.50
                             1733.31  1783.37  1797.55  1835.64  1868.74
                             1890.72  1915.20  1960.89  1983.07  1998.14
                             2033.22  2053.79  2118.27  2140.04  2151.03
                             2163.33  2175.06  2199.54  2245.42  2340.38
                             2635.53  4396.28  4420.27  4431.23  4450.37
                             4471.42  4482.56  4510.52  4511.20  4525.67
                             4528.57  4565.51  4572.39

 Zero-point correction=                           0.216268 (Hartree/Particle)
 Thermal correction to Energy=                    0.231571
 Thermal correction to Enthalpy=                  0.232515
 Thermal correction to Gibbs Free Energy=         0.170650
 Sum of electronic and zero-point Energies=          -1158.515293
 Sum of electronic and thermal Energies=             -1158.499990
 Sum of electronic and thermal Enthalpies=           -1158.499045
 Sum of electronic and thermal Free Energies=        -1158.560910

                     E (Thermal)             CV                S
                      KCal/Mol        Cal/Mol-Kelvin    Cal/Mol-Kelvin
 Total                  145.313             55.834            130.206
 Electronic               0.000              0.000              0.000
 Translational            0.889              2.981             42.378
 Rotational               0.889              2.981             32.854
 Vibrational            143.536             49.873             54.974
 Vibration     1          0.593              1.986              6.668
 Vibration     2          0.594              1.983              5.603
 Vibration     3          0.594              1.982              5.347
 Vibration     4          0.595              1.979              4.997
 Vibration     5          0.599              1.966              4.020
 Vibration     6          0.602              1.957              3.676
 Vibration     7          0.615              1.912              2.790
 Vibration     8          0.621              1.895              2.585
 Vibration     9          0.645              1.818              1.997
 Vibration    10          0.656              1.782              1.814
 Vibration    11          0.667              1.749              1.674
 Vibration    12          0.695              1.666              1.393
 Vibration    13          0.714              1.612              1.251
 Vibration    14          0.719              1.598              1.218
 Vibration    15          0.735              1.554              1.120
 Vibration    16          0.760              1.486              0.991
 Vibration    17          0.783              1.426              0.891
 Vibration    18          0.814              1.349              0.780
 Vibration    19          0.832              1.304              0.722
 Vibration    20          0.877              1.201              0.605
 Vibration    21          0.890              1.173              0.577
 Vibration    22          0.924              1.100              0.508

                           ! Non-Optimized Parameters !
 Normal termination of Gaussian 16 at Thu Dec 10 22:28:30 2020.

 ----------------------------------------------------------------------
 # B3LYP/6-311++G(d,p) empiricaldispersion=gd3bj scf=xqc pop=npa geom=c
 heck
 ----------------------------------------------------------------------

 ---------------------------------------
 CID_115077835_JID_6255_Energie_neutraal
 ---------------------------------------
 Structure from the checkpoint file:  "JID_6255.chk"
 Charge =  0 Multiplicity = 1

 SCF Done:  E(RB3LYP) =  -1158.97279653     A.U. after   16 cycles
 Normal termination of Gaussian 16 at Thu Dec 10 22:32:17 2020.

 ----------------------------------------------------------------------
 # B3LYP/6-311++G(d,p) empiricaldispersion=gd3bj scf=xqc pop=npa geom=c
 heck
 ----------------------------------------------------------------------

 -------------------------------------
 CID_115077835_JID_6255_Energie_kation
 -------------------------------------
 Structure from the checkpoint file:  "JID_6255.chk"
 Charge =  1 Multiplicity = 2

 SCF Done:  E(UB3LYP) =  -1158.63131161     A.U. after   28 cycles
 Normal termination of Gaussian 16 at Thu Dec 10 22:43:56 2020.
 Gaussian 16:  ES64L-G16RevA.03 25-Dec-2016

 ----------------------------------------------------------------------
 # B3LYP/6-311++G(d,p) empiricaldispersion=gd3bj scf=xqc pop=npa geom=c
 heck
 ----------------------------------------------------------------------

 ------------------------------------
 CID_115077835_JID_6255_Energie_anion
 ------------------------------------
 Structure from the checkpoint file:  "JID_6255.chk"
 Charge = -1 Multiplicity = 2

                         Standard orientation:
 ---------------------------------------------------------------------
 Center     Atomic      Atomic             Coordinates (Angstroms)
 Number     Number       Type             X           Y           Z
 ---------------------------------------------------------------------
      1          6           0       -4.000052    0.444730   -1.233671
      2          6           0       -3.978111    0.488389    0.279353
      3          8           0       -4.648598    1.264462    0.925504
      4          6           0       -3.078454   -0.536285    0.993348
      5          6           0       -1.792167   -0.806463    0.290461
      6          7           0       -1.499429   -1.975851   -0.224920
      7          8           0       -0.229684   -1.769867   -0.796868
      8          6           0        0.092569   -0.489509   -0.561294
      9          7           0       -0.825140    0.160673    0.096251
     10          6           0        1.411805   -0.003464   -1.025416
     11          6           0        1.479108    1.515179   -1.240341
     12          6           0        1.701432    2.177105    0.135311
     13          6           0        2.860841    1.445414    0.815005
     14         16           0        2.703013   -0.316316    0.312062
     15          8           0        2.106750   -1.104940    1.398317
     16          8           0        3.934644   -0.751736   -0.361250
     17          1           0       -4.825774    1.051996   -1.607926
     18          1           0       -4.084370   -0.585499   -1.598007
     19          1           0       -3.053762    0.843653   -1.619583
     20          1           0       -2.893062   -0.165831    2.005036
     21          1           0       -3.637142   -1.477121    1.070086
     22          1           0        1.754623   -0.591257   -1.878362
     23          1           0        0.563119    1.878732   -1.712190
     24          1           0        2.318725    1.736992   -1.907629
     25          1           0        0.789906    2.081859    0.730536
     26          1           0        1.929944    3.241217    0.026490
     27          1           0        2.836289    1.468310    1.905645
     28          1           0        3.838559    1.770320    0.451423
 ---------------------------------------------------------------------

 SCF Done:  E(UB3LYP) =  -1158.98301227     A.U. after   33 cycles
 SCF Done:  E(UB3LYP) =  -1158.98301227     a.u. after    1 cycles

 The electronic state is 2-A.
 Alpha  occ. eigenvalues --  -88.92109 -19.06678 -19.00577 -19.00539 -19.00052
 Alpha  occ. eigenvalues --  -14.22158 -14.18170 -10.14822 -10.12596 -10.10940
 Alpha  occ. eigenvalues --  -10.10756 -10.10623 -10.08957 -10.08688 -10.07648
 Alpha  occ. eigenvalues --  -10.06944  -7.98823  -5.95070  -5.94928  -5.94918
 Alpha  occ. eigenvalues --   -1.02402  -0.99462  -0.93685  -0.89426  -0.80498
 Alpha  occ. eigenvalues --   -0.76241  -0.73161  -0.66624  -0.65317  -0.61620
 Alpha  occ. eigenvalues --   -0.60901  -0.52697  -0.49738  -0.48828  -0.46129
 Alpha  occ. eigenvalues --   -0.43089  -0.40896  -0.39891  -0.37826  -0.37206
 Alpha  occ. eigenvalues --   -0.35782  -0.35651  -0.34392  -0.33932  -0.33514
 Alpha  occ. eigenvalues --   -0.32991  -0.32088  -0.30302  -0.29078  -0.28554
 Alpha  occ. eigenvalues --   -0.28239  -0.27588  -0.26836  -0.25751  -0.24705
 Alpha  occ. eigenvalues --   -0.21990  -0.21190  -0.20783  -0.20289  -0.19551
 Alpha  occ. eigenvalues --   -0.18562  -0.16924  -0.15717  -0.14122   0.03975
 Alpha virt. eigenvalues --    0.06223   0.07781   0.07899   0.08725   0.09260
 Alpha virt. eigenvalues --    0.10113   0.10400   0.11430   0.11796   0.12296
 Alpha virt. eigenvalues --    0.12935   0.13065   0.13606   0.14428   0.14688

  Beta  occ. eigenvalues --  -88.92042 -19.06303 -19.00538 -19.00535 -18.99936
  Beta  occ. eigenvalues --  -14.21838 -14.18132 -10.14679 -10.12222 -10.10910
  Beta  occ. eigenvalues --  -10.10747 -10.10590 -10.08925 -10.08669 -10.07661
  Beta  occ. eigenvalues --  -10.06955  -7.98751  -5.95022  -5.94878  -5.94770
  Beta  occ. eigenvalues --   -1.01821  -0.99351  -0.93451  -0.89369  -0.80180
  Beta  occ. eigenvalues --   -0.75906  -0.72870  -0.66449  -0.65098  -0.61539
  Beta  occ. eigenvalues --   -0.60714  -0.52319  -0.49482  -0.48542  -0.45898
  Beta  occ. eigenvalues --   -0.42828  -0.40713  -0.39775  -0.37644  -0.36599
  Beta  occ. eigenvalues --   -0.35589  -0.35507  -0.33975  -0.33824  -0.33343
  Beta  occ. eigenvalues --   -0.32443  -0.31926  -0.30102  -0.28952  -0.28448
  Beta  occ. eigenvalues --   -0.28152  -0.27447  -0.26665  -0.25615  -0.24171
  Beta  occ. eigenvalues --   -0.21811  -0.21046  -0.20425  -0.19848  -0.18815
  Beta  occ. eigenvalues --   -0.18011  -0.16687  -0.15011  -0.13363
  Beta virt. eigenvalues --    0.06601   0.07979   0.08493   0.08709   0.09224
  Beta virt. eigenvalues --    0.10233   0.10368   0.10526   0.11472   0.11781
  Beta virt. eigenvalues --    0.12424   0.12943   0.13205   0.13654   0.14535

 Mulliken charges and spin densities:
               1          2
     1  C   -0.432345  -0.052032
     2  C    0.125912   0.095660
     3  O   -0.315657   0.040338
     4  C   -0.477598   0.024253
     5  C    0.876040  -0.050110
     6  N   -0.366040   0.158595
     7  O    0.227281   0.071810
     8  C   -0.630104  -0.336887
     9  N    0.102562   0.017940
    10  C   -0.831231   0.693869
    11  C   -0.122789  -0.466924
    12  C   -0.423032   0.203165
    13  C   -0.004580  -0.753190
    14  S    0.401895   0.196198
    15  O   -0.189099   0.005811
    16  O   -0.184711   0.006886
    17  H    0.172340   0.004846
    18  H    0.139780   0.004593
    19  H    0.114092   0.059795
    20  H    0.197414   0.007546
    21  H    0.159560   0.016127
    22  H    0.333345   0.006823
    23  H    0.060308   0.118319
    24  H   -0.039712   0.229302
    25  H    0.233405  -0.019448
    26  H   -0.229262   0.393096
    27  H    0.023105   0.195835
    28  H    0.079122   0.127785
 Sum of Mulliken charges =  -1.00000   1.00000

 Dipole moment (field-independent basis, Debye):
    X=             -0.1250    Y=              1.6127    Z=             -2.0292  Tot=              2.5950
 Quadrupole moment (field-independent basis, Debye-Ang):
   XX=           -166.5417   YY=           -133.1548   ZZ=           -115.4521
   XY=             10.9584   XZ=              5.6575   YZ=             -1.5250

 Summary of Natural Population Analysis:

                                       Natural Population
                Natural  -----------------------------------------------
    Atom  No    Charge         Core      Valence    Rydberg      Total
 -----------------------------------------------------------------------
      C    1   -0.34077      0.99962     2.33646    0.00469     3.34077
      C    2    0.31720      0.99970     1.66353    0.01957     2.68280
      O    3   -0.28359      0.99987     3.27627    0.00744     4.28359
      C    4   -0.25355      0.99954     2.24431    0.00971     3.25355
      C    5    0.15887      0.99965     1.82033    0.02116     2.84113
      N    6   -0.05811      0.99965     2.54592    0.01254     3.55811
      O    7   -0.13817      0.99985     3.12982    0.00850     4.13817
      C    8    0.32617      0.99958     1.65239    0.02185     2.67383
      N    9   -0.28455      0.99966     2.77574    0.00915     3.78455
      C   10   -0.21295      0.99951     2.19769    0.01575     3.21295
      C   11   -0.19196      0.99962     2.18276    0.00957     3.19196
      C   12   -0.20486      0.99963     2.19598    0.00925     3.20486
      C   13   -0.28514      0.99960     2.27513    0.01041     3.28514
      S   14    1.02530      4.99930     1.88277    0.09263     6.97470
      O   15   -0.45940      0.99991     3.45355    0.00595     4.45940
      O   16   -0.46878      0.99991     3.46311    0.00576     4.46878
      H   17    0.10401      0.00000     0.39457    0.00142     0.39599
      H   18    0.10908      0.00000     0.38992    0.00100     0.39092
      H   19    0.11922      0.00000     0.37923    0.00156     0.38078
      H   20    0.11630      0.00000     0.38265    0.00105     0.38370
      H   21    0.11753      0.00000     0.38157    0.00089     0.38247
      H   22    0.12484      0.00000     0.37388    0.00128     0.37516
      H   23    0.11346      0.00000     0.38549    0.00104     0.38654
      H   24    0.10016      0.00000     0.39877    0.00107     0.39984
      H   25    0.11660      0.00000     0.38163    0.00177     0.38340
      H   26    0.10382      0.00000     0.39515    0.00102     0.39618
      H   27    0.11740      0.00000     0.38128    0.00132     0.38260
      H   28    0.11187      0.00000     0.38669    0.00144     0.38813
 =======================================================================
   * Total *    0.00000     19.99461    43.72658    0.27881    64.00000

 Normal termination of Gaussian 16 at Thu Dec 10 22:58:48 2020.
