 Gaussian 16, Revision A.03,

 -----------------------------------------------------------
 # opt freq B3LYP/6-31G(d) empiricaldispersion=gd3bj scf=xqc
 -----------------------------------------------------------

 -------------------------------
 CID_107234210_JID_2993_neutraal
 -------------------------------
 Symbolic Z-matrix:
 Charge =  0 Multiplicity = 1

 SCF Done:  E(RB3LYP) =  -485.314784448     A.U. after   14 cycles
 SCF Done:  E(RB3LYP) =  -485.336489950     A.U. after   12 cycles
 SCF Done:  E(RB3LYP) =  -485.338286526     A.U. after   12 cycles
 SCF Done:  E(RB3LYP) =  -485.336526550     A.U. after   12 cycles
 SCF Done:  E(RB3LYP) =  -485.338886700     A.U. after   11 cycles
 SCF Done:  E(RB3LYP) =  -485.337849307     A.U. after   12 cycles
 SCF Done:  E(RB3LYP) =  -485.339035940     A.U. after   11 cycles
 SCF Done:  E(RB3LYP) =  -485.339095863     A.U. after   10 cycles
 SCF Done:  E(RB3LYP) =  -485.339122972     A.U. after    9 cycles
 SCF Done:  E(RB3LYP) =  -485.339131104     A.U. after   10 cycles
 SCF Done:  E(RB3LYP) =  -485.339192648     A.U. after    9 cycles
 SCF Done:  E(RB3LYP) =  -485.339195261     A.U. after    9 cycles
 SCF Done:  E(RB3LYP) =  -485.339195479     A.U. after    9 cycles
 SCF Done:  E(RB3LYP) =  -485.339195326     A.U. after    7 cycles
 SCF Done:  E(RB3LYP) =  -485.339195526     A.U. after    9 cycles
 Optimization completed.
    -- Stationary point found.
 Normal termination of Gaussian 16 at Wed Dec  9 18:42:31 2020.

 --------------------------------------------------------------------
 #N Geom=AllCheck Guess=TCheck SCRF=Check GenChk RB3LYP/6-31G(d) Freq
 --------------------------------------------------------------------

 Structure from the checkpoint file:  "JID_2993.chk"
 -------------------------------
 CID_107234210_JID_2993_neutraal
 -------------------------------
 Charge =  0 Multiplicity = 1

 SCF Done:  E(RB3LYP) =  -485.339195526     A.U. after    1 cycles

  Exact polarizability: 132.350   2.975 120.782  -0.942  -2.777  95.702
 Approx polarizability: 150.464   6.402 186.075  -1.215  -9.037 144.936

                      1                      2                      3
                      A                      A                      A
 Frequencies --     28.4338                35.5219                50.0317
 Red. masses --      2.3979                 2.2445                 2.7816
 Frc consts  --      0.0011                 0.0017                 0.0041
 IR Inten    --      0.0688                 0.1047                 0.0296

                      4                      5                      6
                      A                      A                      A
 Frequencies --     78.0312                97.5863               140.8521
 Red. masses --      2.6070                 3.5398                 2.0932
 Frc consts  --      0.0094                 0.0199                 0.0245
 IR Inten    --      0.0715                 0.3692                 0.1758

                      7                      8                      9
                      A                      A                      A
 Frequencies --    152.4070               206.9492               220.7281
 Red. masses --      3.1163                 2.0270                 2.6556
 Frc consts  --      0.0426                 0.0511                 0.0762
 IR Inten    --      0.1535                 1.4831                 0.0768

                     10                     11                     12
                      A                      A                      A
 Frequencies --    252.8422               274.3659               294.5728
 Red. masses --      2.0440                 3.7672                 1.6682
 Frc consts  --      0.0770                 0.1671                 0.0853
 IR Inten    --      0.8757                 0.4135                 0.1232

                     13                     14                     15
                      A                      A                      A
 Frequencies --    359.0207               431.6558               472.4234
 Red. masses --      3.4675                 2.3499                 2.0325
 Frc consts  --      0.2633                 0.2580                 0.2673
 IR Inten    --      1.7833                 0.8772                 4.1943

                     16                     17                     18
                      A                      A                      A
 Frequencies --    543.0670               592.6741               603.3807
 Red. masses --      3.6307                 2.6583                 1.4257
 Frc consts  --      0.6309                 0.5502                 0.3058
 IR Inten    --      2.3550                 3.9884                33.3395

                     19                     20                     21
                      A                      A                      A
 Frequencies --    611.3638               622.4370               631.2260
 Red. masses --      2.0359                 1.6547                 2.2406
 Frc consts  --      0.4483                 0.3777                 0.5260
 IR Inten    --     14.1910                29.4115                27.2089

                     22                     23                     24
                      A                      A                      A
 Frequencies --    741.1592               763.5024               787.0835
 Red. masses --      1.8116                 1.3551                 1.2362
 Frc consts  --      0.5863                 0.4654                 0.4512
 IR Inten    --     40.8487                16.0618                11.0764

                     25                     26                     27
                      A                      A                      A
 Frequencies --    822.5993               848.0017               882.0318
 Red. masses --      1.7007                 1.6890                 2.8053
 Frc consts  --      0.6780                 0.7156                 1.2859
 IR Inten    --      1.1739                18.3524                 3.4040

                     28                     29                     30
                      A                      A                      A
 Frequencies --    896.1673               904.2453               950.4193
 Red. masses --      2.8457                 2.1776                 1.5397
 Frc consts  --      1.3465                 1.0491                 0.8194
 IR Inten    --      1.0272                 4.3505                10.2368

                     31                     32                     33
                      A                      A                      A
 Frequencies --    966.4508               979.5800               999.0442
 Red. masses --      1.7686                 1.7583                 1.4449
 Frc consts  --      0.9733                 0.9941                 0.8497
 IR Inten    --      8.6145                 1.3295                 0.9485

                     34                     35                     36
                      A                      A                      A
 Frequencies --   1015.6681              1054.2444              1074.6908
 Red. masses --      1.6362                 2.3160                 2.6101
 Frc consts  --      0.9945                 1.5166                 1.7761
 IR Inten    --      1.2806                 0.7850                 1.1081

                     37                     38                     39
                      A                      A                      A
 Frequencies --   1103.0643              1114.0064              1137.3917
 Red. masses --      2.3014                 2.6945                 1.9593
 Frc consts  --      1.6498                 1.9702                 1.4934
 IR Inten    --      6.7910                 7.7073                 2.1712

                     40                     41                     42
                      A                      A                      A
 Frequencies --   1152.3018              1163.2310              1216.4601
 Red. masses --      1.7896                 3.2331                 1.4867
 Frc consts  --      1.4001                 2.5775                 1.2962
 IR Inten    --      1.7725                80.9567                 1.8727

                     43                     44                     45
                      A                      A                      A
 Frequencies --   1218.7397              1234.8886              1259.1648
 Red. masses --      1.5062                 1.3887                 1.4612
 Frc consts  --      1.3182                 1.2477                 1.3650
 IR Inten    --     12.7949                 3.4615                 0.0273

                     46                     47                     48
                      A                      A                      A
 Frequencies --   1282.6761              1296.6002              1314.8391
 Red. masses --      1.1865                 1.2852                 1.2992
 Frc consts  --      1.1501                 1.2730                 1.3234
 IR Inten    --      0.5449                 0.3482                 1.6609

                     49                     50                     51
                      A                      A                      A
 Frequencies --   1323.8003              1340.1291              1347.3538
 Red. masses --      1.2461                 1.2703                 1.2324
 Frc consts  --      1.2866                 1.3442                 1.3181
 IR Inten    --      1.5995                 1.7489                 6.0806

                     52                     53                     54
                      A                      A                      A
 Frequencies --   1357.4672              1362.9721              1369.4269
 Red. masses --      1.2634                 1.4397                 1.3610
 Frc consts  --      1.3717                 1.5758                 1.5037
 IR Inten    --      2.4535                 1.5863                 8.3884

                     55                     56                     57
                      A                      A                      A
 Frequencies --   1392.8750              1400.5811              1423.0732
 Red. masses --      1.4267                 1.3749                 1.3304
 Frc consts  --      1.6308                 1.5891                 1.5874
 IR Inten    --      1.4803                 5.1096                13.7695

                     58                     59                     60
                      A                      A                      A
 Frequencies --   1443.1365              1511.4853              1512.2434
 Red. masses --      1.2647                 1.0847                 1.0860
 Frc consts  --      1.5519                 1.4601                 1.4633
 IR Inten    --      4.7903                 4.2445                 0.4166

                     61                     62                     63
                      A                      A                      A
 Frequencies --   1516.5851              1520.0743              1522.1520
 Red. masses --      1.2045                 1.0649                 1.0923
 Frc consts  --      1.6323                 1.4498                 1.4911
 IR Inten    --     23.2226                 1.4351                 3.5834

                     64                     65                     66
                      A                      A                      A
 Frequencies --   1526.4775              1532.5930              1541.0522
 Red. masses --      1.1005                 1.0598                 1.0586
 Frc consts  --      1.5109                 1.4666                 1.4812
 IR Inten    --      8.2987                 4.6843                 9.9708

                     67                     68                     69
                      A                      A                      A
 Frequencies --   1548.6856              2220.7020              3016.4233
 Red. masses --      1.1049                 5.9693                 1.0825
 Frc consts  --      1.5614                17.3441                 5.8031
 IR Inten    --      1.1200                 0.1706                 8.1034

                     70                     71                     72
                      A                      A                      A
 Frequencies --   3034.4495              3037.7595              3043.2805
 Red. masses --      1.0715                 1.0648                 1.0714
 Frc consts  --      5.8130                 5.7893                 5.8465
 IR Inten    --     12.0981                15.9429                38.3425

                     73                     74                     75
                      A                      A                      A
 Frequencies --   3044.3901              3049.0728              3051.8392
 Red. masses --      1.0418                 1.0703                 1.0645
 Frc consts  --      5.6888                 5.8627                 5.8412
 IR Inten    --     11.0504                19.3735                 1.2647

                     76                     77                     78
                      A                      A                      A
 Frequencies --   3052.4339              3069.3285              3078.4535
 Red. masses --      1.0668                 1.0633                 1.1013
 Frc consts  --      5.8565                 5.9018                 6.1491
 IR Inten    --     98.4713                49.5643                 5.6985

                     79                     80                     81
                      A                      A                      A
 Frequencies --   3091.5316              3096.3690              3107.3255
 Red. masses --      1.0991                 1.1011                 1.0985
 Frc consts  --      6.1893                 6.2197                 6.2493
 IR Inten    --     20.4163                26.0491                19.2468

                     82                     83                     84
                      A                      A                      A
 Frequencies --   3111.7196              3116.7581              3118.4775
 Red. masses --      1.1013                 1.1022                 1.1002
 Frc consts  --      6.2830                 6.3082                 6.3038
 IR Inten    --     51.6774                53.8823                68.8428

                     85                     86                     87
                      A                      A                      A
 Frequencies --   3128.4098              3478.2498              3493.9979
 Red. masses --      1.0958                 1.0733                 1.1587
 Frc consts  --      6.3190                 7.6505                 8.3346
 IR Inten    --     32.6462                 0.3105                52.8828

 - Thermochemistry -
 -------------------
 Temperature   298.150 Kelvin.  Pressure   1.00000 Atm.
 Atom     1 has atomic number  6 and mass  12.00000

 Molecular mass:   165.15175 amu.
 Principal axes and moments of inertia in atomic units:
                           1         2         3
     Eigenvalues --   972.684244179.652674642.99972
           X            0.99997  -0.00687   0.00448
           Y            0.00686   0.99997   0.00294
           Z           -0.00450  -0.00291   0.99999
 This molecule is an asymmetric top.
 Rotational symmetry number  1.
 Warning -- assumption of classical behavior for rotation
           may cause significant error
 Rotational temperatures (Kelvin)      0.08905     0.02072     0.01865
 Rotational constants (GHZ):           1.85542     0.43179     0.38870
 Zero-point vibrational energy     740554.0 (Joules/Mol)
                                  176.99665 (Kcal/Mol)
 Warning -- explicit consideration of  19 degrees of freedom as
           vibrations may cause significant error
 Vibrational temperatures:     40.91    51.11    71.98   112.27   140.40
          (Kelvin)            202.65   219.28   297.75   317.58   363.78
                              394.75   423.82   516.55   621.06   679.71
                              781.35   852.73   868.13   879.62   895.55
                              908.19  1066.36  1098.51  1132.44  1183.54
                             1220.09  1269.05  1289.38  1301.01  1367.44
                             1390.51  1409.40  1437.40  1461.32  1516.82
                             1546.24  1587.06  1602.81  1636.45  1657.91
                             1673.63  1750.21  1753.49  1776.73  1811.66
                             1845.48  1865.52  1891.76  1904.65  1928.15
                             1938.54  1953.09  1961.01  1970.30  2004.04
                             2015.12  2047.48  2076.35  2174.69  2175.78
                             2182.03  2187.05  2190.04  2196.26  2205.06
                             2217.23  2228.21  3195.09  4339.96  4365.90
                             4370.66  4378.60  4380.20  4386.94  4390.92
                             4391.77  4416.08  4429.21  4448.02  4454.98
                             4470.75  4477.07  4484.32  4486.79  4501.08
                             5004.43  5027.08

 Zero-point correction=                           0.282062 (Hartree/Particle)
 Thermal correction to Energy=                    0.295724
 Thermal correction to Enthalpy=                  0.296668
 Thermal correction to Gibbs Free Energy=         0.240237
 Sum of electronic and zero-point Energies=           -485.057133
 Sum of electronic and thermal Energies=              -485.043471
 Sum of electronic and thermal Enthalpies=            -485.042527
 Sum of electronic and thermal Free Energies=         -485.098959

                     E (Thermal)             CV                S
                      KCal/Mol        Cal/Mol-Kelvin    Cal/Mol-Kelvin
 Total                  185.570             50.584            118.770
 Electronic               0.000              0.000              0.000
 Translational            0.889              2.981             41.213
 Rotational               0.889              2.981             31.313
 Vibrational            183.792             44.622             46.244
 Vibration     1          0.593              1.984              5.936
 Vibration     2          0.594              1.982              5.494
 Vibration     3          0.595              1.978              4.816
 Vibration     4          0.599              1.964              3.940
 Vibration     5          0.603              1.951              3.502
 Vibration     6          0.615              1.912              2.792
 Vibration     7          0.619              1.900              2.642
 Vibration     8          0.641              1.830              2.070
 Vibration     9          0.647              1.810              1.953
 Vibration    10          0.664              1.758              1.711
 Vibration    11          0.677              1.721              1.569
 Vibration    12          0.689              1.684              1.448
 Vibration    13          0.734              1.557              1.126
 Vibration    14          0.793              1.401              0.853
 Vibration    15          0.829              1.311              0.731
 Vibration    16          0.898              1.155              0.559
 Vibration    17          0.950              1.047              0.462
 Vibration    18          0.962              1.025              0.444
 Vibration    19          0.971              1.008              0.431

 Optimization completed.
    -- Stationary point found.
 Normal termination of Gaussian 16 at Wed Dec  9 18:50:05 2020.

 ----------------------------------------------------------------------
 # B3LYP/6-311++G(d,p) empiricaldispersion=gd3bj scf=xqc pop=npa geom=c
 heck
 ----------------------------------------------------------------------

 ---------------------------------------
 CID_107234210_JID_2993_Energie_neutraal
 ---------------------------------------
 Structure from the checkpoint file:  "JID_2993.chk"
 Charge =  0 Multiplicity = 1

 SCF Done:  E(RB3LYP) =  -485.478234439     A.U. after   13 cycles
 Normal termination of Gaussian 16 at Wed Dec  9 18:53:28 2020.

 ----------------------------------------------------------------------
 # B3LYP/6-311++G(d,p) empiricaldispersion=gd3bj scf=xqc pop=npa geom=c
 heck
 ----------------------------------------------------------------------

 -------------------------------------
 CID_107234210_JID_2993_Energie_kation
 -------------------------------------
 Structure from the checkpoint file:  "JID_2993.chk"
 Charge =  1 Multiplicity = 2

 SCF Done:  E(UB3LYP) =  -485.176240799     A.U. after   19 cycles
 Normal termination of Gaussian 16 at Wed Dec  9 19:00:13 2020.
 Gaussian 16:  ES64L-G16RevA.03 25-Dec-2016

 ----------------------------------------------------------------------
 # B3LYP/6-311++G(d,p) empiricaldispersion=gd3bj scf=xqc pop=npa geom=c
 heck
 ----------------------------------------------------------------------

 ------------------------------------
 CID_107234210_JID_2993_Energie_anion
 ------------------------------------
 Structure from the checkpoint file:  "JID_2993.chk"
 Charge = -1 Multiplicity = 2

                         Standard orientation:
 ---------------------------------------------------------------------
 Center     Atomic      Atomic             Coordinates (Angstroms)
 Number     Number       Type             X           Y           Z
 ---------------------------------------------------------------------
      1          6           0        3.849172   -0.505025    1.304846
      2          6           0        3.642392   -0.403932   -0.209584
      3          6           0        2.268551   -0.893642   -0.681432
      4          6           0        1.063516   -0.143819   -0.072873
      5          6           0        1.190000    1.310681   -0.293421
      6          6           0        1.307186    2.491175   -0.525884
      7          7           0       -0.174664   -0.730946   -0.595615
      8          6           0       -1.396609   -0.456393    0.151876
      9          6           0       -1.966999    0.978846    0.169139
     10          6           0       -3.391730    0.780856    0.708415
     11          6           0       -3.855734   -0.594148    0.144485
     12          6           0       -2.576647   -1.284190   -0.391706
     13          1           0        3.178151    0.170035    1.847803
     14          1           0        4.874712   -0.236131    1.580652
     15          1           0        3.662506   -1.524834    1.664127
     16          1           0        3.784847    0.635434   -0.528888
     17          1           0        4.411011   -0.996230   -0.722338
     18          1           0        2.205412   -0.807552   -1.774256
     19          1           0        2.131867   -1.953533   -0.437294
     20          1           0        1.056288   -0.326481    1.009372
     21          1           0        1.390201    3.535779   -0.722186
     22          1           0       -0.296447   -0.445684   -1.566971
     23          1           0       -1.201567   -0.758470    1.191504
     24          1           0       -1.369074    1.676331    0.760911
     25          1           0       -1.989625    1.362581   -0.860659
     26          1           0       -4.066212    1.598337    0.434588
     27          1           0       -3.366119    0.745657    1.804501
     28          1           0       -4.594075   -0.467171   -0.653818
     29          1           0       -4.338557   -1.193252    0.923330
     30          1           0       -2.551447   -1.241274   -1.489062
     31          1           0       -2.497817   -2.339374   -0.115182
 ---------------------------------------------------------------------

 SCF Done:  E(UB3LYP) =  -485.460325903     A.U. after   33 cycles
 SCF Done:  E(UB3LYP) =  -485.460325903     a.u. after    1 cycles

 The electronic state is 2-A.
 Alpha  occ. eigenvalues --  -14.20481 -10.12585 -10.09723 -10.07482 -10.07211
 Alpha  occ. eigenvalues --  -10.06750 -10.06597 -10.06588 -10.06478 -10.06409
 Alpha  occ. eigenvalues --  -10.05968 -10.05739  -0.82239  -0.73220  -0.69706
 Alpha  occ. eigenvalues --   -0.65891  -0.62170  -0.60978  -0.58302  -0.54876
 Alpha  occ. eigenvalues --   -0.48862  -0.48002  -0.46704  -0.43758  -0.40352
 Alpha  occ. eigenvalues --   -0.39397  -0.37831  -0.36040  -0.35566  -0.31963
 Alpha  occ. eigenvalues --   -0.31857  -0.31276  -0.29612  -0.28965  -0.27644
 Alpha  occ. eigenvalues --   -0.25472  -0.24408  -0.24109  -0.23951  -0.23631
 Alpha  occ. eigenvalues --   -0.23018  -0.22710  -0.21962  -0.18629  -0.17509
 Alpha  occ. eigenvalues --   -0.13204   0.04567
 Alpha virt. eigenvalues --    0.06286   0.06782   0.07375   0.08149   0.08560
 Alpha virt. eigenvalues --    0.08816   0.09500   0.10466   0.10697   0.10933
 Alpha virt. eigenvalues --    0.11065   0.11512   0.12194   0.12667   0.12829

  Beta  occ. eigenvalues --  -14.20471 -10.12577 -10.09714 -10.07484 -10.07200
  Beta  occ. eigenvalues --  -10.06734 -10.06571 -10.06568 -10.06466 -10.06388
  Beta  occ. eigenvalues --  -10.05937 -10.05726  -0.82219  -0.73196  -0.69679
  Beta  occ. eigenvalues --   -0.65868  -0.62138  -0.60940  -0.58258  -0.54829
  Beta  occ. eigenvalues --   -0.48805  -0.47953  -0.46644  -0.43707  -0.40312
  Beta  occ. eigenvalues --   -0.39371  -0.37791  -0.36007  -0.35542  -0.31935
  Beta  occ. eigenvalues --   -0.31820  -0.31245  -0.29573  -0.28933  -0.27609
  Beta  occ. eigenvalues --   -0.25443  -0.24374  -0.24073  -0.23917  -0.23598
  Beta  occ. eigenvalues --   -0.22987  -0.22677  -0.21931  -0.18611  -0.17482
  Beta  occ. eigenvalues --   -0.13188
  Beta virt. eigenvalues --    0.06596   0.07148   0.07573   0.07952   0.08633
  Beta virt. eigenvalues --    0.08937   0.09146   0.09877   0.10732   0.10924
  Beta virt. eigenvalues --    0.11221   0.11281   0.11773   0.12305   0.12989

 Mulliken charges and spin densities:
               1          2
     1  C    1.088551  -1.717809
     2  C   -1.111949   0.983077
     3  C   -0.162671  -0.209725
     4  C   -1.392558   0.995386
     5  C    3.048972  -2.679761
     6  C   -0.910809   0.376127
     7  N    0.296925  -0.051167
     8  C   -0.757464   0.788790
     9  C   -0.394220   0.359198
    10  C    0.898790  -1.557541
    11  C   -0.004872  -0.220258
    12  C    0.675714  -1.214049
    13  H   -0.160847   0.306449
    14  H   -0.376139   0.518119
    15  H   -0.122543   0.257783
    16  H    0.252627  -0.106738
    17  H   -0.415101   0.568306
    18  H   -0.076610   0.192399
    19  H   -0.069044   0.250858
    20  H    0.212760  -0.057672
    21  H   -1.115752   1.300686
    22  H    0.357471  -0.130670
    23  H   -0.268427   0.409362
    24  H    0.237617  -0.089007
    25  H   -0.089114   0.232366
    26  H   -0.284903   0.446373
    27  H   -0.084308   0.227442
    28  H   -0.015295   0.141513
    29  H   -0.142200   0.281746
    30  H   -0.150181   0.260139
    31  H    0.035579   0.138277
 Sum of Mulliken charges =  -1.00000   1.00000

 Dipole moment (field-independent basis, Debye):
    X=             -1.8140    Y=             -1.7997    Z=             -1.6096  Tot=              3.0200
 Quadrupole moment (field-independent basis, Debye-Ang):
   XX=           -164.1224   YY=           -126.3109   ZZ=           -108.1628
   XY=              2.8607   XZ=             -3.5804   YZ=              2.6740

 Summary of Natural Population Analysis:

                                       Natural Population
                Natural  -----------------------------------------------
    Atom  No    Charge         Core      Valence    Rydberg      Total
 -----------------------------------------------------------------------
      C    1   -0.28810      0.99967     2.28304    0.00539     3.28810
      C    2   -0.19473      0.99964     2.18699    0.00810     3.19473
      C    3   -0.17950      0.99961     2.16994    0.00995     3.17950
      C    4   -0.05018      0.99952     2.03840    0.01227     3.05018
      C    5   -0.01075      0.99937     2.00159    0.00980     3.01075
      C    6   -0.11772      0.99927     2.11394    0.00451     3.11772
      N    7   -0.32883      0.99973     2.81755    0.01155     3.82883
      C    8   -0.00750      0.99958     1.99518    0.01274     3.00750
      C    9   -0.20206      0.99961     2.19227    0.01018     3.20206
      C   10   -0.19005      0.99964     2.18360    0.00680     3.19005
      C   11   -0.19233      0.99965     2.18594    0.00674     3.19233
      C   12   -0.18881      0.99962     2.18132    0.00788     3.18881
      H   13    0.09726      0.00000     0.40145    0.00130     0.40274
      H   14    0.10009      0.00000     0.39879    0.00112     0.39991
      H   15    0.09563      0.00000     0.40313    0.00124     0.40437
      H   16    0.10001      0.00000     0.39876    0.00123     0.39999
      H   17    0.09631      0.00000     0.40254    0.00115     0.40369
      H   18    0.09667      0.00000     0.40222    0.00111     0.40333
      H   19    0.10202      0.00000     0.39657    0.00140     0.39798
      H   20    0.10696      0.00000     0.39034    0.00270     0.39304
      H   21    0.11236      0.00000     0.38546    0.00218     0.38764
      H   22    0.17114      0.00000     0.32591    0.00295     0.32886
      H   23    0.08957      0.00000     0.40870    0.00173     0.41043
      H   24    0.10696      0.00000     0.39176    0.00128     0.39304
      H   25    0.09420      0.00000     0.40435    0.00145     0.40580
      H   26    0.09936      0.00000     0.39926    0.00137     0.40064
      H   27    0.09441      0.00000     0.40404    0.00155     0.40559
      H   28    0.09616      0.00000     0.40246    0.00138     0.40384
      H   29    0.09675      0.00000     0.40179    0.00146     0.40325
      H   30    0.09298      0.00000     0.40555    0.00146     0.40702
      H   31    0.10173      0.00000     0.39700    0.00127     0.39827
 =======================================================================
   * Total *    0.00000     11.99491    33.86984    0.13525    46.00000

 Normal termination of Gaussian 16 at Wed Dec  9 19:11:53 2020.
