 Gaussian 16, Revision A.03,

 -----------------------------------------------------------
 # opt freq B3LYP/6-31G(d) empiricaldispersion=gd3bj scf=xqc
 -----------------------------------------------------------

 ------------------------------
 CID_81984278_JID_2802_neutraal
 ------------------------------
 Symbolic Z-matrix:
 Charge =  0 Multiplicity = 1

 SCF Done:  E(RB3LYP) =  -549.570274504     A.U. after   14 cycles
 SCF Done:  E(RB3LYP) =  -549.575440885     A.U. after   12 cycles
 SCF Done:  E(RB3LYP) =  -549.576579233     A.U. after   12 cycles
 SCF Done:  E(RB3LYP) =  -549.576819452     A.U. after   12 cycles
 SCF Done:  E(RB3LYP) =  -549.576703306     A.U. after   12 cycles
 SCF Done:  E(RB3LYP) =  -549.577010961     A.U. after   11 cycles
 SCF Done:  E(RB3LYP) =  -549.577117752     A.U. after   10 cycles
 SCF Done:  E(RB3LYP) =  -549.577132609     A.U. after   10 cycles
 SCF Done:  E(RB3LYP) =  -549.577139420     A.U. after   10 cycles
 SCF Done:  E(RB3LYP) =  -549.577142591     A.U. after    9 cycles
 SCF Done:  E(RB3LYP) =  -549.577143687     A.U. after    8 cycles
 SCF Done:  E(RB3LYP) =  -549.577144063     A.U. after    7 cycles
 Optimization completed.
    -- Stationary point found.

 1\1\GINC-NODE226\FOpt\RB3LYP\6-31G(d)\C7H15N5\VSC10255\09-Dec-2020\0\\
 # opt freq B3LYP/6-31G(d) empiricaldispersion=gd3bj scf=xqc\\CID_81984
 278_JID_2802_neutraal\\0,1\C,0.9841461324,-0.2125166919,0.0389385765\C
 ,0.3551434542,-1.1170400442,1.1073860678\C,0.8434468447,-0.7105134352,
 2.5031132032\C,-1.1888456256,-1.1117974891,1.0535838406\C,-1.751958218
 6,-1.3764035684,-0.3759658058\C,-1.286286107,-2.6747046833,-0.94736888
 22\N,-1.4091032053,-3.8757985956,-0.3849602724\C,-0.7860329793,-4.7082
 640319,-1.2767096134\N,-0.2951774166,-4.1144126617,-2.35960923\N,-0.62

 Normal termination of Gaussian 16 at Wed Dec  9 18:01:42 2020.

 --------------------------------------------------------------------
 #N Geom=AllCheck Guess=TCheck SCRF=Check GenChk RB3LYP/6-31G(d) Freq
 --------------------------------------------------------------------

 Structure from the checkpoint file:  "JID_2802.chk"
 ------------------------------
 CID_81984278_JID_2802_neutraal
 ------------------------------
 Charge =  0 Multiplicity = 1

 SCF Done:  E(RB3LYP) =  -549.577144063     A.U. after    1 cycles

  Exact polarizability: 119.284   2.450 103.099  12.617   1.765  85.253
 Approx polarizability: 154.267  -0.247 167.159  26.181   4.759 126.616

                      1                      2                      3
                      A                      A                      A
 Frequencies --     38.7540                59.2916                79.7257
 Red. masses --      4.4703                 3.6792                 3.0296
 Frc consts  --      0.0040                 0.0076                 0.0113
 IR Inten    --      0.9926                 0.1380                 0.1097

                      4                      5                      6
                      A                      A                      A
 Frequencies --    131.5743               192.3916               224.3198
 Red. masses --      4.4522                 3.3761                 1.1430
 Frc consts  --      0.0454                 0.0736                 0.0339
 IR Inten    --      0.3715                 3.6199                 0.7531

                      7                      8                      9
                      A                      A                      A
 Frequencies --    237.1718               266.4642               290.5247
 Red. masses --      1.2619                 3.0973                 1.6756
 Frc consts  --      0.0418                 0.1296                 0.0833
 IR Inten    --      1.6085                 6.8412                21.8885

                     10                     11                     12
                      A                      A                      A
 Frequencies --    310.5763               328.5455               353.5669
 Red. masses --      1.6327                 1.1787                 3.5394
 Frc consts  --      0.0928                 0.0750                 0.2607
 IR Inten    --     14.0124                24.2617                 8.5489

                     13                     14                     15
                      A                      A                      A
 Frequencies --    380.0543               390.4638               415.3648
 Red. masses --      1.9517                 2.4367                 2.1675
 Frc consts  --      0.1661                 0.2189                 0.2203
 IR Inten    --      3.7211                 4.0592                 1.4782

                     16                     17                     18
                      A                      A                      A
 Frequencies --    450.7405               475.6159               488.8500
 Red. masses --      2.4841                 1.5976                 2.4362
 Frc consts  --      0.2974                 0.2129                 0.3430
 IR Inten    --     26.3595                60.1869                21.2709

                     19                     20                     21
                      A                      A                      A
 Frequencies --    582.6374               636.3070               660.0632
 Red. masses --      3.3188                 1.7273                 2.3527
 Frc consts  --      0.6638                 0.4121                 0.6039
 IR Inten    --     15.7124               163.2322                86.9796

                     22                     23                     24
                      A                      A                      A
 Frequencies --    729.7830               771.8418               789.5717
 Red. masses --      5.1487                 3.7022                 4.7679
 Frc consts  --      1.6156                 1.2995                 1.7513
 IR Inten    --     24.1515                 3.5682                51.0296

                     25                     26                     27
                      A                      A                      A
 Frequencies --    847.3873               888.9112               927.6772
 Red. masses --      2.6265                 2.8570                 1.8323
 Frc consts  --      1.1112                 1.3301                 0.9291
 IR Inten    --      4.9569                19.9985                 9.2170

                     28                     29                     30
                      A                      A                      A
 Frequencies --    947.0524               951.3380               976.3596
 Red. masses --      1.2545                 1.4552                 1.4543
 Frc consts  --      0.6629                 0.7760                 0.8168
 IR Inten    --      9.3121               115.6425                 9.8412

                     31                     32                     33
                      A                      A                      A
 Frequencies --   1026.6412              1032.5793              1080.6149
 Red. masses --      2.3786                 6.5056                 4.1665
 Frc consts  --      1.4771                 4.0868                 2.8666
 IR Inten    --     69.7359                 2.6716                34.8493

                     34                     35                     36
                      A                      A                      A
 Frequencies --   1085.1108              1103.1349              1125.5732
 Red. masses --      1.4514                 1.6774                 1.7493
 Frc consts  --      1.0069                 1.2026                 1.3058
 IR Inten    --      5.8243                30.8671                18.8208

                     37                     38                     39
                      A                      A                      A
 Frequencies --   1149.3057              1184.4413              1205.2987
 Red. masses --      2.0131                 4.5358                 1.7388
 Frc consts  --      1.5667                 3.7492                 1.4883
 IR Inten    --      1.4350                 4.4905                 7.7585

                     40                     41                     42
                      A                      A                      A
 Frequencies --   1240.5927              1258.3013              1287.1905
 Red. masses --      1.5078                 1.4865                 1.4989
 Frc consts  --      1.3672                 1.3867                 1.4632
 IR Inten    --      9.9087                 2.0883                14.5394

                     43                     44                     45
                      A                      A                      A
 Frequencies --   1320.4236              1371.6317              1385.7274
 Red. masses --      1.4147                 1.3706                 1.5176
 Frc consts  --      1.4532                 1.5193                 1.7170
 IR Inten    --      4.9461                 0.8890                10.4726

                     46                     47                     48
                      A                      A                      A
 Frequencies --   1401.2105              1423.0608              1432.0177
 Red. masses --      1.4342                 1.2814                 2.8488
 Frc consts  --      1.6590                 1.5290                 3.4420
 IR Inten    --     36.8076                 7.6162                26.2426

                     49                     50                     51
                      A                      A                      A
 Frequencies --   1435.8485              1451.3461              1492.4104
 Red. masses --      1.3341                 1.3145                 2.2150
 Frc consts  --      1.6206                 1.6314                 2.9067
 IR Inten    --      5.3259                 6.9137                71.5496

                     52                     53                     54
                      A                      A                      A
 Frequencies --   1515.0492              1518.8455              1524.2518
 Red. masses --      1.4176                 1.0584                 1.0688
 Frc consts  --      1.9171                 1.4385                 1.4631
 IR Inten    --     32.8587                 4.4760                 9.5154

                     55                     56                     57
                      A                      A                      A
 Frequencies --   1537.8267              1547.9364              1585.1250
 Red. masses --      1.0556                 1.0538                 3.4129
 Frc consts  --      1.4709                 1.4878                 5.0524
 IR Inten    --      0.8176                 6.9847                15.8595

                     58                     59                     60
                      A                      A                      A
 Frequencies --   1605.0109              1679.3884              1714.8725
 Red. masses --      3.7835                 1.5067                 1.0856
 Frc consts  --      5.7425                 2.5037                 1.8810
 IR Inten    --    116.3484               209.6334                20.0396

                     61                     62                     63
                      A                      A                      A
 Frequencies --   3019.2932              3031.7893              3038.0451
 Red. masses --      1.0814                 1.0787                 1.0416
 Frc consts  --      5.8080                 5.8419                 5.6644
 IR Inten    --      2.0427                16.7959                25.9821

                     64                     65                     66
                      A                      A                      A
 Frequencies --   3044.4234              3052.4033              3092.4771
 Red. masses --      1.0459                 1.0640                 1.1005
 Frc consts  --      5.7117                 5.8410                 6.2006
 IR Inten    --     46.2257                53.6365                29.9139

                     67                     68                     69
                      A                      A                      A
 Frequencies --   3098.4251              3108.1691              3120.6159
 Red. masses --      1.0989                 1.0978                 1.1005
 Frc consts  --      6.2159                 6.2483                 6.3143
 IR Inten    --     16.6255                59.8679                47.7847

                     70                     71                     72
                      A                      A                      A
 Frequencies --   3159.0888              3443.9748              3529.9260
 Red. masses --      1.0979                 1.0506                 1.0909
 Frc consts  --      6.4554                 7.3422                 8.0087
 IR Inten    --     10.8966                17.9896                12.3269

                     73                     74                     75
                      A                      A                      A
 Frequencies --   3562.4531              3664.4842              3668.0618
 Red. masses --      1.0473                 1.0818                 1.0987
 Frc consts  --      7.8313                 8.5586                 8.7094
 IR Inten    --     22.9425                53.8354                25.7049

 - Thermochemistry -
 -------------------
 Temperature   298.150 Kelvin.  Pressure   1.00000 Atm.
 Atom     1 has atomic number  6 and mass  12.00000

 Molecular mass:   169.13275 amu.
 Principal axes and moments of inertia in atomic units:
                           1         2         3
     Eigenvalues --  1147.756303206.193793458.82784
           X            0.99985   0.01598  -0.00705
           Y           -0.01599   0.99987  -0.00084
           Z            0.00704   0.00096   0.99997
 This molecule is an asymmetric top.
 Rotational symmetry number  1.
 Warning -- assumption of classical behavior for rotation
           may cause significant error
 Rotational temperatures (Kelvin)      0.07546     0.02701     0.02504
 Rotational constants (GHZ):           1.57241     0.56289     0.52178
 Zero-point vibrational energy     623118.8 (Joules/Mol)
                                  148.92896 (Kcal/Mol)
 Warning -- explicit consideration of  19 degrees of freedom as
           vibrations may cause significant error
 Vibrational temperatures:     55.76    85.31   114.71   189.31   276.81
          (Kelvin)            322.75   341.24   383.38   418.00   446.85
                              472.70   508.70   546.81   561.79   597.62
                              648.51   684.31   703.35   838.29   915.50
                              949.68  1050.00  1110.51  1136.02  1219.20
                             1278.94  1334.72  1362.60  1368.76  1404.76
                             1477.11  1485.65  1554.76  1561.23  1587.17
                             1619.45  1653.59  1704.15  1734.16  1784.94
                             1810.41  1851.98  1899.80  1973.47  1993.75
                             2016.03  2047.47  2060.35  2065.87  2088.16
                             2147.25  2179.82  2185.28  2193.06  2212.59
                             2227.14  2280.64  2309.25  2416.27  2467.32
                             4344.09  4362.07  4371.07  4380.25  4391.73
                             4449.38  4457.94  4471.96  4489.87  4545.22
                             4955.11  5078.78  5125.58  5272.38  5277.52

 Zero-point correction=                           0.237333 (Hartree/Particle)
 Thermal correction to Energy=                    0.249987
 Thermal correction to Enthalpy=                  0.250931
 Thermal correction to Gibbs Free Energy=         0.198475
 Sum of electronic and zero-point Energies=           -549.339811
 Sum of electronic and thermal Energies=              -549.327157
 Sum of electronic and thermal Enthalpies=            -549.326213
 Sum of electronic and thermal Free Energies=         -549.378669

                     E (Thermal)             CV                S
                      KCal/Mol        Cal/Mol-Kelvin    Cal/Mol-Kelvin
 Total                  156.869             48.210            110.403
 Electronic               0.000              0.000              0.000
 Translational            0.889              2.981             41.284
 Rotational               0.889              2.981             30.921
 Vibrational            155.092             42.249             38.197
 Vibration     1          0.594              1.981              5.322
 Vibration     2          0.597              1.974              4.481
 Vibration     3          0.600              1.963              3.898
 Vibration     4          0.612              1.922              2.923
 Vibration     5          0.634              1.850              2.205
 Vibration     6          0.649              1.804              1.924
 Vibration     7          0.656              1.784              1.824
 Vibration     8          0.672              1.735              1.619
 Vibration     9          0.686              1.691              1.471
 Vibration    10          0.699              1.654              1.359
 Vibration    11          0.712              1.618              1.267
 Vibration    12          0.730              1.568              1.150
 Vibration    13          0.750              1.513              1.039
 Vibration    14          0.758              1.491              0.998
 Vibration    15          0.779              1.437              0.908
 Vibration    16          0.810              1.359              0.794
 Vibration    17          0.832              1.304              0.722
 Vibration    18          0.845              1.275              0.687
 Vibration    19          0.939              1.069              0.480

                           ! Non-Optimized Parameters !

 1\1\GINC-NODE226\Freq\RB3LYP\6-31G(d)\C7H15N5\VSC10255\09-Dec-2020\0\\
 #N Geom=AllCheck Guess=TCheck SCRF=Check GenChk RB3LYP/6-31G(d) Freq\\
 CID_81984278_JID_2802_neutraal\\0,1\C,0.9841461324,-0.2125166919,0.038
 9385765\C,0.3551434542,-1.1170400442,1.1073860678\C,0.8434468447,-0.71
 05134352,2.5031132032\C,-1.1888456256,-1.1117974891,1.0535838406\C,-1.
 7519582186,-1.3764035684,-0.3759658058\C,-1.286286107,-2.6747046833,-0
 .9473688822\N,-1.4091032053,-3.8757985956,-0.3849602724\C,-0.786032979
 3,-4.7082640319,-1.2767096134\N,-0.2951774166,-4.1144126617,-2.3596092

 Normal termination of Gaussian 16 at Wed Dec  9 18:08:22 2020.

 ----------------------------------------------------------------------
 # B3LYP/6-311++G(d,p) empiricaldispersion=gd3bj scf=xqc pop=npa geom=c
 heck
 ----------------------------------------------------------------------

 --------------------------------------
 CID_81984278_JID_2802_Energie_neutraal
 --------------------------------------
 Structure from the checkpoint file:  "JID_2802.chk"
 Charge =  0 Multiplicity = 1

 SCF Done:  E(RB3LYP) =  -549.746337455     A.U. after   14 cycles
 Normal termination of Gaussian 16 at Wed Dec  9 18:11:31 2020.

 ----------------------------------------------------------------------
 # B3LYP/6-311++G(d,p) empiricaldispersion=gd3bj scf=xqc pop=npa geom=c
 heck
 ----------------------------------------------------------------------

 ------------------------------------
 CID_81984278_JID_2802_Energie_kation
 ------------------------------------
 Structure from the checkpoint file:  "JID_2802.chk"
 Charge =  1 Multiplicity = 2

 SCF Done:  E(UB3LYP) =  -549.451243869     A.U. after   23 cycles
 Normal termination of Gaussian 16 at Wed Dec  9 18:18:16 2020.
 Gaussian 16:  ES64L-G16RevA.03 25-Dec-2016

 -----------------------------------
 CID_81984278_JID_2802_Energie_anion
 -----------------------------------
 Structure from the checkpoint file:  "JID_2802.chk"
 Charge = -1 Multiplicity = 2

                         Standard orientation:
 ---------------------------------------------------------------------
 Center     Atomic      Atomic             Coordinates (Angstroms)
 Number     Number       Type             X           Y           Z
 ---------------------------------------------------------------------
      1          6           0        2.135309    1.696919   -0.547725
      2          6           0        1.944973    0.176192   -0.628653
      3          6           0        3.169163   -0.479248   -1.279434
      4          6           0        1.662428   -0.459558    0.750773
      5          6           0        0.518248    0.256196    1.531332
      6          6           0       -0.768499    0.279367    0.774575
      7          7           0       -1.407863   -0.774059    0.269082
      8          6           0       -2.488704   -0.216151   -0.360960
      9          7           0       -2.575490    1.107155   -0.273772
     10          7           0       -1.448524    1.398282    0.452752
     11          7           0       -3.386022   -0.983803   -1.078609
     12          7           0        1.422716   -1.895481    0.586098
     13          1           0        2.920589    1.957454    0.174320
     14          1           0        1.218759    2.219862   -0.256398
     15          1           0        2.438675    2.095816   -1.521712
     16          1           0        1.070047   -0.026609   -1.263509
     17          1           0        4.077835   -0.253724   -0.705015
     18          1           0        3.052437   -1.563996   -1.313698
     19          1           0        3.316879   -0.100582   -2.297344
     20          1           0        2.570059   -0.346713    1.360863
     21          1           0        0.368829   -0.280540    2.476636
     22          1           0        0.804816    1.280749    1.793395
     23          1           0       -1.238930    2.357602    0.684231
     24          1           0       -3.463718   -1.930727   -0.730139
     25          1           0       -4.284705   -0.537065   -1.210614
     26          1           0        1.383458   -2.340023    1.502407
     27          1           0        0.493734   -2.018474    0.178263
 ---------------------------------------------------------------------

 SCF Done:  E(UB3LYP) =  -549.734090528     A.U. after   30 cycles

 The electronic state is 2-A.
 Alpha  occ. eigenvalues --  -14.28039 -14.22153 -14.22042 -14.19569 -14.18179
 Alpha  occ. eigenvalues --  -10.14868 -10.14104 -10.09996 -10.07781 -10.07128
 Alpha  occ. eigenvalues --  -10.05567 -10.05364  -0.96738  -0.82686  -0.79409
 Alpha  occ. eigenvalues --   -0.77506  -0.71605  -0.68902  -0.63555  -0.58057
 Alpha  occ. eigenvalues --   -0.54453  -0.51599  -0.50258  -0.46932  -0.44186
 Alpha  occ. eigenvalues --   -0.39803  -0.38069  -0.37348  -0.36430  -0.35962
 Alpha  occ. eigenvalues --   -0.33586  -0.33325  -0.31840  -0.29859  -0.28596
 Alpha  occ. eigenvalues --   -0.27871  -0.26556  -0.24308  -0.23485  -0.23392
 Alpha  occ. eigenvalues --   -0.22915  -0.21548  -0.18165  -0.17928  -0.13926
 Alpha  occ. eigenvalues --   -0.11997   0.04487
 Alpha virt. eigenvalues --    0.06209   0.07411   0.07859   0.09115   0.10050
 Alpha virt. eigenvalues --    0.10246   0.10650   0.11176   0.11651   0.11983
 Alpha virt. eigenvalues --    0.12850   0.13486   0.14232   0.14529   0.15274

  Beta  occ. eigenvalues --  -14.27990 -14.22120 -14.22034 -14.19554 -14.18168
  Beta  occ. eigenvalues --  -10.14868 -10.14099 -10.09985 -10.07743 -10.07123
  Beta  occ. eigenvalues --  -10.05533 -10.05357  -0.96707  -0.82636  -0.79379
  Beta  occ. eigenvalues --   -0.77471  -0.71540  -0.68875  -0.63492  -0.58008
  Beta  occ. eigenvalues --   -0.54404  -0.51517  -0.50216  -0.46880  -0.44123
  Beta  occ. eigenvalues --   -0.39739  -0.38034  -0.37295  -0.36390  -0.35929
  Beta  occ. eigenvalues --   -0.33552  -0.33292  -0.31789  -0.29821  -0.28563
  Beta  occ. eigenvalues --   -0.27843  -0.26520  -0.24275  -0.23448  -0.23355
  Beta  occ. eigenvalues --   -0.22882  -0.21521  -0.18143  -0.17897  -0.13904
  Beta  occ. eigenvalues --   -0.11962
  Beta virt. eigenvalues --    0.06898   0.07366   0.08101   0.08710   0.09628
  Beta virt. eigenvalues --    0.10391   0.10666   0.11100   0.11570   0.11866
  Beta virt. eigenvalues --    0.12418   0.13079   0.13708   0.14650   0.14745

 Mulliken charges and spin densities:
               1          2
     1  C    1.050028  -1.780712
     2  C   -0.704038   1.023489
     3  C   -0.686147   0.256563
     4  C    0.303992  -0.538048
     5  C    3.070913  -4.284772
     6  C   -0.417817   0.413018
     7  N   -0.206259   0.091644
     8  C   -1.057587   1.367351
     9  N    0.121390  -0.269933
    10  N   -0.245037   0.218963
    11  N   -0.466818   0.142344
    12  N   -0.290590  -0.014392
    13  H   -0.243670   0.400393
    14  H   -0.276585   0.388649
    15  H    0.045815   0.079015
    16  H    0.141578   0.041772
    17  H    0.055731   0.058968
    18  H    0.103951   0.072471
    19  H    0.063367   0.057159
    20  H   -0.145876   0.361285
    21  H   -0.461387   0.674888
    22  H   -0.562108   0.730171
    23  H   -0.331212   0.661514
    24  H   -0.039716   0.290632
    25  H   -0.190547   0.446173
    26  H    0.113126   0.110869
    27  H    0.255503   0.000525
 Sum of Mulliken charges =  -1.00000   1.00000

 Dipole moment (field-independent basis, Debye):
    X=              1.2945    Y=             -3.0438    Z=             -2.6986  Tot=              4.2688
 Quadrupole moment (field-independent basis, Debye-Ang):
   XX=           -128.6101   YY=           -118.5720   ZZ=           -110.0209
   XY=             -0.6013   XZ=             -7.7439   YZ=             -7.0501

 Summary of Natural Population Analysis:

                                       Natural Population
                Natural  -----------------------------------------------
    Atom  No    Charge         Core      Valence    Rydberg      Total
 -----------------------------------------------------------------------
      C    1   -0.28443      0.99965     2.27867    0.00611     3.28443
      C    2   -0.11849      0.99959     2.10941    0.00949     3.11849
      C    3   -0.28339      0.99965     2.27893    0.00481     3.28339
      C    4   -0.00334      0.99958     1.98959    0.01417     3.00334
      C    5   -0.22226      0.99957     2.21079    0.01189     3.22226
      C    6    0.20610      0.99962     1.77694    0.01734     2.79390
      N    7   -0.30005      0.99966     2.79104    0.00935     3.80005
      C    8    0.25814      0.99965     1.72319    0.01901     2.74186
      N    9   -0.19653      0.99969     2.68459    0.01225     3.69653
      N   10   -0.17750      0.99963     2.66531    0.01256     3.67750
      N   11   -0.40332      0.99971     2.89364    0.00997     3.90332
      N   12   -0.42973      0.99977     2.92047    0.00950     3.92973
      H   13    0.09755      0.00000     0.40119    0.00125     0.40245
      H   14    0.10028      0.00000     0.39797    0.00175     0.39972
      H   15    0.09742      0.00000     0.40177    0.00081     0.40258
      H   16    0.09593      0.00000     0.40210    0.00197     0.40407
      H   17    0.09334      0.00000     0.40581    0.00084     0.40666
      H   18    0.11038      0.00000     0.38860    0.00102     0.38962
      H   19    0.09317      0.00000     0.40611    0.00072     0.40683
      H   20    0.09099      0.00000     0.40719    0.00183     0.40901
      H   21    0.11281      0.00000     0.38497    0.00222     0.38719
      H   22    0.11471      0.00000     0.38074    0.00456     0.38529
      H   23    0.20860      0.00000     0.28396    0.00744     0.29140
      H   24    0.19049      0.00000     0.30751    0.00201     0.30951
      H   25    0.19031      0.00000     0.30748    0.00221     0.30969
      H   26    0.17237      0.00000     0.32595    0.00168     0.32763
      H   27    0.18645      0.00000     0.31075    0.00280     0.31355
 =======================================================================
   * Total *    0.00000     11.99578    33.83468    0.16955    46.00000

 Normal termination of Gaussian 16 at Wed Dec  9 18:26:51 2020.
