 Gaussian 16, Revision A.03,

 -----------------------------------------------------------
 # opt freq B3LYP/6-31G(d) empiricaldispersion=gd3bj scf=xqc
 -----------------------------------------------------------

 -------------------------------
 CID_115225544_JID_7178_neutraal
 -------------------------------
 Symbolic Z-matrix:
 Charge =  0 Multiplicity = 1

 SCF Done:  E(RB3LYP) =  -727.879418602     A.U. after   14 cycles
 SCF Done:  E(RB3LYP) =  -727.885748538     A.U. after   12 cycles
 SCF Done:  E(RB3LYP) =  -727.886572168     A.U. after   12 cycles
 SCF Done:  E(RB3LYP) =  -727.887000000     A.U. after   12 cycles
 SCF Done:  E(RB3LYP) =  -727.887316019     A.U. after   12 cycles
 SCF Done:  E(RB3LYP) =  -727.887469638     A.U. after   11 cycles
 SCF Done:  E(RB3LYP) =  -727.887633515     A.U. after   11 cycles
 SCF Done:  E(RB3LYP) =  -727.887720128     A.U. after   11 cycles
 SCF Done:  E(RB3LYP) =  -727.887746116     A.U. after   10 cycles
 SCF Done:  E(RB3LYP) =  -727.887806148     A.U. after   11 cycles
 SCF Done:  E(RB3LYP) =  -727.888092280     A.U. after   10 cycles
 SCF Done:  E(RB3LYP) =  -727.888094017     A.U. after   10 cycles
 SCF Done:  E(RB3LYP) =  -727.888094044     A.U. after    7 cycles
 SCF Done:  E(RB3LYP) =  -727.888094069     A.U. after    7 cycles
 SCF Done:  E(RB3LYP) =  -727.888094078     A.U. after    7 cycles
 Optimization completed.
    -- Stationary point found.
 Normal termination of Gaussian 16 at Sun Dec 13 20:28:32 2020.

 --------------------------------------------------------------------
 #N Geom=AllCheck Guess=TCheck SCRF=Check GenChk RB3LYP/6-31G(d) Freq
 --------------------------------------------------------------------

 Structure from the checkpoint file:  "JID_7178.chk"
 -------------------------------
 CID_115225544_JID_7178_neutraal
 -------------------------------
 Charge =  0 Multiplicity = 1

 SCF Done:  E(RB3LYP) =  -727.888094078     A.U. after    1 cycles

  Exact polarizability: 246.168  -3.074 133.865 -14.331  -4.088 115.906
 Approx polarizability: 323.186  -2.996 222.481 -28.662 -10.886 192.094

                      1                      2                      3
                      A                      A                      A
 Frequencies --     10.3877                35.9273                39.7533
 Red. masses --      4.6110                 3.6878                 4.6150
 Frc consts  --      0.0003                 0.0028                 0.0043
 IR Inten    --      0.5831                 0.2002                 1.1807

                      4                      5                      6
                      A                      A                      A
 Frequencies --     68.9806                97.9966               117.1658
 Red. masses --      3.4105                 3.4101                 3.7135
 Frc consts  --      0.0096                 0.0193                 0.0300
 IR Inten    --      0.3317                 0.7216                 5.1520

                      7                      8                      9
                      A                      A                      A
 Frequencies --    176.2317               207.9061               229.4695
 Red. masses --      3.8615                 2.8850                 2.1043
 Frc consts  --      0.0707                 0.0735                 0.0653
 IR Inten    --      1.6326                 5.5070                 1.4866

                     10                     11                     12
                      A                      A                      A
 Frequencies --    243.0448               258.8478               276.5319
 Red. masses --      1.3485                 2.7637                 1.7474
 Frc consts  --      0.0469                 0.1091                 0.0787
 IR Inten    --     22.7271                 8.1898                 6.6151

                     13                     14                     15
                      A                      A                      A
 Frequencies --    335.4613               395.7603               416.8389
 Red. masses --      4.7631                 4.1672                 4.0378
 Frc consts  --      0.3158                 0.3846                 0.4134
 IR Inten    --      2.4896                 5.7434                 1.7085

                     16                     17                     18
                      A                      A                      A
 Frequencies --    423.5737               429.3331               439.0674
 Red. masses --      3.1601                 3.4777                 3.4796
 Frc consts  --      0.3341                 0.3777                 0.3952
 IR Inten    --      0.4994                 0.1342                 0.5945

                     19                     20                     21
                      A                      A                      A
 Frequencies --    509.8152               521.0270               545.5871
 Red. masses --      3.1745                 3.0620                 3.3028
 Frc consts  --      0.4861                 0.4898                 0.5793
 IR Inten    --      4.5605                 9.1943                21.0132

                     22                     23                     24
                      A                      A                      A
 Frequencies --    552.8600               610.8087               630.1880
 Red. masses --      4.4184                 3.5868                 6.2916
 Frc consts  --      0.7957                 0.7884                 1.4721
 IR Inten    --      5.3497                 1.2074                 2.2480

                     25                     26                     27
                      A                      A                      A
 Frequencies --    658.5932               701.3665               708.1794
 Red. masses --      6.9504                 2.6718                 4.0471
 Frc consts  --      1.7762                 0.7744                 1.1959
 IR Inten    --      0.7744                 9.0462                 3.5959

                     28                     29                     30
                      A                      A                      A
 Frequencies --    742.0246               765.4719               804.4072
 Red. masses --      3.9130                 1.6068                 3.9945
 Frc consts  --      1.2694                 0.5547                 1.5229
 IR Inten    --      7.5004                44.4210                 7.3918

                     31                     32                     33
                      A                      A                      A
 Frequencies --    820.2237               837.6507               861.1004
 Red. masses --      1.3285                 1.2497                 1.7183
 Frc consts  --      0.5266                 0.5166                 0.7507
 IR Inten    --      4.6375                 0.4766                27.3203

                     34                     35                     36
                      A                      A                      A
 Frequencies --    864.4267               890.5389               899.8125
 Red. masses --      1.2941                 4.8316                 1.5332
 Frc consts  --      0.5697                 2.2576                 0.7314
 IR Inten    --    141.1281                53.4067                 8.5536

                     37                     38                     39
                      A                      A                      A
 Frequencies --    935.1215               945.4642               957.7444
 Red. masses --      1.3212                 2.3439                 1.3219
 Frc consts  --      0.6807                 1.2345                 0.7144
 IR Inten    --      1.8500                12.5383                 0.1742

                     40                     41                     42
                      A                      A                      A
 Frequencies --    964.3418               980.4667              1019.2045
 Red. masses --      1.2939                 1.2196                 5.9040
 Frc consts  --      0.7089                 0.6908                 3.6134
 IR Inten    --      0.4058                 0.2778                 0.2867

                     43                     44                     45
                      A                      A                      A
 Frequencies --   1035.3664              1039.6356              1055.6097
 Red. masses --      2.7476                 2.9625                 2.0648
 Frc consts  --      1.7354                 1.8865                 1.3556
 IR Inten    --      2.3604                21.5802                 6.1306

                     46                     47                     48
                      A                      A                      A
 Frequencies --   1095.0494              1111.8866              1147.3152
 Red. masses --      1.7417                 1.4833                 1.6581
 Frc consts  --      1.2305                 1.0805                 1.2860
 IR Inten    --     45.1258                 5.6804                16.3194

                     49                     50                     51
                      A                      A                      A
 Frequencies --   1151.9590              1158.8178              1188.9461
 Red. masses --      1.4872                 1.3286                 1.1063
 Frc consts  --      1.1628                 1.0512                 0.9214
 IR Inten    --     22.7774                21.6031                 2.3027

                     52                     53                     54
                      A                      A                      A
 Frequencies --   1199.3494              1205.2860              1230.6514
 Red. masses --      1.2197                 1.2306                 1.6257
 Frc consts  --      1.0337                 1.0533                 1.4507
 IR Inten    --      8.8520                 8.0877                41.4171

                     55                     56                     57
                      A                      A                      A
 Frequencies --   1248.4239              1283.5959              1287.2619
 Red. masses --      2.4494                 2.5409                 4.1860
 Frc consts  --      2.2492                 2.4665                 4.0868
 IR Inten    --      5.7462                46.9475               578.2408

                     58                     59                     60
                      A                      A                      A
 Frequencies --   1325.4709              1339.9516              1350.5997
 Red. masses --      1.7746                 1.7855                 1.6498
 Frc consts  --      1.8369                 1.8889                 1.7732
 IR Inten    --     28.0318                 0.1118                 5.3635

                     61                     62                     63
                      A                      A                      A
 Frequencies --   1369.6491              1373.8688              1405.2531
 Red. masses --      2.8448                 3.6690                 2.0728
 Frc consts  --      3.1443                 4.0802                 2.4117
 IR Inten    --     37.3940                 4.0464                90.3670

                     64                     65                     66
                      A                      A                      A
 Frequencies --   1458.2201              1482.0268              1497.9641
 Red. masses --      1.4121                 2.3926                 1.1961
 Frc consts  --      1.7692                 3.0962                 1.5813
 IR Inten    --     29.1519                21.8440                26.6196

                     67                     68                     69
                      A                      A                      A
 Frequencies --   1506.7845              1517.5152              1541.0006
 Red. masses --      2.3485                 1.0593                 1.7201
 Frc consts  --      3.1415                 1.4372                 2.4066
 IR Inten    --      0.6279                24.0009               260.0884

                     70                     71                     72
                      A                      A                      A
 Frequencies --   1544.6187              1557.7516              1570.6156
 Red. masses --      1.3792                 1.1309                 2.0280
 Frc consts  --      1.9388                 1.6168                 2.9475
 IR Inten    --     13.9250                 0.3556               258.8876

                     73                     74                     75
                      A                      A                      A
 Frequencies --   1631.2459              1650.1083              1662.4965
 Red. masses --      6.8008                 6.1351                 5.6810
 Frc consts  --     10.6623                 9.8423                 9.2511
 IR Inten    --      9.9380                17.7355                51.3456

                     76                     77                     78
                      A                      A                      A
 Frequencies --   1673.9330              1679.5800              2983.6539
 Red. masses --      1.1051                 5.5840                 1.0563
 Frc consts  --      1.8244                 9.2810                 5.5404
 IR Inten    --     43.0776                45.9470                29.5105

                     79                     80                     81
                      A                      A                      A
 Frequencies --   2992.7340              3034.4432              3082.7262
 Red. masses --      1.0639                 1.1003                 1.0810
 Frc consts  --      5.6140                 5.9693                 6.0525
 IR Inten    --    151.1023                35.1122                35.8387

                     82                     83                     84
                      A                      A                      A
 Frequencies --   3139.2288              3183.3360              3191.4883
 Red. masses --      1.0996                 1.0851                 1.0895
 Frc consts  --      6.3845                 6.4788                 6.5383
 IR Inten    --     27.3473                 2.2281                18.1108

                     85                     86                     87
                      A                      A                      A
 Frequencies --   3206.7772              3208.0641              3209.0520
 Red. masses --      1.0899                 1.0936                 1.0894
 Frc consts  --      6.6035                 6.6310                 6.6097
 IR Inten    --     13.7143                34.5686                 7.4919

                     88                     89                     90
                      A                      A                      A
 Frequencies --   3217.7955              3229.8535              3232.6272
 Red. masses --      1.0951                 1.0922                 1.0917
 Frc consts  --      6.6805                 6.7128                 6.7216
 IR Inten    --     12.3644                 3.4824                12.8555

                     91                     92                     93
                      A                      A                      A
 Frequencies --   3236.3703              3459.6347              3554.5226
 Red. masses --      1.0925                 1.0492                 1.0931
 Frc consts  --      6.7417                 7.3992                 8.1375
 IR Inten    --      1.4008                 2.9354                 1.0052

 - Thermochemistry -
 -------------------
 Temperature   298.150 Kelvin.  Pressure   1.00000 Atm.
 Atom     1 has atomic number  6 and mass  12.00000

 Molecular mass:   228.12626 amu.
 Principal axes and moments of inertia in atomic units:
                           1         2         3
     Eigenvalues --  1428.066199262.653069668.95874
           X            0.99999  -0.00021  -0.00343
           Y            0.00033   0.99943   0.03371
           Z            0.00342  -0.03371   0.99943
 This molecule is an asymmetric top.
 Rotational symmetry number  1.
 Warning -- assumption of classical behavior for rotation
           may cause significant error
 Rotational temperatures (Kelvin)      0.06065     0.00935     0.00896
 Rotational constants (GHZ):           1.26377     0.19484     0.18665
 Zero-point vibrational energy     727741.1 (Joules/Mol)
                                  173.93431 (Kcal/Mol)
 Warning -- explicit consideration of  23 degrees of freedom as
           vibrations may cause significant error
 Vibrational temperatures:     14.95    51.69    57.20    99.25   141.00
          (Kelvin)            168.58   253.56   299.13   330.16   349.69
                              372.42   397.87   482.65   569.41   599.74
                              609.43   617.71   631.72   733.51   749.64
                              784.98   795.44   878.82   906.70   947.57
                             1009.11  1018.91  1067.61  1101.34  1157.36
                             1180.12  1205.19  1238.93  1243.72  1281.29
                             1294.63  1345.43  1360.31  1377.98  1387.47
                             1410.67  1466.41  1489.66  1495.80  1518.79
                             1575.53  1599.76  1650.73  1657.41  1667.28
                             1710.63  1725.60  1734.14  1770.63  1796.20
                             1846.81  1852.08  1907.06  1927.89  1943.21
                             1970.62  1976.69  2021.85  2098.05  2132.31
                             2155.24  2167.93  2183.37  2217.16  2222.36
                             2241.26  2259.77  2347.00  2374.14  2391.96
                             2408.42  2416.54  4292.81  4305.88  4365.89
                             4435.36  4516.65  4580.11  4591.84  4613.84
                             4615.69  4617.11  4629.69  4647.04  4651.03
                             4656.42  4977.64  5114.17

 Zero-point correction=                           0.277182 (Hartree/Particle)
 Thermal correction to Energy=                    0.292564
 Thermal correction to Enthalpy=                  0.293508
 Thermal correction to Gibbs Free Energy=         0.232043
 Sum of electronic and zero-point Energies=           -727.610912
 Sum of electronic and thermal Energies=              -727.595530
 Sum of electronic and thermal Enthalpies=            -727.594586
 Sum of electronic and thermal Free Energies=         -727.656051

                     E (Thermal)             CV                S
                      KCal/Mol        Cal/Mol-Kelvin    Cal/Mol-Kelvin
 Total                  183.586             59.528            129.363
 Electronic               0.000              0.000              0.000
 Translational            0.889              2.981             42.176
 Rotational               0.889              2.981             33.214
 Vibrational            181.809             53.566             53.973
 Vibration     1          0.593              1.987              7.935
 Vibration     2          0.594              1.982              5.472
 Vibration     3          0.594              1.981              5.271
 Vibration     4          0.598              1.969              4.182
 Vibration     5          0.603              1.951              3.494
 Vibration     6          0.608              1.935              3.147
 Vibration     7          0.628              1.872              2.368
 Vibration     8          0.641              1.829              2.062
 Vibration     9          0.652              1.796              1.883
 Vibration    10          0.659              1.774              1.780
 Vibration    11          0.668              1.748              1.670
 Vibration    12          0.678              1.717              1.555
 Vibration    13          0.717              1.605              1.234
 Vibration    14          0.762              1.479              0.978
 Vibration    15          0.780              1.434              0.903
 Vibration    16          0.786              1.419              0.880
 Vibration    17          0.791              1.406              0.861
 Vibration    18          0.799              1.385              0.830
 Vibration    19          0.865              1.228              0.634
 Vibration    20          0.876              1.203              0.608
 Vibration    21          0.901              1.149              0.553
 Vibration    22          0.908              1.133              0.538
 Vibration    23          0.970              1.009              0.431

 Optimization completed.
    -- Stationary point found.
 Normal termination of Gaussian 16 at Sun Dec 13 20:39:13 2020.

 ----------------------------------------------------------------------
 # B3LYP/6-311++G(d,p) empiricaldispersion=gd3bj scf=xqc pop=npa geom=c
 heck
 ----------------------------------------------------------------------

 ---------------------------------------
 CID_115225544_JID_7178_Energie_neutraal
 ---------------------------------------
 Structure from the checkpoint file:  "JID_7178.chk"
 Charge =  0 Multiplicity = 1

 SCF Done:  E(RB3LYP) =  -728.088802770     A.U. after   15 cycles
 Normal termination of Gaussian 16 at Sun Dec 13 20:44:33 2020.

 ----------------------------------------------------------------------
 # B3LYP/6-311++G(d,p) empiricaldispersion=gd3bj scf=xqc pop=npa geom=c
 heck
 ----------------------------------------------------------------------

 -------------------------------------
 CID_115225544_JID_7178_Energie_kation
 -------------------------------------
 Structure from the checkpoint file:  "JID_7178.chk"
 Charge =  1 Multiplicity = 2

 SCF Done:  E(UB3LYP) =  -727.831309959     A.U. after   22 cycles
 Normal termination of Gaussian 16 at Sun Dec 13 20:55:59 2020.
 Gaussian 16:  ES64L-G16RevA.03 25-Dec-2016

 ----------------------------------------------------------------------
 # B3LYP/6-311++G(d,p) empiricaldispersion=gd3bj scf=xqc pop=npa geom=c
 heck
 ----------------------------------------------------------------------

 ------------------------------------
 CID_115225544_JID_7178_Energie_anion
 ------------------------------------
 Structure from the checkpoint file:  "JID_7178.chk"
 Charge = -1 Multiplicity = 2

                         Standard orientation:
 ---------------------------------------------------------------------
 Center     Atomic      Atomic             Coordinates (Angstroms)
 Number     Number       Type             X           Y           Z
 ---------------------------------------------------------------------
      1          6           0       -4.355902    1.123418    1.015173
      2          7           0       -3.609209    0.107004    0.298727
      3          6           0       -4.084309   -1.260459    0.378603
      4          7           0       -4.382677   -1.798120   -0.950980
      5          6           0       -2.260051    0.342475    0.006505
      6          6           0       -1.503411   -0.616213   -0.702359
      7          6           0       -0.161693   -0.394470   -0.985397
      8          6           0        0.457177    0.787456   -0.577015
      9          6           0       -0.271883    1.748814    0.110536
     10          6           0       -1.618869    1.532063    0.400800
     11          8           0        1.779210    1.052270   -0.912686
     12          6           0        2.776314    0.327542   -0.300966
     13          6           0        4.049665    0.440476   -0.867665
     14          6           0        5.121700   -0.237548   -0.294611
     15          6           0        4.934488   -1.032050    0.839683
     16          6           0        3.660200   -1.136032    1.396454
     17          6           0        2.575233   -0.459855    0.835902
     18          1           0       -5.405639    0.825915    1.067363
     19          1           0       -4.307524    2.079223    0.482336
     20          1           0       -3.992804    1.289540    2.043308
     21          1           0       -3.317159   -1.909186    0.825583
     22          1           0       -4.947309   -1.261514    1.062417
     23          1           0       -4.741629   -2.748806   -0.866144
     24          1           0       -5.111248   -1.234327   -1.386214
     25          1           0       -1.995895   -1.505559   -1.075830
     26          1           0        0.411200   -1.132099   -1.538850
     27          1           0        0.219801    2.665255    0.420933
     28          1           0       -2.157033    2.293322    0.951878
     29          1           0        4.173874    1.060264   -1.749777
     30          1           0        6.108770   -0.146706   -0.739758
     31          1           0        5.772083   -1.562499    1.282505
     32          1           0        3.501313   -1.747359    2.280810
     33          1           0        1.586766   -0.539505    1.272853
 ---------------------------------------------------------------------

 SCF Done:  E(UB3LYP) =  -728.079029809     A.U. after   33 cycles
 SCF Done:  E(UB3LYP) =  -728.079029809     a.u. after    1 cycles

 The electronic state is 2-A.
 Alpha  occ. eigenvalues --  -19.07436 -14.23411 -14.19565 -10.15650 -10.13250
 Alpha  occ. eigenvalues --  -10.12896 -10.12017 -10.10115 -10.09917 -10.09868
 Alpha  occ. eigenvalues --  -10.09320 -10.09200 -10.09127 -10.08547 -10.08431
 Alpha  occ. eigenvalues --  -10.07971 -10.07545  -0.99299  -0.86194  -0.78067
 Alpha  occ. eigenvalues --   -0.77579  -0.75227  -0.67859  -0.67066  -0.66093
 Alpha  occ. eigenvalues --   -0.64204  -0.60800  -0.56619  -0.53454  -0.52643
 Alpha  occ. eigenvalues --   -0.51983  -0.48521  -0.46278  -0.43821  -0.41831
 Alpha  occ. eigenvalues --   -0.40843  -0.39411  -0.38302  -0.36746  -0.36579
 Alpha  occ. eigenvalues --   -0.36193  -0.34915  -0.34512  -0.33515  -0.32936
 Alpha  occ. eigenvalues --   -0.32402  -0.31002  -0.30629  -0.29496  -0.28883
 Alpha  occ. eigenvalues --   -0.28586  -0.27793  -0.26588  -0.25625  -0.24211
 Alpha  occ. eigenvalues --   -0.19398  -0.18006  -0.16752  -0.15229  -0.14794
 Alpha  occ. eigenvalues --   -0.10578   0.03892
 Alpha virt. eigenvalues --    0.04987   0.05911   0.06675   0.06729   0.07341
 Alpha virt. eigenvalues --    0.07551   0.07974   0.08197   0.08671   0.09201
 Alpha virt. eigenvalues --    0.09303   0.09651   0.10430   0.10855   0.10994

  Beta  occ. eigenvalues --  -19.07436 -14.23412 -14.19517 -10.15647 -10.13238
  Beta  occ. eigenvalues --  -10.12859 -10.12008 -10.10070 -10.09904 -10.09860
  Beta  occ. eigenvalues --  -10.09316 -10.09193 -10.09118 -10.08548 -10.08424
  Beta  occ. eigenvalues --  -10.07951 -10.07542  -0.99293  -0.86171  -0.78027
  Beta  occ. eigenvalues --   -0.77530  -0.75198  -0.67837  -0.67042  -0.66068
  Beta  occ. eigenvalues --   -0.64174  -0.60723  -0.56567  -0.53425  -0.52612
  Beta  occ. eigenvalues --   -0.51946  -0.48484  -0.46255  -0.43788  -0.41803
  Beta  occ. eigenvalues --   -0.40795  -0.39392  -0.38248  -0.36700  -0.36555
  Beta  occ. eigenvalues --   -0.36160  -0.34892  -0.34475  -0.33502  -0.32895
  Beta  occ. eigenvalues --   -0.32348  -0.30973  -0.30592  -0.29470  -0.28850
  Beta  occ. eigenvalues --   -0.28553  -0.27760  -0.26570  -0.25600  -0.24195
  Beta  occ. eigenvalues --   -0.19357  -0.17972  -0.16710  -0.15181  -0.14772
  Beta  occ. eigenvalues --   -0.10539
  Beta virt. eigenvalues --    0.05464   0.05949   0.06477   0.06968   0.07346
  Beta virt. eigenvalues --    0.07410   0.07888   0.08038   0.08658   0.09175
  Beta virt. eigenvalues --    0.09387   0.09439   0.09951   0.10877   0.11123

 Mulliken charges and spin densities:
               1          2
     1  C    0.800533  -1.174242
     2  N   -0.083295   0.244173
     3  C    1.045206  -1.541776
     4  N   -0.474773   0.142160
     5  C   -0.651036   0.060296
     6  C    0.138512  -0.058863
     7  C    0.120931   0.102446
     8  C   -0.338643  -0.324908
     9  C    0.569041  -0.386045
    10  C   -0.179563   0.165354
    11  O   -0.025925  -0.004097
    12  C   -0.265313  -0.086855
    13  C   -1.007608   0.819905
    14  C    0.161691  -0.316475
    15  C    0.387718  -0.682291
    16  C   -0.147868   0.051992
    17  C    0.561230  -0.441562
    18  H   -0.857659   1.021363
    19  H   -0.106719   0.250519
    20  H   -0.112826   0.269532
    21  H   -0.191928   0.364620
    22  H   -0.431387   0.573902
    23  H   -0.221535   0.446904
    24  H   -0.031551   0.266641
    25  H    0.269348  -0.019652
    26  H    0.093309   0.075420
    27  H    0.050290   0.124972
    28  H   -0.008527   0.168796
    29  H    0.109646   0.049484
    30  H   -0.183893   0.346500
    31  H   -0.167659   0.309619
    32  H   -0.113323   0.295044
    33  H    0.293576  -0.112879
 Sum of Mulliken charges =  -1.00000   1.00000

 Dipole moment (field-independent basis, Debye):
    X=              8.5381    Y=              2.2055    Z=             -0.9083  Tot=              8.8650
 Quadrupole moment (field-independent basis, Debye-Ang):
   XX=           -245.2575   YY=           -137.1378   ZZ=           -131.7041
   XY=             -5.9545   XZ=              2.4647   YZ=             -0.2410

 Summary of Natural Population Analysis:

                                       Natural Population
                Natural  -----------------------------------------------
    Atom  No    Charge         Core      Valence    Rydberg      Total
 -----------------------------------------------------------------------
      C    1   -0.17592      0.99964     2.16733    0.00895     3.17592
      N    2   -0.25600      0.99965     2.74349    0.01285     3.75600
      C    3    0.01278      0.99963     1.97287    0.01472     2.98722
      N    4   -0.42657      0.99977     2.91556    0.01124     3.92657
      C    5    0.09575      0.99949     1.89394    0.01083     2.90425
      C    6   -0.11739      0.99953     2.11006    0.00780     3.11739
      C    7   -0.11228      0.99951     2.10455    0.00823     3.11228
      C    8    0.12383      0.99934     1.86415    0.01269     2.87617
      C    9   -0.11114      0.99951     2.10281    0.00882     3.11114
      C   10   -0.12460      0.99954     2.11608    0.00898     3.12460
      O   11   -0.27135      0.99984     3.26172    0.00979     4.27135
      C   12    0.16154      0.99936     1.82677    0.01233     2.83846
      C   13   -0.12417      0.99952     2.11530    0.00936     3.12417
      C   14   -0.09622      0.99957     2.08599    0.01066     3.09622
      C   15   -0.12103      0.99957     2.11116    0.01031     3.12103
      C   16   -0.09165      0.99958     2.08260    0.00947     3.09165
      C   17   -0.13739      0.99951     2.13020    0.00767     3.13739
      H   18    0.10556      0.00000     0.39223    0.00221     0.39444
      H   19    0.09610      0.00000     0.40241    0.00149     0.40390
      H   20    0.08675      0.00000     0.41174    0.00151     0.41325
      H   21    0.08465      0.00000     0.41355    0.00180     0.41535
      H   22    0.08682      0.00000     0.40909    0.00409     0.41318
      H   23    0.17708      0.00000     0.31967    0.00325     0.32292
      H   24    0.17737      0.00000     0.31970    0.00293     0.32263
      H   25    0.11868      0.00000     0.37965    0.00167     0.38132
      H   26    0.10541      0.00000     0.39368    0.00091     0.39459
      H   27    0.10464      0.00000     0.39439    0.00096     0.39536
      H   28    0.10512      0.00000     0.39387    0.00102     0.39488
      H   29    0.10628      0.00000     0.39264    0.00108     0.39372
      H   30    0.10087      0.00000     0.39824    0.00089     0.39913
      H   31    0.10164      0.00000     0.39735    0.00101     0.39836
      H   32    0.10135      0.00000     0.39780    0.00085     0.39865
      H   33    0.11352      0.00000     0.38518    0.00130     0.38648
 =======================================================================
   * Total *    0.00000     16.99256    43.80577    0.20167    61.00000

 Normal termination of Gaussian 16 at Sun Dec 13 21:13:20 2020.
