 Gaussian 16, Revision A.03,

 -----------------------------------------------------------
 # opt freq B3LYP/6-31G(d) empiricaldispersion=gd3bj scf=xqc
 -----------------------------------------------------------

 ------------------------------
 CID_43824930_JID_9902_neutraal
 ------------------------------
 Symbolic Z-matrix:
 Charge =  0 Multiplicity = 1

 SCF Done:  E(RB3LYP) =  -844.777115358     A.U. after   15 cycles
 SCF Done:  E(RB3LYP) =  -844.782331330     A.U. after   15 cycles
 SCF Done:  E(RB3LYP) =  -844.780541284     A.U. after   14 cycles
 SCF Done:  E(RB3LYP) =  -844.782089312     A.U. after   14 cycles
 SCF Done:  E(RB3LYP) =  -844.783061592     A.U. after   11 cycles
 SCF Done:  E(RB3LYP) =  -844.783452596     A.U. after   14 cycles
 SCF Done:  E(RB3LYP) =  -844.783482157     A.U. after   14 cycles
 SCF Done:  E(RB3LYP) =  -844.783874194     A.U. after   12 cycles
 SCF Done:  E(RB3LYP) =  -844.784107200     A.U. after   12 cycles
 SCF Done:  E(RB3LYP) =  -844.784272850     A.U. after   14 cycles
 SCF Done:  E(RB3LYP) =  -844.784723923     A.U. after   10 cycles
 SCF Done:  E(RB3LYP) =  -844.784724183     A.U. after    8 cycles
 SCF Done:  E(RB3LYP) =  -844.784724724     A.U. after   10 cycles
 SCF Done:  E(RB3LYP) =  -844.784724816     A.U. after    8 cycles
 SCF Done:  E(RB3LYP) =  -844.784724822     A.U. after    7 cycles
 Optimization completed on the basis of negligible forces.
    -- Stationary point found.
 Normal termination of Gaussian 16 at Sun Dec 13 21:13:29 2020.

 --------------------------------------------------------------------
 #N Geom=AllCheck Guess=TCheck SCRF=Check GenChk RB3LYP/6-31G(d) Freq
 --------------------------------------------------------------------

 Structure from the checkpoint file:  "JID_9902.chk"
 ------------------------------
 CID_43824930_JID_9902_neutraal
 ------------------------------
 Charge =  0 Multiplicity = 1

 SCF Done:  E(RB3LYP) =  -844.784724822     A.U. after    1 cycles

  Exact polarizability: 182.002 -17.853 185.464 -24.011 -11.930 153.352
 Approx polarizability: 260.530 -39.253 288.187 -55.540 -35.252 254.201

                      1                      2                      3
                      A                      A                      A
 Frequencies --     21.6311                32.3365                36.3880
 Red. masses --      3.1728                 3.5194                 3.5386
 Frc consts  --      0.0009                 0.0022                 0.0028
 IR Inten    --      0.4424                 0.3209                 0.0281

                      4                      5                      6
                      A                      A                      A
 Frequencies --     47.5133                50.6843                65.0904
 Red. masses --      2.2496                 4.0110                 4.2202
 Frc consts  --      0.0030                 0.0061                 0.0105
 IR Inten    --      0.1787                 0.0110                 0.0213

                      7                      8                      9
                      A                      A                      A
 Frequencies --     94.1790               154.3326               158.0083
 Red. masses --      3.1561                 3.4109                 4.7045
 Frc consts  --      0.0165                 0.0479                 0.0692
 IR Inten    --      0.4476                 0.2749                 0.6376

                     10                     11                     12
                      A                      A                      A
 Frequencies --    162.8349               188.5306               228.1686
 Red. masses --      3.6941                 3.5295                 3.5113
 Frc consts  --      0.0577                 0.0739                 0.1077
 IR Inten    --      0.2697                 0.2134                 0.5604

                     13                     14                     15
                      A                      A                      A
 Frequencies --    246.7009               253.1188               285.6668
 Red. masses --      2.0341                 1.7256                 1.1426
 Frc consts  --      0.0729                 0.0651                 0.0549
 IR Inten    --      1.7183                 0.7384                61.9527

                     16                     17                     18
                      A                      A                      A
 Frequencies --    309.6475               322.8286               343.8041
 Red. masses --      2.8253                 2.3114                 4.6666
 Frc consts  --      0.1596                 0.1419                 0.3250
 IR Inten    --      0.4255                 2.6437                 3.4758

                     19                     20                     21
                      A                      A                      A
 Frequencies --    365.3720               397.4000               417.9605
 Red. masses --      3.1244                 3.6482                 2.0088
 Frc consts  --      0.2457                 0.3395                 0.2068
 IR Inten    --      1.5267                 1.6713                 0.0529

                     22                     23                     24
                      A                      A                      A
 Frequencies --    465.9007               485.1201               524.9989
 Red. masses --      3.1673                 3.9884                 3.8212
 Frc consts  --      0.4051                 0.5530                 0.6205
 IR Inten    --      3.4450                 1.5025                 4.4460

                     25                     26                     27
                      A                      A                      A
 Frequencies --    533.4130               553.4586               586.4762
 Red. masses --      3.2550                 2.6258                 3.6847
 Frc consts  --      0.5457                 0.4739                 0.7467
 IR Inten    --      7.0001                 2.9171                 0.3510

                     28                     29                     30
                      A                      A                      A
 Frequencies --    598.5753               646.5609               671.0614
 Red. masses --      2.8112                 5.2013                 3.5926
 Frc consts  --      0.5934                 1.2811                 0.9532
 IR Inten    --      0.7956                 7.3610                 0.8574

                     31                     32                     33
                      A                      A                      A
 Frequencies --    725.0092               750.4154               759.7209
 Red. masses --      2.5863                 4.0997                 2.8452
 Frc consts  --      0.8010                 1.3602                 0.9676
 IR Inten    --      1.4444                22.4613                 4.7864

                     34                     35                     36
                      A                      A                      A
 Frequencies --    793.6546               806.4454               808.8344
 Red. masses --      1.7712                 3.1303                 1.5267
 Frc consts  --      0.6573                 1.1995                 0.5885
 IR Inten    --      3.9853                17.4442                 1.3691

                     37                     38                     39
                      A                      A                      A
 Frequencies --    848.6136               858.9809               862.9298
 Red. masses --      2.5752                 1.7292                 1.6531
 Frc consts  --      1.0926                 0.7517                 0.7253
 IR Inten    --      4.9729                 2.5488                11.1727

                     40                     41                     42
                      A                      A                      A
 Frequencies --    880.4977               903.7441               913.7869
 Red. masses --      2.6613                 1.6152                 2.5433
 Frc consts  --      1.2156                 0.7773                 1.2512
 IR Inten    --     65.3068                52.0763                 0.2052

                     43                     44                     45
                      A                      A                      A
 Frequencies --    926.5910               936.2142               954.4067
 Red. masses --      2.5055                 1.8451                 1.7372
 Frc consts  --      1.2674                 0.9529                 0.9323
 IR Inten    --     45.1212                 0.2315                 1.8375

                     46                     47                     48
                      A                      A                      A
 Frequencies --    978.3015               983.6183              1003.1176
 Red. masses --      1.3167                 1.5937                 2.1881
 Frc consts  --      0.7425                 0.9085                 1.2973
 IR Inten    --      0.5781                23.4478                19.9469

                     49                     50                     51
                      A                      A                      A
 Frequencies --   1006.5442              1030.7496              1045.8008
 Red. masses --      2.0979                 1.3886                 1.9472
 Frc consts  --      1.2523                 0.8692                 1.2547
 IR Inten    --      9.6648                 5.8933                 6.7430

                     52                     53                     54
                      A                      A                      A
 Frequencies --   1075.0931              1082.2938              1102.8056
 Red. masses --      2.0736                 1.9809                 2.3733
 Frc consts  --      1.4121                 1.3671                 1.7006
 IR Inten    --      2.0245                 0.4333                 5.8193

                     55                     56                     57
                      A                      A                      A
 Frequencies --   1111.8520              1116.7157              1132.4284
 Red. masses --      1.9880                 1.9766                 2.1782
 Frc consts  --      1.4479                 1.4523                 1.6457
 IR Inten    --      1.2656                10.8089                15.2560

                     58                     59                     60
                      A                      A                      A
 Frequencies --   1166.6796              1171.3546              1204.7416
 Red. masses --      1.5889                 1.5913                 1.4726
 Frc consts  --      1.2743                 1.2864                 1.2593
 IR Inten    --     11.7504                10.7636                 3.9871

                     61                     62                     63
                      A                      A                      A
 Frequencies --   1205.9484              1224.4448              1233.4115
 Red. masses --      1.4150                 1.7353                 1.9190
 Frc consts  --      1.2125                 1.5329                 1.7201
 IR Inten    --      1.9230                 9.2466                 3.0739

                     64                     65                     66
                      A                      A                      A
 Frequencies --   1252.4324              1268.1795              1286.1557
 Red. masses --      1.6170                 1.4482                 1.3596
 Frc consts  --      1.4944                 1.3723                 1.3251
 IR Inten    --      1.4390                 2.0783                 3.1356

                     67                     68                     69
                      A                      A                      A
 Frequencies --   1304.3708              1311.4546              1320.3524
 Red. masses --      1.3109                 1.3329                 1.2726
 Frc consts  --      1.3141                 1.3507                 1.3071
 IR Inten    --      3.4586                 5.2733                 1.7641

                     70                     71                     72
                      A                      A                      A
 Frequencies --   1322.0035              1339.9465              1349.4255
 Red. masses --      1.3303                 1.2832                 1.6555
 Frc consts  --      1.3698                 1.3574                 1.7761
 IR Inten    --      1.1735                 3.0717                 9.3149

                     73                     74                     75
                      A                      A                      A
 Frequencies --   1360.1856              1364.0403              1366.6645
 Red. masses --      2.0492                 1.2683                 1.4378
 Frc consts  --      2.2338                 1.3903                 1.5822
 IR Inten    --     10.3095                 1.0403                 0.7237

                     76                     77                     78
                      A                      A                      A
 Frequencies --   1390.0454              1396.8462              1403.0829
 Red. masses --      1.4113                 4.0561                 2.5625
 Frc consts  --      1.6067                 4.6629                 2.9722
 IR Inten    --     13.6349               281.5524                91.5597

                     79                     80                     81
                      A                      A                      A
 Frequencies --   1418.5182              1441.5773              1451.4912
 Red. masses --      1.5179                 1.2916                 1.4117
 Frc consts  --      1.7995                 1.5815                 1.7524
 IR Inten    --      1.9834                 0.6376                13.4549

                     82                     83                     84
                      A                      A                      A
 Frequencies --   1463.4413              1505.8908              1514.0315
 Red. masses --      2.9488                 1.0923                 1.0972
 Frc consts  --      3.7209                 1.4594                 1.4819
 IR Inten    --      1.2836                 1.5649                 0.4514

                     85                     86                     87
                      A                      A                      A
 Frequencies --   1520.1085              1520.9897              1525.6284
 Red. masses --      1.0807                 1.1034                 1.0944
 Frc consts  --      1.4714                 1.5039                 1.5008
 IR Inten    --      2.7879                 0.5283                 1.9824

                     88                     89                     90
                      A                      A                      A
 Frequencies --   1527.3656              1533.7354              1544.4195
 Red. masses --      1.2518                 1.5861                 1.1266
 Frc consts  --      1.7205                 2.1982                 1.5833
 IR Inten    --      6.4978                16.7655                 3.2388

                     91                     92                     93
                      A                      A                      A
 Frequencies --   1546.6040              1614.6532              1650.1420
 Red. masses --      1.1048                 9.7054                 7.0266
 Frc consts  --      1.5570                14.9081                11.2730
 IR Inten    --      0.7204               126.7424                52.0857

                     94                     95                     96
                      A                      A                      A
 Frequencies --   1675.9275              1702.7855              3003.2549
 Red. masses --      7.9260                 1.0869                 1.0822
 Frc consts  --     13.1164                 1.8567                 5.7512
 IR Inten    --     39.1649                26.6636                15.9575

                     97                     98                     99
                      A                      A                      A
 Frequencies --   3024.3667              3029.3543              3033.3803
 Red. masses --      1.0666                 1.0688                 1.0684
 Frc consts  --      5.7482                 5.7791                 5.7921
 IR Inten    --      5.7535                42.5117                40.8593

                    100                    101                    102
                      A                      A                      A
 Frequencies --   3044.1496              3049.7191              3052.5161
 Red. masses --      1.0674                 1.0842                 1.0649
 Frc consts  --      5.8281                 5.9414                 5.8460
 IR Inten    --     31.9054                40.0690                26.8305

                    103                    104                    105
                      A                      A                      A
 Frequencies --   3057.7939              3075.1558              3076.1006
 Red. masses --      1.0357                 1.0928                 1.0673
 Frc consts  --      5.7057                 6.0886                 5.9505
 IR Inten    --     24.9732                11.6916                36.0240

                    106                    107                    108
                      A                      A                      A
 Frequencies --   3084.8994              3091.9455              3097.5564
 Red. masses --      1.0901                 1.0965                 1.0954
 Frc consts  --      6.1124                 6.1763                 6.1926
 IR Inten    --     22.9310                54.2871                32.9120

                    109                    110                    111
                      A                      A                      A
 Frequencies --   3104.8668              3124.9992              3125.9290
 Red. masses --      1.1030                 1.1024                 1.1020
 Frc consts  --      6.2651                 6.3426                 6.3443
 IR Inten    --     30.9072                38.7822                35.3878

                    112                    113                    114
                      A                      A                      A
 Frequencies --   3128.2654              3224.8423              3255.2200
 Red. masses --      1.1033                 1.0884                 1.0932
 Frc consts  --      6.3614                 6.6687                 6.8253
 IR Inten    --     29.6324                 9.2231                 0.8012

                    115                    116                    117
                      A                      A                      A
 Frequencies --   3276.1536              3467.7581              3551.6196
 Red. masses --      1.0893                 1.0502                 1.0915
 Frc consts  --      6.8886                 7.4407                 8.1120
 IR Inten    --      2.6252                 0.5559                 0.2336

 - Thermochemistry -
 -------------------
 Temperature   298.150 Kelvin.  Pressure   1.00000 Atm.
 Atom     1 has atomic number  6 and mass  12.00000

 Molecular mass:   262.16813 amu.
 Principal axes and moments of inertia in atomic units:
                           1         2         3
     Eigenvalues --  4396.772956557.391058163.32793
           X            0.99803   0.06276  -0.00045
           Y           -0.06277   0.99799  -0.00837
           Z           -0.00007   0.00838   0.99996
 This molecule is an asymmetric top.
 Rotational symmetry number  1.
 Warning -- assumption of classical behavior for rotation
           may cause significant error
 Rotational temperatures (Kelvin)      0.01970     0.01321     0.01061
 Rotational constants (GHZ):           0.41047     0.27522     0.22108
 Zero-point vibrational energy     939223.2 (Joules/Mol)
                                  224.47972 (Kcal/Mol)
 Warning -- explicit consideration of  28 degrees of freedom as
           vibrations may cause significant error
 Vibrational temperatures:     31.12    46.53    52.35    68.36    72.92
          (Kelvin)             93.65   135.50   222.05   227.34   234.28
                              271.25   328.28   354.95   364.18   411.01
                              445.51   464.48   494.66   525.69   571.77
                              601.35   670.33   697.98   755.36   767.46
                              796.30   843.81   861.22   930.26   965.51
                             1043.13  1079.68  1093.07  1141.89  1160.30
                             1163.73  1220.97  1235.88  1241.56  1266.84
                             1300.29  1314.74  1333.16  1347.00  1373.18
                             1407.56  1415.21  1443.26  1448.19  1483.02
                             1504.67  1546.82  1557.18  1586.69  1599.71
                             1606.70  1629.31  1678.59  1685.32  1733.35
                             1735.09  1761.70  1774.60  1801.97  1824.63
                             1850.49  1876.70  1886.89  1899.69  1902.07
                             1927.88  1941.52  1957.00  1962.55  1966.33
                             1999.97  2009.75  2018.72  2040.93  2074.11
                             2088.37  2105.57  2166.64  2178.35  2187.10
                             2188.36  2195.04  2197.54  2206.70  2222.08
                             2225.22  2323.13  2374.19  2411.29  2449.93
                             4321.01  4351.39  4358.57  4364.36  4379.85
                             4387.87  4391.89  4399.48  4424.46  4425.82
                             4438.48  4448.62  4456.69  4467.21  4496.18
                             4497.51  4500.88  4639.83  4683.54  4713.65
                             4989.33  5109.99

 Zero-point correction=                           0.357731 (Hartree/Particle)
 Thermal correction to Energy=                    0.376300
 Thermal correction to Enthalpy=                  0.377244
 Thermal correction to Gibbs Free Energy=         0.308638
 Sum of electronic and zero-point Energies=           -844.426994
 Sum of electronic and thermal Energies=              -844.408425
 Sum of electronic and thermal Enthalpies=            -844.407480
 Sum of electronic and thermal Free Energies=         -844.476087

                     E (Thermal)             CV                S
                      KCal/Mol        Cal/Mol-Kelvin    Cal/Mol-Kelvin
 Total                  236.132             70.666            144.394
 Electronic               0.000              0.000              0.000
 Translational            0.889              2.981             42.591
 Rotational               0.889              2.981             33.820
 Vibrational            234.354             64.705             67.983
 Vibration     1          0.593              1.985              6.479
 Vibration     2          0.594              1.983              5.681
 Vibration     3          0.594              1.982              5.447
 Vibration     4          0.595              1.979              4.918
 Vibration     5          0.595              1.977              4.791
 Vibration     6          0.597              1.971              4.297
 Vibration     7          0.603              1.953              3.571
 Vibration     8          0.620              1.898              2.618
 Vibration     9          0.621              1.894              2.573
 Vibration    10          0.623              1.888              2.517
 Vibration    11          0.633              1.856              2.242
 Vibration    12          0.651              1.798              1.893
 Vibration    13          0.661              1.768              1.754
 Vibration    14          0.664              1.758              1.709
 Vibration    15          0.683              1.700              1.499
 Vibration    16          0.699              1.655              1.364
 Vibration    17          0.708              1.630              1.296
 Vibration    18          0.723              1.588              1.194
 Vibration    19          0.739              1.544              1.099
 Vibration    20          0.764              1.476              0.972
 Vibration    21          0.781              1.431              0.899
 Vibration    22          0.823              1.326              0.749
 Vibration    23          0.841              1.283              0.696
 Vibration    24          0.880              1.195              0.598
 Vibration    25          0.888              1.176              0.580
 Vibration    26          0.909              1.132              0.537
 Vibration    27          0.944              1.061              0.474
 Vibration    28          0.957              1.035              0.452

 Optimization completed on the basis of negligible forces.
    -- Stationary point found.
 Normal termination of Gaussian 16 at Sun Dec 13 21:34:23 2020.

 ----------------------------------------------------------------------
 # B3LYP/6-311++G(d,p) empiricaldispersion=gd3bj scf=xqc pop=npa geom=c
 heck
 ----------------------------------------------------------------------

 --------------------------------------
 CID_43824930_JID_9902_Energie_neutraal
 --------------------------------------
 Structure from the checkpoint file:  "JID_9902.chk"
 Charge =  0 Multiplicity = 1

 SCF Done:  E(RB3LYP) =  -845.022335129     A.U. after   15 cycles
 Normal termination of Gaussian 16 at Sun Dec 13 21:43:13 2020.

 ----------------------------------------------------------------------
 # B3LYP/6-311++G(d,p) empiricaldispersion=gd3bj scf=xqc pop=npa geom=c
 heck
 ----------------------------------------------------------------------

 ------------------------------------
 CID_43824930_JID_9902_Energie_kation
 ------------------------------------
 Structure from the checkpoint file:  "JID_9902.chk"
 Charge =  1 Multiplicity = 2

 SCF Done:  E(UB3LYP) =  -844.700953809     A.U. after   33 cycles
 SCF Done:  E(UB3LYP) =  -844.700953809     a.u. after    1 cycles
 Normal termination of Gaussian 16 at Sun Dec 13 22:08:49 2020.
 Gaussian 16:  ES64L-G16RevA.03 25-Dec-2016

 ----------------------------------------------------------------------
 # B3LYP/6-311++G(d,p) empiricaldispersion=gd3bj scf=xqc pop=npa geom=c
 heck
 ----------------------------------------------------------------------

 -----------------------------------
 CID_43824930_JID_9902_Energie_anion
 -----------------------------------
 Structure from the checkpoint file:  "JID_9902.chk"
 Charge = -1 Multiplicity = 2

                         Standard orientation:
 ---------------------------------------------------------------------
 Center     Atomic      Atomic             Coordinates (Angstroms)
 Number     Number       Type             X           Y           Z
 ---------------------------------------------------------------------
      1          6           0        0.690671    4.189526   -0.857037
      2          6           0       -0.023453    3.002373   -0.202824
      3          6           0        0.764148    1.705971   -0.139823
      4          6           0        0.454153    0.699682    0.807228
      5          6           0        1.229453   -0.458692    0.844106
      6          6           0        2.259917   -0.642218   -0.070884
      7          6           0        2.570271    0.318550   -1.024764
      8          6           0        1.821114    1.489054   -1.035791
      9          7           0        3.040871   -1.883190   -0.023338
     10          8           0        2.726667   -2.729939    0.814060
     11          8           0        3.964068   -2.009791   -0.829174
     12          6           0       -0.718976    0.833160    1.772395
     13          6           0       -2.094733    0.702504    1.060538
     14          6           0       -2.330843   -0.602874    0.291845
     15          6           0       -3.825412   -0.868807    0.018649
     16          6           0       -3.811792   -1.882667   -1.129758
     17          6           0       -2.709283   -1.340622   -2.058198
     18          6           0       -1.661138   -0.691292   -1.113465
     19          7           0       -0.569697   -0.089758    2.906212
     20          1           0        1.662881    4.377312   -0.388789
     21          1           0        0.082988    5.093781   -0.750546
     22          1           0        0.855290    4.033340   -1.927995
     23          1           0       -0.319529    3.289843    0.812516
     24          1           0       -0.965839    2.821447   -0.738100
     25          1           0        1.056835   -1.217455    1.593267
     26          1           0        3.380581    0.149439   -1.722096
     27          1           0        2.070705    2.253871   -1.761803
     28          1           0       -0.679653    1.838373    2.209627
     29          1           0       -2.858595    0.801457    1.845087
     30          1           0       -2.254321    1.544804    0.377139
     31          1           0       -1.962952   -1.444576    0.897558
     32          1           0       -4.359193   -1.216196    0.910546
     33          1           0       -4.310432    0.061402   -0.311788
     34          1           0       -4.780257   -1.988530   -1.629818
     35          1           0       -3.531212   -2.871947   -0.744435
     36          1           0       -3.135724   -0.580347   -2.723783
     37          1           0       -2.275848   -2.115753   -2.697948
     38          1           0       -1.375383    0.302877   -1.472424
     39          1           0       -0.738520   -1.275512   -1.070336
     40          1           0       -1.228661    0.180928    3.633757
     41          1           0       -0.841849   -1.031964    2.627842
 ---------------------------------------------------------------------

 SCF Done:  E(UB3LYP) =  -845.053055671     A.U. after   25 cycles

 The electronic state is 2-A.
 Alpha  occ. eigenvalues --  -18.93615 -18.93606 -14.31255 -14.19576 -10.10098
 Alpha  occ. eigenvalues --  -10.08165 -10.07994 -10.07886 -10.07475 -10.07160
 Alpha  occ. eigenvalues --  -10.06869 -10.06844 -10.06009 -10.05219 -10.04872
 Alpha  occ. eigenvalues --  -10.04292 -10.03924 -10.02962 -10.02708  -1.01620
 Alpha  occ. eigenvalues --   -0.84471  -0.79606  -0.74880  -0.73080  -0.67995
 Alpha  occ. eigenvalues --   -0.66447  -0.63096  -0.61730  -0.61511  -0.58379
 Alpha  occ. eigenvalues --   -0.54951  -0.51860  -0.49516  -0.48684  -0.46225
 Alpha  occ. eigenvalues --   -0.45627  -0.42861  -0.39875  -0.38960  -0.37544
 Alpha  occ. eigenvalues --   -0.37018  -0.35781  -0.35289  -0.34166  -0.33991
 Alpha  occ. eigenvalues --   -0.33828  -0.32589  -0.32222  -0.31244  -0.30544
 Alpha  occ. eigenvalues --   -0.29779  -0.28520  -0.27986  -0.27157  -0.26711
 Alpha  occ. eigenvalues --   -0.25912  -0.25480  -0.24784  -0.24120  -0.23568
 Alpha  occ. eigenvalues --   -0.22799  -0.21909  -0.21673  -0.21430  -0.20221
 Alpha  occ. eigenvalues --   -0.14849  -0.13151  -0.11939  -0.11536  -0.11448
 Alpha  occ. eigenvalues --   -0.09385   0.03270
 Alpha virt. eigenvalues --    0.05945   0.06782   0.07157   0.08074   0.08929
 Alpha virt. eigenvalues --    0.09148   0.09762   0.10488   0.10833   0.11134
 Alpha virt. eigenvalues --    0.11506   0.12040   0.12424   0.12978   0.13053

  Beta  occ. eigenvalues --  -18.93136 -18.93129 -14.30632 -14.19570 -10.10095
  Beta  occ. eigenvalues --  -10.08165 -10.07993 -10.07884 -10.07475 -10.07162
  Beta  occ. eigenvalues --  -10.06887 -10.06840 -10.06006 -10.05128 -10.04936
  Beta  occ. eigenvalues --  -10.04022 -10.03970 -10.02818 -10.02572  -1.00574
  Beta  occ. eigenvalues --   -0.83564  -0.79589  -0.74877  -0.72818  -0.67767
  Beta  occ. eigenvalues --   -0.66439  -0.62930  -0.61665  -0.61223  -0.58277
  Beta  occ. eigenvalues --   -0.54495  -0.51758  -0.48943  -0.48678  -0.46189
  Beta  occ. eigenvalues --   -0.45557  -0.42680  -0.39851  -0.38662  -0.37430
  Beta  occ. eigenvalues --   -0.36818  -0.35701  -0.35144  -0.34053  -0.33586
  Beta  occ. eigenvalues --   -0.32596  -0.32022  -0.31074  -0.30913  -0.30423
  Beta  occ. eigenvalues --   -0.29413  -0.28480  -0.27892  -0.27112  -0.26554
  Beta  occ. eigenvalues --   -0.25808  -0.25478  -0.24767  -0.24108  -0.23508
  Beta  occ. eigenvalues --   -0.22700  -0.21828  -0.21564  -0.20899  -0.20155
  Beta  occ. eigenvalues --   -0.14804  -0.11677  -0.11004  -0.10304  -0.09372
  Beta  occ. eigenvalues --   -0.08906
  Beta virt. eigenvalues --    0.05863   0.06717   0.07107   0.08001   0.08849
  Beta virt. eigenvalues --    0.09038   0.09578   0.10259   0.10445   0.10810
  Beta virt. eigenvalues --    0.11151   0.11444   0.12221   0.12370   0.12932

 Mulliken charges and spin densities:
               1          2
     1  C   -0.642588  -0.054442
     2  C   -0.528101   0.054801
     3  C    0.326920   0.152058
     4  C    0.348150   0.012650
     5  C   -0.388083   0.093069
     6  C   -0.113617  -0.032123
     7  C   -0.026633   0.152479
     8  C   -0.426749  -0.075589
     9  N   -0.297682   0.206197
    10  O   -0.200882   0.187618
    11  O   -0.152393   0.184415
    12  C   -0.511305   0.045110
    13  C   -0.139009  -0.107309
    14  C    0.519442   0.076164
    15  C   -0.350618  -0.036531
    16  C   -0.318131   0.020321
    17  C   -0.400312  -0.045398
    18  C   -0.566145  -0.035628
    19  N   -0.332912  -0.012563
    20  H    0.141447   0.006739
    21  H    0.087156   0.033932
    22  H    0.128358   0.011725
    23  H    0.140537  -0.024152
    24  H    0.046190   0.090962
    25  H    0.257160  -0.015514
    26  H    0.228550  -0.009526
    27  H    0.112455   0.004337
    28  H    0.175974   0.024895
    29  H    0.164655  -0.010848
    30  H    0.131930   0.027783
    31  H    0.096793   0.002944
    32  H    0.122820   0.005670
    33  H    0.119907   0.007336
    34  H    0.152287   0.001135
    35  H    0.123546   0.000071
    36  H    0.111740   0.007485
    37  H    0.163690  -0.003059
    38  H    0.183528  -0.031838
    39  H    0.076969   0.074166
    40  H    0.240425   0.001088
    41  H    0.194534   0.009367
 Sum of Mulliken charges =  -1.00000   1.00000

 Dipole moment (field-independent basis, Debye):
    X=            -12.5349    Y=              6.5045    Z=              0.0731  Tot=             14.1222
 Quadrupole moment (field-independent basis, Debye-Ang):
   XX=           -172.8106   YY=           -150.8570   ZZ=           -129.4104
   XY=             27.1917   XZ=             -2.8900   YZ=              1.4513

 Summary of Natural Population Analysis:

                                       Natural Population
                Natural  -----------------------------------------------
    Atom  No    Charge         Core      Valence    Rydberg      Total
 -----------------------------------------------------------------------
      C    1   -0.28343      0.99967     2.27908    0.00468     3.28343
      C    2   -0.19885      0.99962     2.19168    0.00755     3.19885
      C    3    0.00810      0.99953     1.97567    0.01670     2.99190
      C    4    0.02109      0.99947     1.96667    0.01277     2.97891
      C    5   -0.09093      0.99953     2.07460    0.01680     3.09093
      C    6    0.05119      0.99939     1.93287    0.01655     2.94881
      C    7   -0.06718      0.99953     2.05805    0.00961     3.06718
      C    8   -0.12724      0.99953     2.11999    0.00772     3.12724
      N    9    0.30604      0.99972     2.16802    0.02622     3.19396
      O   10   -0.19555      0.99990     3.18799    0.00766     4.19555
      O   11   -0.19623      0.99990     3.18872    0.00761     4.19623
      C   12   -0.02836      0.99960     2.01227    0.01650     3.02836
      C   13   -0.18916      0.99959     2.17992    0.00965     3.18916
      C   14   -0.11407      0.99960     2.10422    0.01026     3.11407
      C   15   -0.18585      0.99963     2.17951    0.00671     3.18585
      C   16   -0.19122      0.99964     2.18543    0.00614     3.19122
      C   17   -0.19065      0.99965     2.18477    0.00623     3.19065
      C   18   -0.19798      0.99963     2.18885    0.00950     3.19798
      N   19   -0.41285      0.99977     2.90334    0.00974     3.91285
      H   20    0.09856      0.00000     0.40034    0.00111     0.40144
      H   21    0.09281      0.00000     0.40597    0.00122     0.40719
      H   22    0.09484      0.00000     0.40391    0.00125     0.40516
      H   23    0.09467      0.00000     0.40385    0.00148     0.40533
      H   24    0.09652      0.00000     0.40121    0.00227     0.40348
      H   25    0.11644      0.00000     0.38178    0.00178     0.38356
      H   26    0.11159      0.00000     0.38726    0.00114     0.38841
      H   27    0.09213      0.00000     0.40652    0.00135     0.40787
      H   28    0.08968      0.00000     0.40837    0.00195     0.41032
      H   29    0.08888      0.00000     0.40906    0.00207     0.41112
      H   30    0.09859      0.00000     0.39986    0.00155     0.40141
      H   31    0.09217      0.00000     0.40591    0.00192     0.40783
      H   32    0.09589      0.00000     0.40316    0.00095     0.40411
      H   33    0.09001      0.00000     0.40818    0.00182     0.40999
      H   34    0.09366      0.00000     0.40529    0.00105     0.40634
      H   35    0.09324      0.00000     0.40554    0.00122     0.40676
      H   36    0.09041      0.00000     0.40857    0.00102     0.40959
      H   37    0.09879      0.00000     0.40031    0.00090     0.40121
      H   38    0.10234      0.00000     0.39606    0.00159     0.39766
      H   39    0.11326      0.00000     0.38506    0.00168     0.38674
      H   40    0.16835      0.00000     0.33010    0.00155     0.33165
      H   41    0.17118      0.00000     0.32709    0.00173     0.32882
 =======================================================================
   * Total *    0.00087     18.99289    51.76503    0.24121    70.99913

 Normal termination of Gaussian 16 at Sun Dec 13 22:27:44 2020.
