 Gaussian 16, Revision A.03,

 -----------------------------------------------------------
 # opt freq B3LYP/6-31G(d) empiricaldispersion=gd3bj scf=xqc
 -----------------------------------------------------------

 -------------------------------
 CID_145808329_JID_7217_neutraal
 -------------------------------
 Symbolic Z-matrix:
 Charge =  0 Multiplicity = 1

 SCF Done:  E(RB3LYP) =  -752.525872013     A.U. after   16 cycles
 SCF Done:  E(RB3LYP) =  -752.534098033     A.U. after   14 cycles
 SCF Done:  E(RB3LYP) =  -752.537029711     A.U. after   14 cycles
 SCF Done:  E(RB3LYP) =  -752.538823531     A.U. after   14 cycles
 SCF Done:  E(RB3LYP) =  -752.539446500     A.U. after   13 cycles
 SCF Done:  E(RB3LYP) =  -752.539634144     A.U. after   13 cycles
 SCF Done:  E(RB3LYP) =  -752.539731715     A.U. after   12 cycles
 SCF Done:  E(RB3LYP) =  -752.539784690     A.U. after   12 cycles
 SCF Done:  E(RB3LYP) =  -752.539800966     A.U. after   11 cycles
 SCF Done:  E(RB3LYP) =  -752.539802563     A.U. after    8 cycles
 SCF Done:  E(RB3LYP) =  -752.539803026     A.U. after    8 cycles
 SCF Done:  E(RB3LYP) =  -752.539803067     A.U. after    7 cycles
 SCF Done:  E(RB3LYP) =  -752.539803086     A.U. after    7 cycles
 Optimization completed.
    -- Stationary point found.
 Normal termination of Gaussian 16 at Sun Dec 13 20:10:37 2020.

 --------------------------------------------------------------------
 #N Geom=AllCheck Guess=TCheck SCRF=Check GenChk RB3LYP/6-31G(d) Freq
 --------------------------------------------------------------------

 Structure from the checkpoint file:  "JID_7217.chk"
 -------------------------------
 CID_145808329_JID_7217_neutraal
 -------------------------------
 Charge =  0 Multiplicity = 1

 SCF Done:  E(RB3LYP) =  -752.539803086     A.U. after    1 cycles

  Exact polarizability: 215.055 -16.494 157.843  -3.423   2.626 123.290
 Approx polarizability: 300.295 -43.368 231.273 -17.159   8.707 184.061

                      1                      2                      3
                      A                      A                      A
 Frequencies --     17.2767                23.5275                28.8759
 Red. masses --      3.8198                 4.5415                 2.9062
 Frc consts  --      0.0007                 0.0015                 0.0014
 IR Inten    --      0.0600                 0.0568                 0.0148

                      4                      5                      6
                      A                      A                      A
 Frequencies --     44.7967                61.1083                74.8323
 Red. masses --      3.3965                 3.4561                 4.6760
 Frc consts  --      0.0040                 0.0076                 0.0154
 IR Inten    --      0.0247                 0.0164                 0.1228

                      7                      8                      9
                      A                      A                      A
 Frequencies --     93.8431               101.1682               135.0027
 Red. masses --      6.8177                 3.4055                 2.7457
 Frc consts  --      0.0354                 0.0205                 0.0295
 IR Inten    --      0.7881                 0.3347                 0.4801

                     10                     11                     12
                      A                      A                      A
 Frequencies --    175.3634               208.4922               215.0450
 Red. masses --      3.4502                 2.5266                 1.4673
 Frc consts  --      0.0625                 0.0647                 0.0400
 IR Inten    --      1.4303                 1.2961                 0.3255

                     13                     14                     15
                      A                      A                      A
 Frequencies --    229.0493               260.6424               283.0799
 Red. masses --      2.9409                 1.8088                 1.7707
 Frc consts  --      0.0909                 0.0724                 0.0836
 IR Inten    --      0.3760                 0.6564                 0.7512

                     16                     17                     18
                      A                      A                      A
 Frequencies --    306.3063               320.3368               347.9061
 Red. masses --      2.2861                 3.1167                 2.4871
 Frc consts  --      0.1264                 0.1884                 0.1774
 IR Inten    --      3.5115                 1.9756                 2.3016

                     19                     20                     21
                      A                      A                      A
 Frequencies --    387.9623               408.7950               423.6951
 Red. masses --      2.0933                 3.0236                 2.8311
 Frc consts  --      0.1856                 0.2977                 0.2994
 IR Inten    --      0.7008                 1.8199                 0.7954

                     22                     23                     24
                      A                      A                      A
 Frequencies --    432.6649               459.8290               490.1083
 Red. masses --      2.9847                 3.0728                 3.2714
 Frc consts  --      0.3292                 0.3828                 0.4630
 IR Inten    --      1.0407                 2.9296                 0.2021

                     25                     26                     27
                      A                      A                      A
 Frequencies --    498.0282               538.2259               572.6608
 Red. masses --      3.2968                 3.0600                 4.2183
 Frc consts  --      0.4818                 0.5223                 0.8150
 IR Inten    --      0.0729                 3.8902                 2.4918

                     28                     29                     30
                      A                      A                      A
 Frequencies --    593.1997               698.7446               721.3803
 Red. masses --      2.4614                 4.3205                 1.2807
 Frc consts  --      0.5103                 1.2429                 0.3927
 IR Inten    --      8.3483                 6.1168                24.9756

                     31                     32                     33
                      A                      A                      A
 Frequencies --    744.6512               763.3598               828.7419
 Red. masses --      2.6319                 1.7501                 1.8874
 Frc consts  --      0.8599                 0.6008                 0.7638
 IR Inten    --      3.3006                 1.4740                 1.0599

                     34                     35                     36
                      A                      A                      A
 Frequencies --    844.0274               847.9856               873.8386
 Red. masses --      1.9923                 1.7234                 2.5137
 Frc consts  --      0.8362                 0.7301                 1.1309
 IR Inten    --      4.5983                 0.7948                 5.8348

                     37                     38                     39
                      A                      A                      A
 Frequencies --    875.7816               906.7159               932.4616
 Red. masses --      1.8118                 1.6336                 2.2031
 Frc consts  --      0.8188                 0.7913                 1.1286
 IR Inten    --      2.5342                 0.2287                 6.1261

                     40                     41                     42
                      A                      A                      A
 Frequencies --    943.8541               972.0518               983.4573
 Red. masses --      2.0652                 1.9364                 2.3541
 Frc consts  --      1.0840                 1.0780                 1.3415
 IR Inten    --      8.5214                21.2226                28.8286

                     43                     44                     45
                      A                      A                      A
 Frequencies --   1006.8894              1026.5832              1042.0020
 Red. masses --      1.0982                 1.6348                 2.1213
 Frc consts  --      0.6560                 1.0151                 1.3570
 IR Inten    --     23.2328                 3.7246                 4.6863

                     46                     47                     48
                      A                      A                      A
 Frequencies --   1051.6874              1066.2242              1087.0123
 Red. masses --      1.6741                 1.8045                 2.3516
 Frc consts  --      1.0910                 1.2086                 1.6371
 IR Inten    --      4.7206                 1.2751                 0.2356

                     49                     50                     51
                      A                      A                      A
 Frequencies --   1107.5476              1108.0432              1139.6294
 Red. masses --      2.1239                 1.7137                 1.8103
 Frc consts  --      1.5350                 1.2397                 1.3852
 IR Inten    --      1.6778                 1.7575                 0.1789

                     52                     53                     54
                      A                      A                      A
 Frequencies --   1143.9463              1152.5699              1156.1707
 Red. masses --      2.1205                 4.7737                 2.3801
 Frc consts  --      1.6350                 3.7363                 1.8745
 IR Inten    --      2.1201                96.5565                15.9906

                     55                     56                     57
                      A                      A                      A
 Frequencies --   1206.0385              1208.3103              1216.0755
 Red. masses --      2.0716                 2.5124                 1.2981
 Frc consts  --      1.7754                 2.1612                 1.1311
 IR Inten    --      2.9940                 4.3526                 1.2789

                     58                     59                     60
                      A                      A                      A
 Frequencies --   1245.1977              1259.8682              1273.4280
 Red. masses --      1.0810                 1.7414                 1.6379
 Frc consts  --      0.9876                 1.6286                 1.5649
 IR Inten    --      3.5084                18.6223                 9.8134

                     61                     62                     63
                      A                      A                      A
 Frequencies --   1292.0657              1304.6722              1314.6075
 Red. masses --      1.4409                 1.3145                 1.2506
 Frc consts  --      1.4173                 1.3183                 1.2734
 IR Inten    --      4.1061                26.7246                 3.5399

                     64                     65                     66
                      A                      A                      A
 Frequencies --   1330.7708              1344.0694              1346.4709
 Red. masses --      1.3696                 1.2415                 1.1368
 Frc consts  --      1.4290                 1.3214                 1.2143
 IR Inten    --      0.5300                 5.2903                 1.0759

                     67                     68                     69
                      A                      A                      A
 Frequencies --   1362.9609              1369.0455              1377.1934
 Red. masses --      1.5376                 1.7835                 1.2734
 Frc consts  --      1.6829                 1.9695                 1.4231
 IR Inten    --      4.0879                10.0311                 0.3107

                     70                     71                     72
                      A                      A                      A
 Frequencies --   1383.9261              1389.6837              1406.3736
 Red. masses --      1.4236                 1.6046                 1.6164
 Frc consts  --      1.6064                 1.8258                 1.8836
 IR Inten    --     16.4291                 2.3211                 7.6117

                     73                     74                     75
                      A                      A                      A
 Frequencies --   1413.8815              1416.8735              1423.6753
 Red. masses --      1.4129                 1.3833                 1.5304
 Frc consts  --      1.6641                 1.6362                 1.8276
 IR Inten    --     14.9921                 2.2367                 3.0479

                     76                     77                     78
                      A                      A                      A
 Frequencies --   1427.6549              1443.9073              1444.5861
 Red. masses --      1.4179                 1.2714                 1.3820
 Frc consts  --      1.7028                 1.5617                 1.6993
 IR Inten    --     16.9562                 4.3450                 3.5846

                     79                     80                     81
                      A                      A                      A
 Frequencies --   1505.6140              1509.0165              1512.2041
 Red. masses --      1.0815                 1.0802                 1.0869
 Frc consts  --      1.4444                 1.4493                 1.4644
 IR Inten    --      1.7676                 0.4445                 0.6070

                     82                     83                     84
                      A                      A                      A
 Frequencies --   1515.2452              1520.9718              1521.0164
 Red. masses --      1.0927                 1.0746                 1.1029
 Frc consts  --      1.4781                 1.4647                 1.5033
 IR Inten    --      7.9599                 7.2433                17.1280

                     85                     86                     87
                      A                      A                      A
 Frequencies --   1528.0058              1528.5644              1529.9053
 Red. masses --      1.0888                 1.0929                 1.0709
 Frc consts  --      1.4978                 1.5045                 1.4768
 IR Inten    --      5.6598                 0.4565                 2.4529

                     88                     89                     90
                      A                      A                      A
 Frequencies --   1535.7696              1543.5974              1721.7854
 Red. masses --      1.0647                 1.0759                 5.7780
 Frc consts  --      1.4796                 1.5104                10.0923
 IR Inten    --      4.6629                 3.7688                26.5944

                     91                     92                     93
                      A                      A                      A
 Frequencies --   2170.4261              2956.0561              2973.2266
 Red. masses --     12.7397                 1.0725                 1.0720
 Frc consts  --     35.3589                 5.5218                 5.5834
 IR Inten    --    954.9129                48.7507                46.7084

                     94                     95                     96
                      A                      A                      A
 Frequencies --   2996.7813              3003.9240              3024.1200
 Red. masses --      1.0698                 1.0699                 1.0628
 Frc consts  --      5.6604                 5.6881                 5.7265
 IR Inten    --     25.5290                88.8114                39.6020

                     97                     98                     99
                      A                      A                      A
 Frequencies --   3027.2186              3033.9686              3035.4387
 Red. masses --      1.0639                 1.0614                 1.0623
 Frc consts  --      5.7442                 5.7562                 5.7669
 IR Inten    --     19.5329                29.3760                23.0253

                    100                    101                    102
                      A                      A                      A
 Frequencies --   3042.9950              3046.0475              3058.5979
 Red. masses --      1.0534                 1.0483                 1.0975
 Frc consts  --      5.7472                 5.7306                 6.0490
 IR Inten    --      5.2489                19.8711                13.4033

                    103                    104                    105
                      A                      A                      A
 Frequencies --   3064.7992              3068.8084              3078.0178
 Red. masses --      1.0988                 1.0984                 1.0998
 Frc consts  --      6.0809                 6.0947                 6.1390
 IR Inten    --     19.4829                74.9157                80.3181

                    106                    107                    108
                      A                      A                      A
 Frequencies --   3080.3462              3105.1168              3107.6036
 Red. masses --      1.1042                 1.0905                 1.0920
 Frc consts  --      6.1732                 6.1946                 6.2134
 IR Inten    --    104.4337                22.9735                21.1286

                    109                    110                    111
                      A                      A                      A
 Frequencies --   3109.2664              3116.6517              3116.7296
 Red. masses --      1.1015                 1.1010                 1.0947
 Frc consts  --      6.2741                 6.3008                 6.2656
 IR Inten    --     47.5361                41.5743                53.6887

                    112                    113                    114
                      A                      A                      A
 Frequencies --   3118.7090              3157.6720              3179.1992
 Red. masses --      1.0953                 1.0898                 1.0865
 Frc consts  --      6.2765                 6.4023                 6.4700
 IR Inten    --     33.4123                15.0941                11.9896

 - Thermochemistry -
 -------------------
 Temperature   298.150 Kelvin.  Pressure   1.00000 Atm.
 Atom     1 has atomic number  6 and mass  12.00000

 Molecular mass:   237.17288 amu.
 Principal axes and moments of inertia in atomic units:
                           1         2         3
     Eigenvalues --  2691.320318678.08326**********
           X            0.99996   0.00808   0.00266
           Y           -0.00808   0.99997   0.00153
           Z           -0.00265  -0.00155   1.00000
 This molecule is an asymmetric top.
 Rotational symmetry number  1.
 Warning -- assumption of classical behavior for rotation
           may cause significant error
 Rotational temperatures (Kelvin)      0.03218     0.00998     0.00825
 Rotational constants (GHZ):           0.67058     0.20797     0.17192
 Zero-point vibrational energy     933696.9 (Joules/Mol)
                                  223.15892 (Kcal/Mol)
 Warning -- explicit consideration of  28 degrees of freedom as
           vibrations may cause significant error
 Vibrational temperatures:     24.86    33.85    41.55    64.45    87.92
          (Kelvin)            107.67   135.02   145.56   194.24   252.31
                              299.97   309.40   329.55   375.01   407.29
                              440.71   460.89   500.56   558.19   588.16
                              609.60   622.51   661.59   705.16   716.55
                              774.39   823.93   853.48  1005.34  1037.91
                             1071.39  1098.30  1192.37  1214.37  1220.06
                             1257.26  1260.05  1304.56  1341.60  1358.00
                             1398.57  1414.98  1448.69  1477.02  1499.21
                             1513.14  1534.06  1563.97  1593.51  1594.23
                             1639.67  1645.88  1658.29  1663.47  1735.22
                             1738.49  1749.66  1791.56  1812.67  1832.18
                             1858.99  1877.13  1891.43  1914.68  1933.82
                             1937.27  1961.00  1969.75  1981.47  1991.16
                             1999.44  2023.46  2034.26  2038.56  2048.35
                             2054.08  2077.46  2078.44  2166.24  2171.14
                             2175.72  2180.10  2188.34  2188.40  2198.46
                             2199.26  2201.19  2209.63  2220.89  2477.27
                             3122.76  4253.11  4277.81  4311.70  4321.98
                             4351.03  4355.49  4365.20  4367.32  4378.19
                             4382.58  4400.64  4409.56  4415.33  4428.58
                             4431.93  4467.57  4471.15  4473.54  4484.17
                             4484.28  4487.13  4543.19  4574.16

 Zero-point correction=                           0.355626 (Hartree/Particle)
 Thermal correction to Energy=                    0.374006
 Thermal correction to Enthalpy=                  0.374950
 Thermal correction to Gibbs Free Energy=         0.305901
 Sum of electronic and zero-point Energies=           -752.184177
 Sum of electronic and thermal Energies=              -752.165797
 Sum of electronic and thermal Enthalpies=            -752.164853
 Sum of electronic and thermal Free Energies=         -752.233902

                     E (Thermal)             CV                S
                      KCal/Mol        Cal/Mol-Kelvin    Cal/Mol-Kelvin
 Total                  234.692             67.813            145.327
 Electronic               0.000              0.000              0.000
 Translational            0.889              2.981             42.292
 Rotational               0.889              2.981             33.860
 Vibrational            232.915             61.851             69.174
 Vibration     1          0.593              1.986              6.925
 Vibration     2          0.593              1.985              6.312
 Vibration     3          0.593              1.984              5.905
 Vibration     4          0.595              1.979              5.035
 Vibration     5          0.597              1.973              4.421
 Vibration     6          0.599              1.966              4.022
 Vibration     7          0.603              1.954              3.578
 Vibration     8          0.604              1.948              3.432
 Vibration     9          0.613              1.918              2.874
 Vibration    10          0.627              1.873              2.377
 Vibration    11          0.642              1.828              2.057
 Vibration    12          0.645              1.818              2.000
 Vibration    13          0.652              1.797              1.886
 Vibration    14          0.669              1.745              1.657
 Vibration    15          0.682              1.705              1.515
 Vibration    16          0.697              1.662              1.382
 Vibration    17          0.706              1.635              1.308
 Vibration    18          0.726              1.580              1.176
 Vibration    19          0.756              1.496              1.008
 Vibration    20          0.773              1.451              0.931
 Vibration    21          0.786              1.419              0.880
 Vibration    22          0.794              1.399              0.850
 Vibration    23          0.818              1.339              0.767
 Vibration    24          0.846              1.272              0.683
 Vibration    25          0.854              1.254              0.663
 Vibration    26          0.893              1.166              0.569
 Vibration    27          0.929              1.090              0.499
 Vibration    28          0.951              1.046              0.461

                           ! Non-Optimized Parameters !
 Normal termination of Gaussian 16 at Sun Dec 13 20:24:47 2020.

 ----------------------------------------------------------------------
 # B3LYP/6-311++G(d,p) empiricaldispersion=gd3bj scf=xqc pop=npa geom=c
 heck
 ----------------------------------------------------------------------

 ---------------------------------------
 CID_145808329_JID_7217_Energie_neutraal
 ---------------------------------------
 Structure from the checkpoint file:  "JID_7217.chk"
 Charge =  0 Multiplicity = 1

 SCF Done:  E(RB3LYP) =  -752.752656550     A.U. after   15 cycles
 Normal termination of Gaussian 16 at Sun Dec 13 20:32:56 2020.

 ----------------------------------------------------------------------
 # B3LYP/6-311++G(d,p) empiricaldispersion=gd3bj scf=xqc pop=npa geom=c
 heck
 ----------------------------------------------------------------------

 -------------------------------------
 CID_145808329_JID_7217_Energie_kation
 -------------------------------------
 Structure from the checkpoint file:  "JID_7217.chk"
 Charge =  1 Multiplicity = 2

 SCF Done:  E(UB3LYP) =  -752.478457421     A.U. after   24 cycles
 Normal termination of Gaussian 16 at Sun Dec 13 20:51:15 2020.
 Gaussian 16:  ES64L-G16RevA.03 25-Dec-2016

 ----------------------------------------------------------------------
 # B3LYP/6-311++G(d,p) empiricaldispersion=gd3bj scf=xqc pop=npa geom=c
 heck
 ----------------------------------------------------------------------

 ------------------------------------
 CID_145808329_JID_7217_Energie_anion
 ------------------------------------
 Structure from the checkpoint file:  "JID_7217.chk"
 Charge = -1 Multiplicity = 2

                         Standard orientation:
 ---------------------------------------------------------------------
 Center     Atomic      Atomic             Coordinates (Angstroms)
 Number     Number       Type             X           Y           Z
 ---------------------------------------------------------------------
      1          6           0        5.916395   -0.698347    0.176311
      2          6           0        4.797143   -0.561797   -0.860079
      3          6           0        3.417970   -1.005263   -0.348927
      4          6           0        2.896922   -0.234473    0.874622
      5          6           0        2.799942    1.287792    0.692594
      6          6           0        1.929259    1.743909   -0.499032
      7          6           0        0.533993    1.193267   -0.456623
      8          6           0       -0.562308    1.919145   -0.190092
      9          6           0       -1.901709    1.348984   -0.091066
     10          6           0       -2.988064    2.086260    0.149787
     11          8           0       -4.004398    2.660857    0.276369
     12          7           0       -2.078352   -0.072631   -0.135264
     13          6           0       -1.990387   -0.737111    1.169304
     14          6           0       -1.889087   -2.243726    0.951169
     15          8           0       -2.990044   -2.727675    0.194857
     16          6           0       -3.050771   -2.091050   -1.073482
     17          6           0       -3.197188   -0.577876   -0.929304
     18          1           0        5.753817   -0.040758    1.037480
     19          1           0        6.889513   -0.440264   -0.256034
     20          1           0        5.980059   -1.726796    0.553151
     21          1           0        4.747292    0.478759   -1.207116
     22          1           0        5.049464   -1.161496   -1.744441
     23          1           0        2.693326   -0.920882   -1.169708
     24          1           0        3.461184   -2.073460   -0.094005
     25          1           0        1.906378   -0.627819    1.138267
     26          1           0        3.540030   -0.441679    1.739274
     27          1           0        2.385305    1.723082    1.610894
     28          1           0        3.805478    1.712574    0.573808
     29          1           0        1.896981    2.840734   -0.510885
     30          1           0        2.416832    1.437771   -1.435501
     31          1           0        0.407394    0.127268   -0.632635
     32          1           0       -0.476750    2.991280   -0.016390
     33          1           0       -2.872730   -0.514836    1.795046
     34          1           0       -1.099212   -0.365923    1.684831
     35          1           0       -0.943175   -2.474799    0.434046
     36          1           0       -1.909044   -2.775891    1.906420
     37          1           0       -3.914512   -2.514737   -1.593662
     38          1           0       -2.139737   -2.313144   -1.652624
     39          1           0       -4.174157   -0.356082   -0.461418
     40          1           0       -3.172393   -0.098224   -1.912848
 ---------------------------------------------------------------------

 SCF Done:  E(UB3LYP) =  -752.749783695     A.U. after   33 cycles
 SCF Done:  E(UB3LYP) =  -752.749783695     a.u. after    1 cycles

 The electronic state is 2-A.
 Alpha  occ. eigenvalues --  -19.03296 -19.02006 -14.20299 -10.12239 -10.11943
 Alpha  occ. eigenvalues --  -10.10581 -10.09473 -10.09085 -10.07085 -10.06980
 Alpha  occ. eigenvalues --  -10.06696 -10.06507 -10.06449 -10.06406 -10.06378
 Alpha  occ. eigenvalues --  -10.05596 -10.03698  -0.95428  -0.94906  -0.82278
 Alpha  occ. eigenvalues --   -0.71685  -0.68923  -0.67647  -0.66423  -0.62946
 Alpha  occ. eigenvalues --   -0.59583  -0.56780  -0.55780  -0.54852  -0.50624
 Alpha  occ. eigenvalues --   -0.47747  -0.45856  -0.43505  -0.42394  -0.39076
 Alpha  occ. eigenvalues --   -0.38347  -0.37717  -0.37038  -0.36619  -0.36189
 Alpha  occ. eigenvalues --   -0.35534  -0.34075  -0.33214  -0.32391  -0.31716
 Alpha  occ. eigenvalues --   -0.30639  -0.30440  -0.29452  -0.29076  -0.28992
 Alpha  occ. eigenvalues --   -0.27346  -0.26367  -0.26246  -0.26138  -0.26019
 Alpha  occ. eigenvalues --   -0.24486  -0.23633  -0.22355  -0.21857  -0.21750
 Alpha  occ. eigenvalues --   -0.21161  -0.17982  -0.16810  -0.12232  -0.06780
 Alpha  occ. eigenvalues --    0.04425
 Alpha virt. eigenvalues --    0.05578   0.07108   0.07585   0.07776   0.08247
 Alpha virt. eigenvalues --    0.08697   0.09390   0.10201   0.10239   0.10616
 Alpha virt. eigenvalues --    0.11084   0.11289   0.11763   0.11867   0.12058

  Beta  occ. eigenvalues --  -19.03294 -19.01519 -14.20185 -10.12235 -10.11932
  Beta  occ. eigenvalues --  -10.09965 -10.09470 -10.09081 -10.07075 -10.07056
  Beta  occ. eigenvalues --  -10.06687 -10.06505 -10.06443 -10.06374 -10.06373
  Beta  occ. eigenvalues --  -10.05535 -10.03696  -0.94909  -0.94482  -0.82082
  Beta  occ. eigenvalues --   -0.71669  -0.68847  -0.67626  -0.66242  -0.62782
  Beta  occ. eigenvalues --   -0.59488  -0.56542  -0.55724  -0.54581  -0.50485
  Beta  occ. eigenvalues --   -0.47624  -0.45733  -0.43384  -0.42068  -0.38931
  Beta  occ. eigenvalues --   -0.38319  -0.37642  -0.37010  -0.36558  -0.35926
  Beta  occ. eigenvalues --   -0.35105  -0.33835  -0.33101  -0.32234  -0.31570
  Beta  occ. eigenvalues --   -0.30574  -0.30304  -0.29343  -0.28667  -0.28027
  Beta  occ. eigenvalues --   -0.26457  -0.26300  -0.26181  -0.26006  -0.25587
  Beta  occ. eigenvalues --   -0.24436  -0.23540  -0.22336  -0.21816  -0.21706
  Beta  occ. eigenvalues --   -0.21123  -0.17933  -0.16784  -0.12049  -0.06626
  Beta virt. eigenvalues --    0.06286   0.07155   0.07703   0.07885   0.08318
  Beta virt. eigenvalues --    0.08859   0.09460   0.10200   0.10302   0.10593
  Beta virt. eigenvalues --    0.11079   0.11331   0.11746   0.11868   0.11985

 Mulliken charges and spin densities:
               1          2
     1  C    0.917161  -1.558074
     2  C   -0.951313   0.716223
     3  C    0.159312  -0.351455
     4  C    0.132429  -0.241871
     5  C   -0.334604  -0.130323
     6  C   -0.271041   0.089995
     7  C    0.239904   0.009927
     8  C   -0.380890   0.139453
     9  C    0.138247  -0.033480
    10  C   -1.022878   0.367967
    11  O   -0.297157   0.138982
    12  N    0.332152  -0.023925
    13  C   -0.223664   0.039261
    14  C   -0.033726  -0.301143
    15  O   -0.136983   0.010535
    16  C   -0.312984  -0.198099
    17  C    0.006775   0.075987
    18  H   -0.045037   0.178063
    19  H   -0.422564   0.561686
    20  H   -0.128449   0.265637
    21  H    0.160020  -0.026162
    22  H   -0.174146   0.316609
    23  H    0.033049   0.130479
    24  H   -0.110513   0.255341
    25  H    0.201537  -0.062157
    26  H   -0.029287   0.193186
    27  H    0.159801  -0.016410
    28  H    0.028130   0.100296
    29  H    0.154423  -0.010822
    30  H    0.060702   0.070710
    31  H    0.310554  -0.184882
    32  H    0.153461  -0.003795
    33  H    0.088891   0.048146
    34  H    0.066661   0.071010
    35  H    0.136479   0.021043
    36  H   -0.006493   0.175234
    37  H    0.085498   0.076559
    38  H    0.056489   0.066163
    39  H    0.147934   0.000802
    40  H    0.112120   0.023308
 Sum of Mulliken charges =  -1.00000   1.00000

 Dipole moment (field-independent basis, Debye):
    X=             -2.3762    Y=             -0.3741    Z=             -0.5831  Tot=              2.4752
 Quadrupole moment (field-independent basis, Debye-Ang):
   XX=           -222.8540   YY=           -146.1739   ZZ=           -122.7183
   XY=             19.9546   XZ=              5.5230   YZ=              0.8322

 Summary of Natural Population Analysis:

                                       Natural Population
                Natural  -----------------------------------------------
    Atom  No    Charge         Core      Valence    Rydberg      Total
 -----------------------------------------------------------------------
      C    1   -0.28817      0.99967     2.28310    0.00541     3.28817
      C    2   -0.19349      0.99964     2.18471    0.00913     3.19349
      C    3   -0.19208      0.99963     2.18354    0.00892     3.19208
      C    4   -0.19472      0.99963     2.18678    0.00831     3.19472
      C    5   -0.18830      0.99963     2.18012    0.00855     3.18830
      C    6   -0.20022      0.99962     2.19242    0.00817     3.20022
      C    7   -0.14111      0.99953     2.12991    0.01166     3.14111
      C    8   -0.07913      0.99948     2.07134    0.00831     3.07913
      C    9   -0.10231      0.99938     2.08937    0.01356     3.10231
      C   10    0.43863      0.99953     1.54322    0.01862     2.56137
      O   11   -0.20545      0.99987     3.19686    0.00872     4.20545
      N   12   -0.26152      0.99969     2.74906    0.01277     3.76152
      C   13   -0.09895      0.99962     2.08690    0.01243     3.09895
      C   14   -0.01419      0.99958     2.00274    0.01187     3.01419
      O   15   -0.30150      0.99989     3.29169    0.00992     4.30150
      C   16   -0.01288      0.99958     2.00098    0.01232     3.01288
      C   17   -0.09526      0.99962     2.08688    0.00875     3.09526
      H   18    0.09576      0.00000     0.40324    0.00099     0.40424
      H   19    0.09901      0.00000     0.39983    0.00116     0.40099
      H   20    0.09607      0.00000     0.40273    0.00119     0.40393
      H   21    0.09257      0.00000     0.40621    0.00122     0.40743
      H   22    0.09505      0.00000     0.40395    0.00099     0.40495
      H   23    0.09668      0.00000     0.40184    0.00148     0.40332
      H   24    0.09529      0.00000     0.40366    0.00105     0.40471
      H   25    0.09975      0.00000     0.39897    0.00127     0.40025
      H   26    0.09529      0.00000     0.40365    0.00107     0.40471
      H   27    0.09571      0.00000     0.40328    0.00102     0.40429
      H   28    0.09136      0.00000     0.40739    0.00125     0.40864
      H   29    0.09462      0.00000     0.40407    0.00131     0.40538
      H   30    0.09323      0.00000     0.40551    0.00126     0.40677
      H   31    0.09444      0.00000     0.40274    0.00282     0.40556
      H   32    0.09310      0.00000     0.40589    0.00101     0.40690
      H   33    0.08194      0.00000     0.41619    0.00187     0.41806
      H   34    0.10352      0.00000     0.39521    0.00127     0.39648
      H   35    0.07941      0.00000     0.41875    0.00184     0.42059
      H   36    0.08923      0.00000     0.40945    0.00131     0.41077
      H   37    0.08723      0.00000     0.41145    0.00133     0.41277
      H   38    0.07856      0.00000     0.41957    0.00186     0.42144
      H   39    0.08146      0.00000     0.41598    0.00256     0.41854
      H   40    0.10134      0.00000     0.39738    0.00128     0.39866
 =======================================================================
   * Total *    0.00000     16.99358    47.79657    0.20985    65.00000

 Normal termination of Gaussian 16 at Sun Dec 13 21:17:19 2020.
