 Gaussian 16, Revision A.03,

 -----------------------------------------------------------
 # opt freq B3LYP/6-31G(d) empiricaldispersion=gd3bj scf=xqc
 -----------------------------------------------------------

 ------------------------------
 CID_55241639_JID_7657_neutraal
 ------------------------------
 Symbolic Z-matrix:
 Charge =  0 Multiplicity = 1

 SCF Done:  E(RB3LYP) =  -767.411684995     A.U. after   14 cycles
 SCF Done:  E(RB3LYP) =  -767.416548414     A.U. after   11 cycles
 SCF Done:  E(RB3LYP) =  -767.417314396     A.U. after   11 cycles
 SCF Done:  E(RB3LYP) =  -767.417635183     A.U. after   11 cycles
 SCF Done:  E(RB3LYP) =  -767.417891566     A.U. after   12 cycles
 SCF Done:  E(RB3LYP) =  -767.418090166     A.U. after   11 cycles
 SCF Done:  E(RB3LYP) =  -767.418341989     A.U. after   12 cycles
 SCF Done:  E(RB3LYP) =  -767.418632656     A.U. after   12 cycles
 SCF Done:  E(RB3LYP) =  -767.418657497     A.U. after   14 cycles
 SCF Done:  E(RB3LYP) =  -767.418583462     A.U. after   14 cycles
 SCF Done:  E(RB3LYP) =  -767.419480561     A.U. after   10 cycles
 SCF Done:  E(RB3LYP) =  -767.419486166     A.U. after    9 cycles
 SCF Done:  E(RB3LYP) =  -767.419488976     A.U. after    9 cycles
 SCF Done:  E(RB3LYP) =  -767.419488977     A.U. after    7 cycles
 SCF Done:  E(RB3LYP) =  -767.419488760     A.U. after    7 cycles
 Optimization completed.
    -- Stationary point found.
 Normal termination of Gaussian 16 at Fri Dec 11 13:17:48 2020.

 --------------------------------------------------------------------
 #N Geom=AllCheck Guess=TCheck SCRF=Check GenChk RB3LYP/6-31G(d) Freq
 --------------------------------------------------------------------

 Structure from the checkpoint file:  "JID_7657.chk"
 ------------------------------
 CID_55241639_JID_7657_neutraal
 ------------------------------
 Charge =  0 Multiplicity = 1

 SCF Done:  E(RB3LYP) =  -767.419488760     A.U. after    1 cycles

  Exact polarizability: 210.889  -1.438 145.210   7.112   0.110 108.182
 Approx polarizability: 265.182  -8.007 236.768  17.282   1.687 161.150

                      1                      2                      3
                      A                      A                      A
 Frequencies --     20.8439                22.8034                49.6886
 Red. masses --      3.7447                 4.1771                 4.3612
 Frc consts  --      0.0010                 0.0013                 0.0063
 IR Inten    --      0.0822                 0.2662                 0.1627

                      4                      5                      6
                      A                      A                      A
 Frequencies --     63.8766                90.2553               114.9862
 Red. masses --      3.5535                 3.7798                 3.4316
 Frc consts  --      0.0085                 0.0181                 0.0267
 IR Inten    --      0.0002                 2.3750                 5.2495

                      7                      8                      9
                      A                      A                      A
 Frequencies --    141.0340               161.3777               199.0963
 Red. masses --      3.1519                 1.7380                 1.5357
 Frc consts  --      0.0369                 0.0267                 0.0359
 IR Inten    --      0.6939                 0.2002                 0.5611

                     10                     11                     12
                      A                      A                      A
 Frequencies --    221.0250               240.0264               247.1627
 Red. masses --      3.2929                 3.6528                 2.0170
 Frc consts  --      0.0948                 0.1240                 0.0726
 IR Inten    --      2.3537                 4.2393                 2.0417

                     13                     14                     15
                      A                      A                      A
 Frequencies --    310.5724               320.8854               342.8085
 Red. masses --      2.5942                 2.7831                 3.1604
 Frc consts  --      0.1474                 0.1688                 0.2188
 IR Inten    --      1.9193                 1.5416                 4.7542

                     16                     17                     18
                      A                      A                      A
 Frequencies --    374.1263               382.6523               421.3735
 Red. masses --      3.0118                 2.9934                 2.5104
 Frc consts  --      0.2484                 0.2582                 0.2626
 IR Inten    --      1.9668                 1.3785                 2.0327

                     19                     20                     21
                      A                      A                      A
 Frequencies --    435.5131               463.5467               492.7169
 Red. masses --      4.0212                 3.4041                 3.9177
 Frc consts  --      0.4494                 0.4310                 0.5604
 IR Inten    --      1.7335                 2.5939                 3.5238

                     22                     23                     24
                      A                      A                      A
 Frequencies --    542.3851               546.4591               599.6380
 Red. masses --      2.2059                 2.5337                 3.8431
 Frc consts  --      0.3823                 0.4458                 0.8142
 IR Inten    --      4.3657                14.1096                11.8068

                     25                     26                     27
                      A                      A                      A
 Frequencies --    643.1668               657.8391               744.0723
 Red. masses --      2.8571                 5.7522                 1.7136
 Frc consts  --      0.6963                 1.4666                 0.5590
 IR Inten    --      3.4072                 0.9969               107.9001

                     28                     29                     30
                      A                      A                      A
 Frequencies --    760.3271               791.7396               808.1034
 Red. masses --      3.2218                 4.0805                 2.2915
 Frc consts  --      1.0973                 1.5070                 0.8817
 IR Inten    --     31.0152                 7.9793                 5.0808

                     31                     32                     33
                      A                      A                      A
 Frequencies --    843.1876               859.2190               873.1405
 Red. masses --      1.6338                 2.3586                 1.7725
 Frc consts  --      0.6844                 1.0259                 0.7962
 IR Inten    --     29.1269                 4.0509                 4.2562

                     34                     35                     36
                      A                      A                      A
 Frequencies --    875.6264               894.4492               930.4545
 Red. masses --      3.1415                 2.3212                 2.4340
 Frc consts  --      1.4191                 1.0941                 1.2416
 IR Inten    --      4.0899                 7.9899                18.1366

                     37                     38                     39
                      A                      A                      A
 Frequencies --    959.2856               973.1232               982.5492
 Red. masses --      1.3898                 2.0318                 1.3337
 Frc consts  --      0.7535                 1.1336                 0.7586
 IR Inten    --     10.8850                 4.5963                 0.2415

                     40                     41                     42
                      A                      A                      A
 Frequencies --    998.6958              1006.7609              1035.9682
 Red. masses --      1.5287                 2.2461                 2.1720
 Frc consts  --      0.8984                 1.3413                 1.3734
 IR Inten    --     11.2218                 4.5622                 2.8700

                     43                     44                     45
                      A                      A                      A
 Frequencies --   1041.3780              1044.1814              1068.8103
 Red. masses --      2.8223                 1.8492                 5.8267
 Frc consts  --      1.8033                 1.1879                 3.9217
 IR Inten    --      1.3616                31.2572                81.5159

                     46                     47                     48
                      A                      A                      A
 Frequencies --   1082.3628              1130.5537              1158.2304
 Red. masses --      2.0303                 4.4059                 1.2947
 Frc consts  --      1.4014                 3.3180                 1.0233
 IR Inten    --      4.1082                98.2477                25.9005

                     49                     50                     51
                      A                      A                      A
 Frequencies --   1167.2057              1185.5379              1186.0492
 Red. masses --      2.2185                 3.6160                 1.2681
 Frc consts  --      1.7808                 2.9944                 1.0510
 IR Inten    --     15.8492                48.0758                 0.5276

                     52                     53                     54
                      A                      A                      A
 Frequencies --   1191.8784              1210.4902              1212.1035
 Red. masses --      2.5164                 1.3911                 1.3039
 Frc consts  --      2.1062                 1.2009                 1.1287
 IR Inten    --     10.8460                 5.9083                 3.9154

                     55                     56                     57
                      A                      A                      A
 Frequencies --   1239.9202              1243.0916              1268.3142
 Red. masses --      1.5041                 1.9451                 1.3068
 Frc consts  --      1.3624                 1.7709                 1.2385
 IR Inten    --     13.8039                 8.8537                 4.1482

                     58                     59                     60
                      A                      A                      A
 Frequencies --   1310.6276              1317.6238              1323.4387
 Red. masses --      1.4032                 1.7014                 1.9115
 Frc consts  --      1.4202                 1.7403                 1.9726
 IR Inten    --      3.6418                 1.5157               170.1136

                     61                     62                     63
                      A                      A                      A
 Frequencies --   1330.1197              1330.8302              1342.6178
 Red. masses --      1.2554                 1.5607                 1.7774
 Frc consts  --      1.3086                 1.6286                 1.8877
 IR Inten    --      9.9763                 0.3210               106.2987

                     64                     65                     66
                      A                      A                      A
 Frequencies --   1351.2088              1365.1901              1395.3668
 Red. masses --      1.7319                 1.3450                 1.4069
 Frc consts  --      1.8631                 1.4770                 1.6139
 IR Inten    --     49.6780                 4.7457                 5.0690

                     67                     68                     69
                      A                      A                      A
 Frequencies --   1399.8892              1403.5173              1417.5077
 Red. masses --      1.4182                 1.4926                 1.4595
 Frc consts  --      1.6375                 1.7323                 1.7279
 IR Inten    --      8.7926                25.4744                11.0267

                     70                     71                     72
                      A                      A                      A
 Frequencies --   1427.5455              1444.8967              1451.4707
 Red. masses --      1.4431                 1.3668                 1.9862
 Frc consts  --      1.7328                 1.6812                 2.4654
 IR Inten    --     25.2595                 4.9140                87.1414

                     73                     74                     75
                      A                      A                      A
 Frequencies --   1487.0009              1499.1886              1509.0770
 Red. masses --      1.3733                 1.0840                 1.0919
 Frc consts  --      1.7891                 1.4354                 1.4651
 IR Inten    --     27.8824                 5.2128                 3.3143

                     76                     77                     78
                      A                      A                      A
 Frequencies --   1509.1561              1518.6862              1520.9901
 Red. masses --      1.0492                 1.1513                 1.0934
 Frc consts  --      1.4079                 1.5646                 1.4904
 IR Inten    --      4.4515                20.6426                 1.3809

                     79                     80                     81
                      A                      A                      A
 Frequencies --   1522.1308              1527.5588              1533.3710
 Red. masses --      1.1677                 1.0601                 1.1052
 Frc consts  --      1.5940                 1.4574                 1.5310
 IR Inten    --     27.7520                26.0755                10.0088

                     82                     83                     84
                      A                      A                      A
 Frequencies --   1540.9825              1549.3246              1628.4412
 Red. masses --      1.1597                 2.0562                 6.7210
 Frc consts  --      1.6226                 2.9081                10.5010
 IR Inten    --     29.5952               145.3745                29.5603

                     85                     86                     87
                      A                      A                      A
 Frequencies --   1668.7886              2951.0236              2965.2456
 Red. masses --      5.7466                 1.0718                 1.0724
 Frc consts  --      9.4290                 5.4991                 5.5557
 IR Inten    --    120.7452                75.8172                48.6175

                     88                     89                     90
                      A                      A                      A
 Frequencies --   3001.6740              3014.4491              3025.9509
 Red. masses --      1.0706                 1.0737                 1.0647
 Frc consts  --      5.6835                 5.7485                 5.7436
 IR Inten    --     30.4757                18.9835                55.1552

                     91                     92                     93
                      A                      A                      A
 Frequencies --   3027.5882              3032.8079              3044.4189
 Red. masses --      1.0856                 1.0653                 1.0631
 Frc consts  --      5.8630                 5.7734                 5.8057
 IR Inten    --     18.5389                69.1671                21.2825

                     94                     95                     96
                      A                      A                      A
 Frequencies --   3063.3401              3065.0788              3073.1409
 Red. masses --      1.0298                 1.0982                 1.1031
 Frc consts  --      5.6937                 6.0787                 6.1379
 IR Inten    --     53.3524                29.5764                58.5320

                     97                     98                     99
                      A                      A                      A
 Frequencies --   3089.0417              3098.1404              3108.9956
 Red. masses --      1.1043                 1.0958                 1.0927
 Frc consts  --      6.2086                 6.1968                 6.2227
 IR Inten    --     50.5632                47.1193                55.3484

                    100                    101                    102
                      A                      A                      A
 Frequencies --   3132.3914              3166.7169              3179.9439
 Red. masses --      1.1068                 1.1064                 1.0896
 Frc consts  --      6.3986                 6.5369                 6.4917
 IR Inten    --     28.5484                30.9622                14.6863

                    103                    104                    105
                      A                      A                      A
 Frequencies --   3200.7115              3226.8953              3516.0045
 Red. masses --      1.0905                 1.0938                 1.0739
 Frc consts  --      6.5820                 6.7103                 7.8223
 IR Inten    --     10.8399                 6.7865                 0.0266

 - Thermochemistry -
 -------------------
 Temperature   298.150 Kelvin.  Pressure   1.00000 Atm.
 Atom     1 has atomic number  6 and mass  12.00000

 Molecular mass:   236.15248 amu.
 Principal axes and moments of inertia in atomic units:
                           1         2         3
     Eigenvalues --  1330.30368********************
           X            0.99999   0.00351  -0.00320
           Y           -0.00354   0.99995  -0.00946
           Z            0.00317   0.00948   0.99995
 This molecule is an asymmetric top.
 Rotational symmetry number  1.
 Warning -- assumption of classical behavior for rotation
           may cause significant error
 Rotational temperatures (Kelvin)      0.06511     0.00748     0.00720
 Rotational constants (GHZ):           1.35664     0.15575     0.14997
 Zero-point vibrational energy     852236.3 (Joules/Mol)
                                  203.68935 (Kcal/Mol)
 Warning -- explicit consideration of  24 degrees of freedom as
           vibrations may cause significant error
 Vibrational temperatures:     29.99    32.81    71.49    91.90   129.86
          (Kelvin)            165.44   202.92   232.19   286.46   318.01
                              345.34   355.61   446.84   461.68   493.22
                              538.28   550.55   606.26   626.61   666.94
                              708.91   780.37   786.23   862.75   925.37
                              946.48  1070.55  1093.94  1139.14  1162.68
                             1213.16  1236.22  1256.25  1259.83  1286.91
                             1338.72  1380.20  1400.11  1413.67  1436.90
                             1448.50  1490.53  1498.31  1502.34  1537.78
                             1557.28  1626.61  1666.44  1679.35  1705.72
                             1706.46  1714.85  1741.63  1743.95  1783.97
                             1788.53  1824.82  1885.70  1895.77  1904.13
                             1913.75  1914.77  1931.73  1944.09  1964.20
                             2007.62  2014.13  2019.35  2039.48  2053.92
                             2078.88  2088.34  2139.46  2157.00  2171.23
                             2171.34  2185.05  2188.37  2190.01  2197.82
                             2206.18  2217.13  2229.13  2342.96  2401.01
                             4245.86  4266.33  4318.74  4337.12  4353.67
                             4356.02  4363.53  4380.24  4407.46  4409.96
                             4421.56  4444.44  4457.53  4473.15  4506.81
                             4556.20  4575.23  4605.11  4642.78  5058.75

 Zero-point correction=                           0.324600 (Hartree/Particle)
 Thermal correction to Energy=                    0.340795
 Thermal correction to Enthalpy=                  0.341739
 Thermal correction to Gibbs Free Energy=         0.278649
 Sum of electronic and zero-point Energies=           -767.094889
 Sum of electronic and thermal Energies=              -767.078694
 Sum of electronic and thermal Enthalpies=            -767.077750
 Sum of electronic and thermal Free Energies=         -767.140839

                     E (Thermal)             CV                S
                      KCal/Mol        Cal/Mol-Kelvin    Cal/Mol-Kelvin
 Total                  213.852             61.706            132.783
 Electronic               0.000              0.000              0.000
 Translational            0.889              2.981             42.279
 Rotational               0.889              2.981             33.583
 Vibrational            212.074             55.744             56.920
 Vibration     1          0.593              1.986              6.552
 Vibration     2          0.593              1.985              6.374
 Vibration     3          0.595              1.978              4.830
 Vibration     4          0.597              1.972              4.334
 Vibration     5          0.602              1.956              3.655
 Vibration     6          0.608              1.937              3.183
 Vibration     7          0.615              1.912              2.790
 Vibration     8          0.622              1.890              2.534
 Vibration     9          0.637              1.841              2.141
 Vibration    10          0.648              1.809              1.951
 Vibration    11          0.657              1.779              1.803
 Vibration    12          0.661              1.767              1.751
 Vibration    13          0.699              1.654              1.359
 Vibration    14          0.706              1.634              1.306
 Vibration    15          0.722              1.590              1.199
 Vibration    16          0.745              1.525              1.063
 Vibration    17          0.752              1.507              1.029
 Vibration    18          0.784              1.424              0.887
 Vibration    19          0.796              1.393              0.841
 Vibration    20          0.821              1.331              0.756
 Vibration    21          0.848              1.266              0.677
 Vibration    22          0.897              1.156              0.560
 Vibration    23          0.902              1.147              0.552
 Vibration    24          0.958              1.033              0.450

 Optimization completed.
    -- Stationary point found.
 Normal termination of Gaussian 16 at Fri Dec 11 13:28:44 2020.

 ----------------------------------------------------------------------
 # B3LYP/6-311++G(d,p) empiricaldispersion=gd3bj scf=xqc pop=npa geom=c
 heck
 ----------------------------------------------------------------------

 --------------------------------------
 CID_55241639_JID_7657_Energie_neutraal
 --------------------------------------
 Structure from the checkpoint file:  "JID_7657.chk"
 Charge =  0 Multiplicity = 1

 SCF Done:  E(RB3LYP) =  -767.632875257     A.U. after   14 cycles
 Normal termination of Gaussian 16 at Fri Dec 11 13:33:36 2020.

 ----------------------------------------------------------------------
 # B3LYP/6-311++G(d,p) empiricaldispersion=gd3bj scf=xqc pop=npa geom=c
 heck
 ----------------------------------------------------------------------

 ------------------------------------
 CID_55241639_JID_7657_Energie_kation
 ------------------------------------
 Structure from the checkpoint file:  "JID_7657.chk"
 Charge =  1 Multiplicity = 2

 SCF Done:  E(UB3LYP) =  -767.346190087     A.U. after   25 cycles
 Normal termination of Gaussian 16 at Fri Dec 11 13:45:09 2020.
 Gaussian 16:  ES64L-G16RevA.03 25-Dec-2016

 ----------------------------------------------------------------------
 # B3LYP/6-311++G(d,p) empiricaldispersion=gd3bj scf=xqc pop=npa geom=c
 heck
 ----------------------------------------------------------------------

 -----------------------------------
 CID_55241639_JID_7657_Energie_anion
 -----------------------------------
 Structure from the checkpoint file:  "JID_7657.chk"
 Charge = -1 Multiplicity = 2

                         Standard orientation:
 ---------------------------------------------------------------------
 Center     Atomic      Atomic             Coordinates (Angstroms)
 Number     Number       Type             X           Y           Z
 ---------------------------------------------------------------------
      1          6           0        6.171567    0.439476    0.481537
      2          8           0        5.348334   -0.708258    0.266246
      3          6           0        4.033919   -0.479968    0.042170
      4          7           0        3.577755    0.767782    0.033148
      5          6           0        2.266819    0.950350   -0.194790
      6          6           0        1.360620   -0.083735   -0.420010
      7          6           0        1.872178   -1.390554   -0.394481
      8          6           0        3.220155   -1.606827   -0.165446
      9          6           0       -0.101257    0.189547   -0.697763
     10          7           0       -0.590686    1.307985    0.097232
     11          6           0       -1.897823    1.858955   -0.241810
     12          6           0       -3.166292    0.997152   -0.027060
     13          6           0       -3.172276    0.256089    1.318119
     14          6           0       -4.459753   -0.565130    1.471345
     15          6           0       -4.673493   -1.444288    0.238593
     16          8           0       -4.687826   -0.676443   -0.957314
     17          6           0       -3.454222    0.000792   -1.158993
     18          1           0        7.176693    0.045971    0.642025
     19          1           0        5.837398    1.004823    1.356735
     20          1           0        6.155124    1.104200   -0.387423
     21          1           0        1.913903    1.978068   -0.185586
     22          1           0        1.205548   -2.235582   -0.552725
     23          1           0        3.654468   -2.599689   -0.134597
     24          1           0       -0.241011    0.463645   -1.753811
     25          1           0       -0.662762   -0.751059   -0.555623
     26          1           0       -0.535517    1.082946    1.087301
     27          1           0       -2.011644    2.770787    0.357722
     28          1           0       -1.856434    2.183551   -1.291032
     29          1           0       -4.017721    1.694314   -0.027357
     30          1           0       -2.307237   -0.421475    1.363446
     31          1           0       -3.062808    0.965153    2.149300
     32          1           0       -4.422324   -1.190486    2.372336
     33          1           0       -5.318594    0.109997    1.574778
     34          1           0       -3.876990   -2.208304    0.181883
     35          1           0       -5.636424   -1.961950    0.277991
     36          1           0       -3.545605    0.519896   -2.118674
     37          1           0       -2.642458   -0.738730   -1.249283
 ---------------------------------------------------------------------

 SCF Done:  E(UB3LYP) =  -767.621083671     A.U. after   33 cycles
 SCF Done:  E(UB3LYP) =  -767.621083671     a.u. after    1 cycles

 The electronic state is 2-A.
 Alpha  occ. eigenvalues --  -19.06243 -19.02783 -14.20241 -14.19960 -10.15931
 Alpha  occ. eigenvalues --  -10.13267 -10.11845 -10.11661 -10.10204 -10.10118
 Alpha  occ. eigenvalues --  -10.09211 -10.07924 -10.07720 -10.07499 -10.07067
 Alpha  occ. eigenvalues --  -10.07050 -10.06973  -0.98489  -0.94245  -0.83459
 Alpha  occ. eigenvalues --   -0.81299  -0.71427  -0.70137  -0.67766  -0.66875
 Alpha  occ. eigenvalues --   -0.62391  -0.59300  -0.56192  -0.54904  -0.52790
 Alpha  occ. eigenvalues --   -0.50931  -0.49617  -0.46699  -0.44085  -0.41508
 Alpha  occ. eigenvalues --   -0.40907  -0.39575  -0.38195  -0.38081  -0.36318
 Alpha  occ. eigenvalues --   -0.35890  -0.35359  -0.34590  -0.34147  -0.32509
 Alpha  occ. eigenvalues --   -0.32254  -0.31189  -0.29990  -0.29451  -0.29048
 Alpha  occ. eigenvalues --   -0.28670  -0.27709  -0.27042  -0.25729  -0.24733
 Alpha  occ. eigenvalues --   -0.23874  -0.23227  -0.22666  -0.21055  -0.18536
 Alpha  occ. eigenvalues --   -0.16803  -0.16034  -0.13618  -0.12372   0.04388
 Alpha virt. eigenvalues --    0.06087   0.06374   0.06834   0.07298   0.07763
 Alpha virt. eigenvalues --    0.08533   0.09036   0.09330   0.09772   0.09823
 Alpha virt. eigenvalues --    0.10282   0.10422   0.10985   0.11512   0.11925

  Beta  occ. eigenvalues --  -19.06245 -19.02778 -14.20238 -14.19860 -10.15952
  Beta  occ. eigenvalues --  -10.13260 -10.11837 -10.11640 -10.10188 -10.10106
  Beta  occ. eigenvalues --  -10.09095 -10.07829 -10.07716 -10.07535 -10.07038
  Beta  occ. eigenvalues --  -10.06969 -10.06949  -0.98485  -0.94234  -0.83300
  Beta  occ. eigenvalues --   -0.81277  -0.71367  -0.70013  -0.67696  -0.66818
  Beta  occ. eigenvalues --   -0.62349  -0.59222  -0.56114  -0.54843  -0.52610
  Beta  occ. eigenvalues --   -0.50869  -0.49569  -0.46645  -0.44030  -0.41453
  Beta  occ. eigenvalues --   -0.40860  -0.39538  -0.38164  -0.38041  -0.36273
  Beta  occ. eigenvalues --   -0.35865  -0.35323  -0.34534  -0.34070  -0.32454
  Beta  occ. eigenvalues --   -0.32202  -0.31115  -0.29803  -0.29399  -0.28974
  Beta  occ. eigenvalues --   -0.28629  -0.27678  -0.27011  -0.25699  -0.24697
  Beta  occ. eigenvalues --   -0.23832  -0.23087  -0.22588  -0.21026  -0.17920
  Beta  occ. eigenvalues --   -0.16700  -0.15990  -0.13444  -0.12225
  Beta virt. eigenvalues --    0.06154   0.06635   0.07434   0.07541   0.07742
  Beta virt. eigenvalues --    0.08165   0.08641   0.09212   0.09487   0.09897
  Beta virt. eigenvalues --    0.10195   0.10301   0.10674   0.11031   0.11825

 Mulliken charges and spin densities:
               1          2
     1  C   -0.058229  -0.242366
     2  O   -0.161613   0.006289
     3  C    0.110862  -0.430128
     4  N   -0.111074   0.081279
     5  C   -0.793694   0.161372
     6  C    0.676754  -0.580637
     7  C   -0.086647   0.304772
     8  C   -0.847602   0.938243
     9  C    0.083318  -0.514655
    10  N   -0.003532  -0.040258
    11  C    0.341247  -0.875584
    12  C    0.206363   0.359334
    13  C    0.047929  -0.411499
    14  C    0.140773  -0.530557
    15  C    0.458705  -0.769918
    16  O   -0.162195   0.047557
    17  C   -0.207275  -0.392365
    18  H    0.055303   0.077892
    19  H    0.107589   0.063470
    20  H    0.114468   0.055164
    21  H    0.058459   0.163189
    22  H   -0.606655   0.774851
    23  H   -0.034229   0.204004
    24  H   -0.026260   0.198950
    25  H    1.081495  -1.058302
    26  H    0.110217   0.101649
    27  H   -0.018726   0.198049
    28  H   -0.034808   0.176961
    29  H    0.012307   0.178221
    30  H   -0.105236   0.287866
    31  H   -0.376234   0.538748
    32  H   -0.597123   0.762815
    33  H    0.106634   0.035178
    34  H   -0.177256   0.294298
    35  H   -0.168312   0.359027
    36  H    0.119083   0.035737
    37  H   -0.254806   0.441356
 Sum of Mulliken charges =  -1.00000   1.00000

 Dipole moment (field-independent basis, Debye):
    X=              3.8640    Y=              2.7193    Z=             -2.3616  Tot=              5.2823
 Quadrupole moment (field-independent basis, Debye-Ang):
   XX=           -197.9776   YY=           -142.6522   ZZ=           -137.5806
   XY=             -7.3024   XZ=             10.9343   YZ=              2.3264

 Summary of Natural Population Analysis:

                                       Natural Population
                Natural  -----------------------------------------------
    Atom  No    Charge         Core      Valence    Rydberg      Total
 -----------------------------------------------------------------------
      C    1   -0.10193      0.99960     2.09392    0.00841     3.10193
      O    2   -0.27752      0.99985     3.26918    0.00848     4.27752
      C    3    0.26075      0.99946     1.72350    0.01629     2.73925
      N    4   -0.25870      0.99966     2.74875    0.01030     3.75870
      C    5    0.05644      0.99953     1.93126    0.01278     2.94356
      C    6   -0.06206      0.99950     2.05316    0.00940     3.06206
      C    7   -0.06158      0.99953     2.05211    0.00994     3.06158
      C    8   -0.12652      0.99952     2.11777    0.00923     3.12652
      C    9   -0.09034      0.99959     2.08061    0.01013     3.09034
      N   10   -0.33977      0.99975     2.82900    0.01102     3.83977
      C   11   -0.08051      0.99960     2.06944    0.01147     3.08051
      C   12   -0.13378      0.99958     2.12381    0.01038     3.13378
      C   13   -0.19605      0.99961     2.18535    0.01109     3.19605
      C   14   -0.20183      0.99963     2.19318    0.00902     3.20183
      C   15   -0.01004      0.99958     1.99644    0.01403     3.01004
      O   16   -0.30173      0.99989     3.29253    0.00930     4.30173
      C   17   -0.00695      0.99954     1.99637    0.01104     3.00695
      H   18    0.08476      0.00000     0.41416    0.00108     0.41524
      H   19    0.08913      0.00000     0.40921    0.00166     0.41087
      H   20    0.08849      0.00000     0.40980    0.00170     0.41151
      H   21    0.09548      0.00000     0.40286    0.00167     0.40452
      H   22    0.10095      0.00000     0.39774    0.00131     0.39905
      H   23    0.10441      0.00000     0.39423    0.00135     0.39559
      H   24    0.09423      0.00000     0.40448    0.00129     0.40577
      H   25    0.08267      0.00000     0.41421    0.00312     0.41733
      H   26    0.17493      0.00000     0.32213    0.00295     0.32507
      H   27    0.09576      0.00000     0.40323    0.00101     0.40424
      H   28    0.09049      0.00000     0.40829    0.00121     0.40951
      H   29    0.09649      0.00000     0.40164    0.00187     0.40351
      H   30    0.09818      0.00000     0.39988    0.00194     0.40182
      H   31    0.10154      0.00000     0.39694    0.00152     0.39846
      H   32    0.10365      0.00000     0.39439    0.00196     0.39635
      H   33    0.09440      0.00000     0.40427    0.00134     0.40560
      H   34    0.07812      0.00000     0.42013    0.00174     0.42188
      H   35    0.09048      0.00000     0.40821    0.00131     0.40952
      H   36    0.08863      0.00000     0.41004    0.00133     0.41137
      H   37    0.07934      0.00000     0.41883    0.00183     0.42066
 =======================================================================
   * Total *   -0.00000     16.99343    46.79105    0.21552    64.00000

 Normal termination of Gaussian 16 at Fri Dec 11 14:00:37 2020.
