 Gaussian 16, Revision A.03,

 -----------------------------------------------------------
 # opt freq B3LYP/6-31G(d) empiricaldispersion=gd3bj scf=xqc
 -----------------------------------------------------------

 -----------------------------
 CID_45083531_JID_836_neutraal
 -----------------------------
 Symbolic Z-matrix:
 Charge =  0 Multiplicity = 1

 SCF Done:  E(RB3LYP) =  -565.058237623     A.U. after   18 cycles
 SCF Done:  E(RB3LYP) =  -565.063828402     A.U. after   15 cycles
 SCF Done:  E(RB3LYP) =  -565.064500110     A.U. after   14 cycles
 SCF Done:  E(RB3LYP) =  -565.063853194     A.U. after   14 cycles
 SCF Done:  E(RB3LYP) =  -565.065862169     A.U. after   13 cycles
 SCF Done:  E(RB3LYP) =  -565.066509563     A.U. after   14 cycles
 SCF Done:  E(RB3LYP) =  -565.066594971     A.U. after   13 cycles
 SCF Done:  E(RB3LYP) =  -565.066635893     A.U. after   11 cycles
 SCF Done:  E(RB3LYP) =  -565.066666310     A.U. after   11 cycles
 SCF Done:  E(RB3LYP) =  -565.066699375     A.U. after   12 cycles
 SCF Done:  E(RB3LYP) =  -565.066706276     A.U. after   11 cycles
 SCF Done:  E(RB3LYP) =  -565.066711926     A.U. after   11 cycles
 SCF Done:  E(RB3LYP) =  -565.066712705     A.U. after   10 cycles
 SCF Done:  E(RB3LYP) =  -565.066712864     A.U. after    9 cycles
 SCF Done:  E(RB3LYP) =  -565.066712956     A.U. after    9 cycles
 Optimization completed.
    -- Stationary point found.
 Normal termination of Gaussian 16 at Tue Dec  8 12:50:41 2020.

 --------------------------------------------------------------------
 #N Geom=AllCheck Guess=TCheck SCRF=Check GenChk RB3LYP/6-31G(d) Freq
 --------------------------------------------------------------------

 Structure from the checkpoint file:  "JID_836.chk"
 -----------------------------
 CID_45083531_JID_836_neutraal
 -----------------------------
 Charge =  0 Multiplicity = 1

 SCF Done:  E(RB3LYP) =  -565.066712956     A.U. after    1 cycles

  Exact polarizability:  93.800   0.565  70.502  -0.350   3.318  36.943
 Approx polarizability: 182.818  -2.731 123.954  -1.045   9.092  56.281

                      1                      2                      3
                      A                      A                      A
 Frequencies --     66.4873                97.5409               130.9015
 Red. masses --      3.5495                 5.4651                 5.4545
 Frc consts  --      0.0092                 0.0306                 0.0551
 IR Inten    --      2.3583                16.6870                 0.9669

                      4                      5                      6
                      A                      A                      A
 Frequencies --    169.5787               217.7935               251.7838
 Red. masses --      4.3731                 4.4727                 3.5877
 Frc consts  --      0.0741                 0.1250                 0.1340
 IR Inten    --      1.9400                 1.9924                12.8600

                      7                      8                      9
                      A                      A                      A
 Frequencies --    350.4992               385.3361               388.6906
 Red. masses --      6.7969                 6.8061                 1.2560
 Frc consts  --      0.4920                 0.5954                 0.1118
 IR Inten    --      2.6028                20.7289               116.0436

                     10                     11                     12
                      A                      A                      A
 Frequencies --    412.3931               456.7901               595.9365
 Red. masses --      9.2021                11.9523                12.9118
 Frc consts  --      0.9221                 1.4694                 2.7017
 IR Inten    --      4.6989                 6.1267                 0.6061

                     13                     14                     15
                      A                      A                      A
 Frequencies --    624.4848               695.7930               710.1611
 Red. masses --      6.0137                 7.8351                 7.7422
 Frc consts  --      1.3818                 2.2349                 2.3005
 IR Inten    --     55.9488                24.5466                 2.7731

                     16                     17                     18
                      A                      A                      A
 Frequencies --    828.1134               855.5454               971.9731
 Red. masses --      6.2633                11.2244                 1.6301
 Frc consts  --      2.5306                 4.8406                 0.9073
 IR Inten    --     80.1954                 2.1915                43.1287

                     19                     20                     21
                      A                      A                      A
 Frequencies --   1028.6802              1071.5633              1101.0140
 Red. masses --      1.7662                 8.1025                 8.7698
 Frc consts  --      1.1011                 5.4815                 6.2636
 IR Inten    --      1.4387                73.6890                36.3360

                     22                     23                     24
                      A                      A                      A
 Frequencies --   1149.2152              1227.7933              1321.9505
 Red. masses --      3.3770                 1.3922                 2.8155
 Frc consts  --      2.6278                 1.2365                 2.8989
 IR Inten    --      8.6946                 8.6755                 3.0117

                     25                     26                     27
                      A                      A                      A
 Frequencies --   1410.0223              1426.0843              1430.9253
 Red. masses --      1.3502                 1.5447                 1.4140
 Frc consts  --      1.5816                 1.8510                 1.7059
 IR Inten    --      7.5587                 8.8686                66.7931

                     28                     29                     30
                      A                      A                      A
 Frequencies --   1496.6228              1525.4972              1531.0883
 Red. masses --      4.7827                 1.3281                 3.1300
 Frc consts  --      6.3117                 1.8210                 4.3231
 IR Inten    --     21.1219                12.2230               130.7966

                     31                     32                     33
                      A                      A                      A
 Frequencies --   1727.0414              1818.4076              3005.4807
 Red. masses --     12.7659                 9.5548                 1.0879
 Frc consts  --     22.4341                18.6147                 5.7896
 IR Inten    --    367.7876               145.5060                45.6272

                     34                     35                     36
                      A                      A                      A
 Frequencies --   3052.8986              3110.8667              3736.9804
 Red. masses --      1.0631                 1.1022                 1.0665
 Frc consts  --      5.8378                 6.2846                 8.7753
 IR Inten    --     18.5635                 8.9364                26.1127

 - Thermochemistry -
 -------------------
 Temperature   298.150 Kelvin.  Pressure   1.00000 Atm.
 Atom     1 has atomic number  6 and mass  12.00000

 Molecular mass:   144.01711 amu.
 Principal axes and moments of inertia in atomic units:
                           1         2         3
     Eigenvalues --  1014.327661443.792162384.62595
           X            0.99979  -0.02052  -0.00106
           Y            0.02053   0.99979   0.00122
           Z            0.00104  -0.00124   1.00000
 This molecule is an asymmetric top.
 Rotational symmetry number  1.
 Warning -- assumption of classical behavior for rotation
           may cause significant error
 Rotational temperatures (Kelvin)      0.08539     0.05999     0.03632
 Rotational constants (GHZ):           1.77925     1.25000     0.75682
 Zero-point vibrational energy     241537.6 (Joules/Mol)
                                   57.72887 (Kcal/Mol)
 Warning -- explicit consideration of  12 degrees of freedom as
           vibrations may cause significant error
 Vibrational temperatures:     95.66   140.34   188.34   243.99   313.36
          (Kelvin)            362.26   504.29   554.41   559.24   593.34
                              657.22   857.42   898.49  1001.09  1021.76
                             1191.47  1230.94  1398.45  1480.04  1541.74
                             1584.11  1653.46  1766.52  1901.99  2028.71
                             2051.82  2058.78  2153.31  2194.85  2202.89
                             2484.83  2616.28  4324.22  4392.44  4475.84
                             5376.68

 Zero-point correction=                           0.091997 (Hartree/Particle)
 Thermal correction to Energy=                    0.101111
 Thermal correction to Enthalpy=                  0.102055
 Thermal correction to Gibbs Free Energy=         0.057158
 Sum of electronic and zero-point Energies=           -564.974716
 Sum of electronic and thermal Energies=              -564.965602
 Sum of electronic and thermal Enthalpies=            -564.964658
 Sum of electronic and thermal Free Energies=         -565.009555

                     E (Thermal)             CV                S
                      KCal/Mol        Cal/Mol-Kelvin    Cal/Mol-Kelvin
 Total                   63.448             31.924             94.494
 Electronic               0.000              0.000              0.000
 Translational            0.889              2.981             40.805
 Rotational               0.889              2.981             29.636
 Vibrational             61.671             25.962             24.053
 Vibration     1          0.598              1.970              4.255
 Vibration     2          0.603              1.951              3.503
 Vibration     3          0.612              1.922              2.933
 Vibration     4          0.625              1.880              2.440
 Vibration     5          0.646              1.814              1.977
 Vibration     6          0.664              1.760              1.718
 Vibration     7          0.727              1.574              1.164
 Vibration     8          0.754              1.501              1.018
 Vibration     9          0.757              1.494              1.005
 Vibration    10          0.776              1.443              0.918
 Vibration    11          0.815              1.346              0.776
 Vibration    12          0.954              1.040              0.457

 Optimization completed.
    -- Stationary point found.
 Normal termination of Gaussian 16 at Tue Dec  8 13:04:42 2020.

 ----------------------------------------------------------------------
 # B3LYP/6-311++G(d,p) empiricaldispersion=gd3bj scf=xqc pop=npa geom=c
 heck
 ----------------------------------------------------------------------

 -------------------------------------
 CID_45083531_JID_836_Energie_neutraal
 -------------------------------------
 Structure from the checkpoint file:  "JID_836.chk"
 Charge =  0 Multiplicity = 1

 SCF Done:  E(RB3LYP) =  -565.239881034     A.U. after   17 cycles
 Normal termination of Gaussian 16 at Tue Dec  8 13:08:46 2020.

 ----------------------------------------------------------------------
 # B3LYP/6-311++G(d,p) empiricaldispersion=gd3bj scf=xqc pop=npa geom=c
 heck
 ----------------------------------------------------------------------

 -----------------------------------
 CID_45083531_JID_836_Energie_kation
 -----------------------------------
 Structure from the checkpoint file:  "JID_836.chk"
 Charge =  1 Multiplicity = 2

 SCF Done:  E(UB3LYP) =  -564.879677955     A.U. after   28 cycles
 Normal termination of Gaussian 16 at Tue Dec  8 13:17:20 2020.
 Gaussian 16:  ES64L-G16RevA.03 25-Dec-2016

 ----------------------------------------------------------------------
 # B3LYP/6-311++G(d,p) empiricaldispersion=gd3bj scf=xqc pop=npa geom=c
 heck
 ----------------------------------------------------------------------

 ----------------------------------
 CID_45083531_JID_836_Energie_anion
 ----------------------------------
 Structure from the checkpoint file:  "JID_836.chk"
 Charge = -1 Multiplicity = 2

                         Standard orientation:
 ---------------------------------------------------------------------
 Center     Atomic      Atomic             Coordinates (Angstroms)
 Number     Number       Type             X           Y           Z
 ---------------------------------------------------------------------
      1          6           0       -0.763250    1.768358    0.387124
      2          6           0       -0.487733    0.307890    0.174372
      3          7           0       -1.472989   -0.571696    0.031355
      4          8           0       -0.804467   -1.887064   -0.185259
      5          7           0        0.526106   -1.689935   -0.161852
      6          6           0        0.737727   -0.408288    0.049866
      7          6           0        2.115429    0.155596    0.122880
      8          8           0        3.113773   -0.526585    0.069742
      9          8           0       -2.690212   -0.527054    0.041409
     10          8           0        0.061006    2.587517   -0.426950
     11          1           0       -0.529453    2.050263    1.418475
     12          1           0       -1.835106    1.944057    0.227402
     13          1           0        2.149590    1.255888    0.221357
     14          1           0       -0.210683    2.465355   -1.350741
 ---------------------------------------------------------------------

 SCF Done:  E(UB3LYP) =  -565.285007382     A.U. after   25 cycles

 The electronic state is 2-A.
 Alpha  occ. eigenvalues --  -19.05830 -19.02785 -18.98963 -18.93067 -14.33634
 Alpha  occ. eigenvalues --  -14.18693 -10.12693 -10.08565 -10.07298 -10.04617
 Alpha  occ. eigenvalues --   -1.04429  -0.95593  -0.92976  -0.86987  -0.73728
 Alpha  occ. eigenvalues --   -0.69389  -0.60040  -0.52871  -0.47222  -0.42843
 Alpha  occ. eigenvalues --   -0.41213  -0.37813  -0.37167  -0.33882  -0.33176
 Alpha  occ. eigenvalues --   -0.32201  -0.27066  -0.26950  -0.25872  -0.24408
 Alpha  occ. eigenvalues --   -0.23099  -0.20856  -0.18603  -0.15171  -0.12816
 Alpha  occ. eigenvalues --   -0.09677  -0.08899   0.02812
 Alpha virt. eigenvalues --    0.08061   0.10546   0.11000   0.12201   0.14544
 Alpha virt. eigenvalues --    0.14895   0.17285   0.17889   0.18102   0.18673
 Alpha virt. eigenvalues --    0.19349   0.20714   0.21151   0.21641   0.23019

  Beta  occ. eigenvalues --  -19.05403 -19.02780 -18.98856 -18.92604 -14.33359
  Beta  occ. eigenvalues --  -14.17765 -10.12687 -10.08654 -10.07058 -10.04637
  Beta  occ. eigenvalues --   -1.03896  -0.94880  -0.92968  -0.86154  -0.73525
  Beta  occ. eigenvalues --   -0.68316  -0.59965  -0.51994  -0.46900  -0.42370
  Beta  occ. eigenvalues --   -0.41069  -0.37079  -0.36732  -0.33507  -0.32841
  Beta  occ. eigenvalues --   -0.31934  -0.26625  -0.25405  -0.24540  -0.24291
  Beta  occ. eigenvalues --   -0.20841  -0.20285  -0.18356  -0.13862  -0.12150
  Beta  occ. eigenvalues --   -0.08499  -0.07292
  Beta virt. eigenvalues --    0.08080   0.10148   0.11288   0.11782   0.12938
  Beta virt. eigenvalues --    0.14495   0.14952   0.17459   0.18011   0.18326
  Beta virt. eigenvalues --    0.18842   0.19551   0.20700   0.21163   0.21915

 Mulliken charges and spin densities:
               1          2
     1  C   -0.265258  -0.033189
     2  C   -0.011146   0.028038
     3  N   -0.373577   0.072656
     4  O    0.330876   0.100891
     5  N   -0.462517   0.428154
     6  C    0.235153  -0.031552
     7  C   -0.241275   0.208134
     8  O   -0.364744   0.155366
     9  O   -0.200278   0.047168
    10  O   -0.261569   0.030775
    11  H    0.155752   0.003378
    12  H    0.159467  -0.000676
    13  H    0.078191  -0.018229
    14  H    0.220926   0.009086
 Sum of Mulliken charges =  -1.00000   1.00000

 Dipole moment (field-independent basis, Debye):
    X=             -3.6069    Y=              5.0990    Z=             -0.1603  Tot=              6.2479
 Quadrupole moment (field-independent basis, Debye-Ang):
   XX=            -97.3684   YY=            -75.1651   ZZ=            -57.1638
   XY=             -0.3532   XZ=              0.2052   YZ=             -1.9391

 Summary of Natural Population Analysis:

                                       Natural Population
                Natural  -----------------------------------------------
    Atom  No    Charge         Core      Valence    Rydberg      Total
 -----------------------------------------------------------------------
      C    1   -0.02287      0.99957     2.01130    0.01199     3.02287
      C    2    0.00132      0.99947     1.98278    0.01643     2.99868
      N    3    0.18644      0.99956     2.29334    0.02067     3.31356
      O    4   -0.07734      0.99990     3.06786    0.00958     4.07734
      N    5    0.10261      0.99966     2.38089    0.01684     3.39739
      C    6   -0.01231      0.99956     1.99878    0.01397     3.01231
      C    7    0.22383      0.99971     1.75562    0.02083     2.77617
      O    8   -0.24211      0.99988     3.23321    0.00901     4.24211
      O    9   -0.24119      0.99989     3.23123    0.01006     4.24119
      O   10   -0.36436      0.99990     3.35716    0.00730     4.36436
      H   11    0.08942      0.00000     0.40922    0.00136     0.41058
      H   12    0.08788      0.00000     0.41029    0.00182     0.41212
      H   13    0.04344      0.00000     0.45419    0.00237     0.45656
      H   14    0.22523      0.00000     0.27116    0.00361     0.27477
 =======================================================================
   * Total *   -0.00000      9.99710    26.85705    0.14585    37.00000

 Normal termination of Gaussian 16 at Tue Dec  8 13:23:59 2020.
