 Gaussian 16, Revision A.03,

 -----------------------------------------------------------
 # opt freq B3LYP/6-31G(d) empiricaldispersion=gd3bj scf=xqc
 -----------------------------------------------------------

 ------------------------------
 CID_63107712_JID_8990_neutraal
 ------------------------------
 Symbolic Z-matrix:
 Charge =  0 Multiplicity = 1

 SCF Done:  E(RB3LYP) =  -821.627741919     A.U. after   15 cycles
 SCF Done:  E(RB3LYP) =  -821.628745335     A.U. after   13 cycles
 SCF Done:  E(RB3LYP) =  -821.630971402     A.U. after   13 cycles
 SCF Done:  E(RB3LYP) =  -821.632454861     A.U. after   13 cycles
 SCF Done:  E(RB3LYP) =  -821.634952183     A.U. after   12 cycles
 SCF Done:  E(RB3LYP) =  -821.635079266     A.U. after   13 cycles
 SCF Done:  E(RB3LYP) =  -821.635388795     A.U. after   12 cycles
 SCF Done:  E(RB3LYP) =  -821.635494757     A.U. after   11 cycles
 SCF Done:  E(RB3LYP) =  -821.635689241     A.U. after   13 cycles
 SCF Done:  E(RB3LYP) =  -821.635984162     A.U. after   13 cycles
 SCF Done:  E(RB3LYP) =  -821.640485973     A.U. after    9 cycles
 SCF Done:  E(RB3LYP) =  -821.640486853     A.U. after    8 cycles
 SCF Done:  E(RB3LYP) =  -821.640487074     A.U. after    8 cycles
 SCF Done:  E(RB3LYP) =  -821.640487148     A.U. after    7 cycles
 SCF Done:  E(RB3LYP) =  -821.640487186     A.U. after    7 cycles
 Optimization completed.
    -- Stationary point found.
 Normal termination of Gaussian 16 at Fri Dec 11 23:48:08 2020.

 --------------------------------------------------------------------
 #N Geom=AllCheck Guess=TCheck SCRF=Check GenChk RB3LYP/6-31G(d) Freq
 --------------------------------------------------------------------

 Structure from the checkpoint file:  "JID_8990.chk"
 ------------------------------
 CID_63107712_JID_8990_neutraal
 ------------------------------
 Charge =  0 Multiplicity = 1

 SCF Done:  E(RB3LYP) =  -821.640487186     A.U. after    1 cycles

  Exact polarizability: 166.028 -15.527 169.361 -15.159  -5.755 137.166
 Approx polarizability: 238.840 -26.664 243.470 -29.617 -17.795 234.155

                      1                      2                      3
                      A                      A                      A
 Frequencies --     28.8018                51.4283                58.8601
 Red. masses --      6.0254                 3.6008                 4.2239
 Frc consts  --      0.0029                 0.0056                 0.0086
 IR Inten    --      1.9129                 0.8491                 1.1031

                      4                      5                      6
                      A                      A                      A
 Frequencies --     62.4861                70.2494                92.2401
 Red. masses --      3.7593                 4.2734                 4.6716
 Frc consts  --      0.0086                 0.0124                 0.0234
 IR Inten    --      1.8908                 1.0571                 0.4557

                      7                      8                      9
                      A                      A                      A
 Frequencies --    112.4454               126.6602               171.1762
 Red. masses --      4.4367                 4.6388                 3.8404
 Frc consts  --      0.0331                 0.0438                 0.0663
 IR Inten    --      1.2773                 1.6955                 0.7024

                     10                     11                     12
                      A                      A                      A
 Frequencies --    188.6135               222.1669               227.5228
 Red. masses --      3.9344                 3.6850                 1.0750
 Frc consts  --      0.0825                 0.1072                 0.0328
 IR Inten    --      0.2988                 5.0815                 0.0956

                     13                     14                     15
                      A                      A                      A
 Frequencies --    229.5575               256.8629               260.8374
 Red. masses --      1.0702                 2.3157                 1.4013
 Frc consts  --      0.0332                 0.0900                 0.0562
 IR Inten    --      0.6988                 5.2257                 1.7599

                     16                     17                     18
                      A                      A                      A
 Frequencies --    286.7422               317.0885               345.6373
 Red. masses --      4.6929                 3.8582                 3.5849
 Frc consts  --      0.2273                 0.2286                 0.2523
 IR Inten    --      4.6872                 1.9037                 2.7712

                     19                     20                     21
                      A                      A                      A
 Frequencies --    364.3592               402.0263               413.9488
 Red. masses --      3.2216                 2.6281                 4.2486
 Frc consts  --      0.2520                 0.2503                 0.4289
 IR Inten    --      2.0356                 2.6188                 3.5528

                     22                     23                     24
                      A                      A                      A
 Frequencies --    458.5142               459.2283               492.7335
 Red. masses --      3.5852                 2.3394                 2.4146
 Frc consts  --      0.4441                 0.2907                 0.3454
 IR Inten    --      4.2181                 5.5095                45.4079

                     25                     26                     27
                      A                      A                      A
 Frequencies --    523.5131               543.0790               587.7133
 Red. masses --      1.7454                 2.2118                 4.1753
 Frc consts  --      0.2818                 0.3843                 0.8497
 IR Inten    --     48.7670                62.1794                23.2928

                     28                     29                     30
                      A                      A                      A
 Frequencies --    596.3885               621.9164               630.5759
 Red. masses --      3.8154                 3.9796                 2.1520
 Frc consts  --      0.7995                 0.9069                 0.5042
 IR Inten    --     17.2715                 2.5760                64.0363

                     31                     32                     33
                      A                      A                      A
 Frequencies --    656.6989               698.3599               738.3972
 Red. masses --      1.8965                 3.2394                 2.2135
 Frc consts  --      0.4819                 0.9308                 0.7111
 IR Inten    --     21.7595                19.8324                27.7324

                     34                     35                     36
                      A                      A                      A
 Frequencies --    747.2975               762.7099               780.2131
 Red. masses --      1.9098                 3.0520                 3.1637
 Frc consts  --      0.6284                 1.0461                 1.1347
 IR Inten    --     24.5635                12.6900                 5.7057

                     37                     38                     39
                      A                      A                      A
 Frequencies --    784.7020               818.8792               835.0062
 Red. masses --      1.9755                 1.7940                 2.5125
 Frc consts  --      0.7167                 0.7088                 1.0321
 IR Inten    --     72.8706                36.3395                 4.9321

                     40                     41                     42
                      A                      A                      A
 Frequencies --    871.2542               873.1940               890.5793
 Red. masses --      2.7199                 1.7173                 1.6930
 Frc consts  --      1.2164                 0.7715                 0.7911
 IR Inten    --     14.5461                 0.6716                33.0068

                     43                     44                     45
                      A                      A                      A
 Frequencies --    943.1806               949.9069               955.0138
 Red. masses --      1.3665                 1.2263                 1.7657
 Frc consts  --      0.7162                 0.6520                 0.9488
 IR Inten    --      3.2221                 2.6048                11.6469

                     46                     47                     48
                      A                      A                      A
 Frequencies --    971.2941               975.6346               977.1818
 Red. masses --      1.4524                 1.2995                 2.2397
 Frc consts  --      0.8073                 0.7288                 1.2600
 IR Inten    --      2.2084                 0.3898                 5.5547

                     49                     50                     51
                      A                      A                      A
 Frequencies --   1075.9545              1080.8626              1108.2829
 Red. masses --      1.8915                 1.9889                 3.1278
 Frc consts  --      1.2901                 1.3690                 2.2636
 IR Inten    --     14.9496                 0.4928                 1.9023

                     52                     53                     54
                      A                      A                      A
 Frequencies --   1123.2320              1165.3222              1169.8064
 Red. masses --      2.4399                 2.0750                 2.2242
 Frc consts  --      1.8137                 1.6602                 1.7933
 IR Inten    --     21.1138                36.0636                 1.7669

                     55                     56                     57
                      A                      A                      A
 Frequencies --   1178.5836              1183.7211              1188.1324
 Red. masses --      1.9460                 2.4773                 1.6665
 Frc consts  --      1.5927                 2.0452                 1.3861
 IR Inten    --      8.8985                21.6445                28.9732

                     58                     59                     60
                      A                      A                      A
 Frequencies --   1199.9128              1205.3088              1274.5539
 Red. masses --      1.1443                 1.8539                 2.9419
 Frc consts  --      0.9707                 1.5868                 2.8157
 IR Inten    --      3.9602                18.1029                37.7365

                     61                     62                     63
                      A                      A                      A
 Frequencies --   1295.4368              1302.6646              1350.1934
 Red. masses --      1.5574                 1.5962                 4.6712
 Frc consts  --      1.5399                 1.5958                 5.0173
 IR Inten    --     58.0695                 3.5755                26.6977

                     64                     65                     66
                      A                      A                      A
 Frequencies --   1354.9713              1377.8334              1385.2199
 Red. masses --      1.3340                 1.5295                 2.1346
 Frc consts  --      1.4430                 1.7108                 2.4132
 IR Inten    --     14.7834                84.4058               110.0863

                     67                     68                     69
                      A                      A                      A
 Frequencies --   1389.7187              1417.5966              1432.0538
 Red. masses --      1.4776                 2.5000                 1.2849
 Frc consts  --      1.6814                 2.9600                 1.5525
 IR Inten    --     39.6283                45.1984                 7.7425

                     70                     71                     72
                      A                      A                      A
 Frequencies --   1436.1002              1450.2427              1480.9057
 Red. masses --      1.2505                 1.2393                 1.6615
 Frc consts  --      1.5195                 1.5357                 2.1469
 IR Inten    --     15.0925                12.5295                 0.9254

                     73                     74                     75
                      A                      A                      A
 Frequencies --   1491.8637              1511.6580              1511.9150
 Red. masses --      1.6592                 1.3542                 1.3080
 Frc consts  --      2.1757                 1.8233                 1.7617
 IR Inten    --     59.8491                52.2067                57.7381

                     76                     77                     78
                      A                      A                      A
 Frequencies --   1512.9527              1520.5791              1526.0034
 Red. masses --      1.0509                 1.0483                 1.1080
 Frc consts  --      1.4174                 1.4280                 1.5202
 IR Inten    --      6.8426                 1.1035                 5.0449

                     79                     80                     81
                      A                      A                      A
 Frequencies --   1531.5085              1538.8794              1560.6340
 Red. masses --      1.1551                 1.1082                 1.7358
 Frc consts  --      1.5963                 1.5462                 2.4908
 IR Inten    --      9.8728                20.3997                 0.9277

                     82                     83                     84
                      A                      A                      A
 Frequencies --   1643.4121              1666.7295              1686.7319
 Red. masses --      4.9514                 5.3300                 1.2000
 Frc consts  --      7.8790                 8.7239                 2.0115
 IR Inten    --      8.0431                49.3763                58.7414

                     85                     86                     87
                      A                      A                      A
 Frequencies --   1763.5123              1807.2576              3041.7471
 Red. masses --      8.6537                 8.8800                 1.0421
 Frc consts  --     15.8566                17.0884                 5.6806
 IR Inten    --    345.7151               350.1747                18.4097

                     88                     89                     90
                      A                      A                      A
 Frequencies --   3049.5433              3066.4150              3106.3214
 Red. masses --      1.0411                 1.0348                 1.0887
 Frc consts  --      5.7043                 5.7328                 6.1895
 IR Inten    --     27.2985                14.9701                 9.5076

                     91                     92                     93
                      A                      A                      A
 Frequencies --   3113.2091              3121.4102              3132.2010
 Red. masses --      1.0977                 1.0854                 1.0931
 Frc consts  --      6.2683                 6.2307                 6.3183
 IR Inten    --      6.8706                 2.6456                33.0503

                     94                     95                     96
                      A                      A                      A
 Frequencies --   3138.9855              3139.7076              3151.2269
 Red. masses --      1.1035                 1.1009                 1.1015
 Frc consts  --      6.4060                 6.3939                 6.4444
 IR Inten    --     17.5265                30.7147                14.6259

                     97                     98                     99
                      A                      A                      A
 Frequencies --   3152.7571              3170.0186              3194.6748
 Red. masses --      1.0998                 1.0883                 1.0872
 Frc consts  --      6.4409                 6.4433                 6.5375
 IR Inten    --     11.5461                12.8579                 1.2281

                    100                    101                    102
                      A                      A                      A
 Frequencies --   3202.2871              3218.2055              3370.3795
 Red. masses --      1.0921                 1.0972                 1.0657
 Frc consts  --      6.5984                 6.6951                 7.1325
 IR Inten    --     16.6664                19.9231               505.3128

                    103                    104                    105
                      A                      A                      A
 Frequencies --   3500.3998              3568.5150              3644.2403
 Red. masses --      1.0740                 1.0753                 1.0883
 Frc consts  --      7.7536                 8.0678                 8.5159
 IR Inten    --      1.8018                26.3378                68.8806

 - Thermochemistry -
 -------------------
 Temperature   298.150 Kelvin.  Pressure   1.00000 Atm.
 Atom     1 has atomic number  6 and mass  12.00000

 Molecular mass:   249.14773 amu.
 Principal axes and moments of inertia in atomic units:
                           1         2         3
     Eigenvalues --  3655.575304873.476776242.51314
           X            0.99860   0.05236  -0.00727
           Y           -0.05236   0.99863   0.00065
           Z            0.00729  -0.00026   0.99997
 This molecule is an asymmetric top.
 Rotational symmetry number  1.
 Warning -- assumption of classical behavior for rotation
           may cause significant error
 Rotational temperatures (Kelvin)      0.02369     0.01777     0.01387
 Rotational constants (GHZ):           0.49370     0.37032     0.28910
 Zero-point vibrational energy     827907.8 (Joules/Mol)
                                  197.87470 (Kcal/Mol)
 Warning -- explicit consideration of  28 degrees of freedom as
           vibrations may cause significant error
 Vibrational temperatures:     41.44    73.99    84.69    89.90   101.07
          (Kelvin)            132.71   161.78   182.24   246.28   271.37
                              319.65   327.35   330.28   369.57   375.29
                              412.56   456.22   497.30   524.23   578.43
                              595.58   659.70   660.73   708.93   753.22
                              781.37   845.59   858.07   894.80   907.26
                              944.84  1004.78  1062.39  1075.19  1097.37
                             1122.55  1129.01  1178.18  1201.39  1253.54
                             1256.33  1281.34  1357.03  1366.70  1374.05
                             1397.48  1403.72  1405.95  1548.06  1555.12
                             1594.57  1616.08  1676.64  1683.09  1695.72
                             1703.11  1709.46  1726.41  1734.17  1833.80
                             1863.84  1874.24  1942.63  1949.50  1982.39
                             1993.02  1999.50  2039.61  2060.41  2066.23
                             2086.58  2130.69  2146.46  2174.94  2175.31
                             2176.80  2187.77  2195.58  2203.50  2214.10
                             2245.40  2364.50  2398.05  2426.83  2537.30
                             2600.24  4376.40  4387.61  4411.89  4469.30
                             4479.21  4491.01  4506.54  4516.30  4517.34
                             4533.91  4536.11  4560.95  4596.42  4607.38
                             4630.28  4849.22  5036.29  5134.30  5243.25

 Zero-point correction=                           0.315333 (Hartree/Particle)
 Thermal correction to Energy=                    0.333708
 Thermal correction to Enthalpy=                  0.334652
 Thermal correction to Gibbs Free Energy=         0.268534
 Sum of electronic and zero-point Energies=           -821.325154
 Sum of electronic and thermal Energies=              -821.306779
 Sum of electronic and thermal Enthalpies=            -821.305835
 Sum of electronic and thermal Free Energies=         -821.371954

                     E (Thermal)             CV                S
                      KCal/Mol        Cal/Mol-Kelvin    Cal/Mol-Kelvin
 Total                  209.405             69.609            139.158
 Electronic               0.000              0.000              0.000
 Translational            0.889              2.981             42.439
 Rotational               0.889              2.981             33.075
 Vibrational            207.627             63.648             63.644
 Vibration     1          0.593              1.984              5.910
 Vibration     2          0.596              1.977              4.762
 Vibration     3          0.596              1.974              4.495
 Vibration     4          0.597              1.972              4.377
 Vibration     5          0.598              1.968              4.146
 Vibration     6          0.602              1.955              3.612
 Vibration     7          0.607              1.939              3.226
 Vibration     8          0.611              1.926              2.996
 Vibration     9          0.626              1.878              2.423
 Vibration    10          0.633              1.856              2.241
 Vibration    11          0.648              1.807              1.941
 Vibration    12          0.651              1.799              1.898
 Vibration    13          0.652              1.796              1.882
 Vibration    14          0.666              1.751              1.683
 Vibration    15          0.669              1.744              1.656
 Vibration    16          0.684              1.698              1.493
 Vibration    17          0.704              1.641              1.325
 Vibration    18          0.724              1.584              1.186
 Vibration    19          0.738              1.546              1.103
 Vibration    20          0.768              1.466              0.955
 Vibration    21          0.778              1.440              0.913
 Vibration    22          0.817              1.342              0.770
 Vibration    23          0.817              1.340              0.768
 Vibration    24          0.848              1.266              0.677
 Vibration    25          0.878              1.198              0.602
 Vibration    26          0.898              1.155              0.559
 Vibration    27          0.945              1.058              0.471
 Vibration    28          0.954              1.039              0.456

 Optimization completed.
    -- Stationary point found.
 Normal termination of Gaussian 16 at Sat Dec 12 00:08:37 2020.

 ----------------------------------------------------------------------
 # B3LYP/6-311++G(d,p) empiricaldispersion=gd3bj scf=xqc pop=npa geom=c
 heck
 ----------------------------------------------------------------------

 --------------------------------------
 CID_63107712_JID_8990_Energie_neutraal
 --------------------------------------
 Structure from the checkpoint file:  "JID_8990.chk"
 Charge =  0 Multiplicity = 1

 SCF Done:  E(RB3LYP) =  -821.884129448     A.U. after   17 cycles
 Normal termination of Gaussian 16 at Sat Dec 12 00:18:28 2020.

 ----------------------------------------------------------------------
 # B3LYP/6-311++G(d,p) empiricaldispersion=gd3bj scf=xqc pop=npa geom=c
 heck
 ----------------------------------------------------------------------

 ------------------------------------
 CID_63107712_JID_8990_Energie_kation
 ------------------------------------
 Structure from the checkpoint file:  "JID_8990.chk"
 Charge =  1 Multiplicity = 2

 SCF Done:  E(UB3LYP) =  -821.590356743     A.U. after   25 cycles
 Normal termination of Gaussian 16 at Sat Dec 12 00:38:54 2020.
 Gaussian 16:  ES64L-G16RevA.03 25-Dec-2016

 ----------------------------------------------------------------------
 # B3LYP/6-311++G(d,p) empiricaldispersion=gd3bj scf=xqc pop=npa geom=c
 heck
 ----------------------------------------------------------------------

 -----------------------------------
 CID_63107712_JID_8990_Energie_anion
 -----------------------------------
 Structure from the checkpoint file:  "JID_8990.chk"
 Charge = -1 Multiplicity = 2

                         Standard orientation:
 ---------------------------------------------------------------------
 Center     Atomic      Atomic             Coordinates (Angstroms)
 Number     Number       Type             X           Y           Z
 ---------------------------------------------------------------------
      1          6           0        2.091579    2.317274    1.079102
      2          6           0        0.755555    2.230294    0.338411
      3          6           0        0.313025    3.584612   -0.213280
      4          7           0        0.784470    1.270190   -0.801168
      5          6           0        1.360788   -0.014145   -0.633659
      6          6           0        2.297877   -0.468141   -1.574198
      7          6           0        2.861968   -1.736288   -1.478551
      8          6           0        2.523482   -2.574984   -0.416371
      9          6           0        1.601296   -2.131115    0.527410
     10          6           0        0.992665   -0.876770    0.417665
     11          6           0        0.002827   -0.502452    1.490168
     12          8           0        0.364130   -0.241125    2.633400
     13          7           0       -1.313706   -0.472634    1.124271
     14          6           0       -1.911151   -0.984548   -0.109813
     15          6           0       -2.674393   -2.283673    0.128412
     16          6           0       -2.833178    0.110529   -0.687712
     17          8           0       -4.045067    0.093254   -0.516583
     18          7           0       -2.173192    1.074228   -1.384230
     19          1           0        2.894532    2.630219    0.399806
     20          1           0        2.357001    1.354515    1.522288
     21          1           0        2.024208    3.049775    1.890493
     22          1           0       -0.011322    1.884132    1.034286
     23          1           0        1.046703    3.976749   -0.930475
     24          1           0       -0.657158    3.511679   -0.715232
     25          1           0        0.222502    4.312393    0.598322
     26          1           0        1.226834    1.726144   -1.596516
     27          1           0        2.590246    0.193744   -2.386733
     28          1           0        3.581263   -2.059211   -2.225611
     29          1           0        2.973558   -3.558043   -0.321895
     30          1           0        1.328357   -2.764317    1.366527
     31          1           0       -1.948173   -0.269994    1.890209
     32          1           0       -1.088172   -1.157384   -0.806144
     33          1           0       -3.081591   -2.664996   -0.813108
     34          1           0       -2.006476   -3.036141    0.558677
     35          1           0       -3.515705   -2.112565    0.805432
     36          1           0       -1.154768    1.156914   -1.318115
     37          1           0       -2.711377    1.883300   -1.664374
 ---------------------------------------------------------------------

 SCF Done:  E(UB3LYP) =  -821.877030290     A.U. after   33 cycles
 SCF Done:  E(UB3LYP) =  -821.877030291     a.u. after    1 cycles

 The electronic state is 2-A.
 Alpha  occ. eigenvalues --  -19.00457 -19.00147 -14.25572 -14.23348 -14.23120
 Alpha  occ. eigenvalues --  -10.18796 -10.18606 -10.13860 -10.12539 -10.11407
 Alpha  occ. eigenvalues --  -10.08977 -10.08753 -10.08600 -10.08055 -10.07955
 Alpha  occ. eigenvalues --  -10.07763 -10.06756 -10.06020  -0.95523  -0.95034
 Alpha  occ. eigenvalues --   -0.84928  -0.84136  -0.81007  -0.75981  -0.68757
 Alpha  occ. eigenvalues --   -0.68740  -0.66821  -0.63296  -0.59555  -0.58139
 Alpha  occ. eigenvalues --   -0.55508  -0.52070  -0.50820  -0.49643  -0.47970
 Alpha  occ. eigenvalues --   -0.45055  -0.44071  -0.41529  -0.41067  -0.38967
 Alpha  occ. eigenvalues --   -0.38231  -0.36757  -0.36301  -0.35255  -0.34637
 Alpha  occ. eigenvalues --   -0.34001  -0.33517  -0.33111  -0.32135  -0.30774
 Alpha  occ. eigenvalues --   -0.30372  -0.29863  -0.29566  -0.28867  -0.28770
 Alpha  occ. eigenvalues --   -0.27605  -0.26711  -0.26237  -0.25677  -0.24506
 Alpha  occ. eigenvalues --   -0.20879  -0.19417  -0.18335  -0.18195  -0.16421
 Alpha  occ. eigenvalues --   -0.15762  -0.12729   0.04105
 Alpha virt. eigenvalues --    0.06312   0.06378   0.07025   0.07719   0.08011
 Alpha virt. eigenvalues --    0.08340   0.08743   0.09023   0.09353   0.10003
 Alpha virt. eigenvalues --    0.10341   0.10708   0.10802   0.11714   0.12087

  Beta  occ. eigenvalues --  -19.00450 -19.00119 -14.25563 -14.23320 -14.23094
  Beta  occ. eigenvalues --  -10.18770 -10.18604 -10.13851 -10.12533 -10.11405
  Beta  occ. eigenvalues --  -10.08920 -10.08726 -10.08597 -10.07995 -10.07941
  Beta  occ. eigenvalues --  -10.07730 -10.06707 -10.06001  -0.95491  -0.94996
  Beta  occ. eigenvalues --   -0.84887  -0.84093  -0.80966  -0.75901  -0.68715
  Beta  occ. eigenvalues --   -0.68704  -0.66699  -0.63230  -0.59489  -0.58109
  Beta  occ. eigenvalues --   -0.55397  -0.52008  -0.50754  -0.49599  -0.47886
  Beta  occ. eigenvalues --   -0.45033  -0.44013  -0.41456  -0.41035  -0.38912
  Beta  occ. eigenvalues --   -0.38194  -0.36704  -0.36240  -0.35212  -0.34604
  Beta  occ. eigenvalues --   -0.33939  -0.33501  -0.33052  -0.32055  -0.30742
  Beta  occ. eigenvalues --   -0.30327  -0.29819  -0.29505  -0.28806  -0.28731
  Beta  occ. eigenvalues --   -0.27526  -0.26660  -0.26182  -0.25622  -0.24436
  Beta  occ. eigenvalues --   -0.20793  -0.19361  -0.18225  -0.18139  -0.16330
  Beta  occ. eigenvalues --   -0.15572  -0.12612
  Beta virt. eigenvalues --    0.06337   0.06834   0.07110   0.07441   0.07905
  Beta virt. eigenvalues --    0.08456   0.08729   0.09033   0.09296   0.09656
  Beta virt. eigenvalues --    0.10143   0.10524   0.10921   0.11127   0.12005

 Mulliken charges and spin densities:
               1          2
     1  C   -0.338593  -0.371125
     2  C   -1.443674   1.488512
     3  C    1.746552  -2.189539
     4  N   -0.179731   0.089645
     5  C   -0.021233   0.107418
     6  C   -0.272128   0.245281
     7  C    1.346689  -1.658685
     8  C   -0.491911   0.059741
     9  C   -0.483058   0.555935
    10  C    0.969676  -0.455488
    11  C   -0.159155  -0.729563
    12  O   -0.203340   0.008857
    13  N   -0.050808   0.066374
    14  C    0.176517  -0.328612
    15  C   -0.434412  -0.080603
    16  C   -0.040196   0.025676
    17  O   -0.335172   0.006381
    18  N   -0.336121  -0.067515
    19  H    0.014366   0.151908
    20  H    0.141863   0.033785
    21  H    0.079414   0.046989
    22  H    0.242662  -0.000604
    23  H   -0.525838   0.686226
    24  H   -0.241812   0.360904
    25  H   -0.117406   0.267805
    26  H    0.233615   0.037747
    27  H   -1.289460   1.455990
    28  H   -0.263943   0.435932
    29  H   -0.057599   0.207748
    30  H    0.141061   0.047706
    31  H    0.275634   0.023620
    32  H    0.256000  -0.063303
    33  H    0.127790   0.034769
    34  H    0.148291  -0.012124
    35  H    0.163260   0.009876
    36  H    0.173467   0.247232
    37  H    0.048735   0.255109
 Sum of Mulliken charges =  -1.00000   1.00000

 Dipole moment (field-independent basis, Debye):
    X=             -3.2141    Y=             -5.3402    Z=              4.5984  Tot=              7.7456
 Quadrupole moment (field-independent basis, Debye-Ang):
   XX=           -174.9271   YY=           -155.9177   ZZ=           -159.2547
   XY=              0.1990   XZ=              8.7043   YZ=              7.8777

 Summary of Natural Population Analysis:

                                       Natural Population
                Natural  -----------------------------------------------
    Atom  No    Charge         Core      Valence    Rydberg      Total
 -----------------------------------------------------------------------
      C    1   -0.29319      0.99964     2.28799    0.00556     3.29319
      C    2   -0.01431      0.99959     2.00346    0.01126     3.01431
      C    3   -0.28578      0.99964     2.27977    0.00637     3.28578
      N    4   -0.34483      0.99970     2.82950    0.01563     3.84483
      C    5    0.09316      0.99943     1.89412    0.01328     2.90684
      C    6   -0.11072      0.99951     2.10063    0.01059     3.11072
      C    7   -0.07925      0.99956     2.06952    0.01017     3.07925
      C    8   -0.11761      0.99956     2.10800    0.01006     3.11761
      C    9   -0.08203      0.99952     2.07255    0.00996     3.08203
      C   10   -0.07859      0.99940     2.06763    0.01155     3.07859
      C   11    0.34445      0.99961     1.63220    0.02374     2.65555
      O   12   -0.31464      0.99988     3.30952    0.00524     4.31464
      N   13   -0.31412      0.99965     2.80504    0.00943     3.81412
      C   14   -0.05052      0.99956     2.03972    0.01124     3.05052
      C   15   -0.28828      0.99965     2.28303    0.00560     3.28828
      C   16    0.33466      0.99968     1.64160    0.02406     2.66534
      O   17   -0.32630      0.99988     3.32048    0.00595     4.32630
      N   18   -0.40331      0.99969     2.89608    0.00755     3.90331
      H   19    0.09937      0.00000     0.39965    0.00098     0.40063
      H   20    0.11004      0.00000     0.38902    0.00094     0.38996
      H   21    0.09995      0.00000     0.39942    0.00063     0.40005
      H   22    0.09626      0.00000     0.40138    0.00236     0.40374
      H   23    0.10209      0.00000     0.39532    0.00258     0.39791
      H   24    0.10099      0.00000     0.39747    0.00154     0.39901
      H   25    0.10241      0.00000     0.39673    0.00086     0.39759
      H   26    0.18855      0.00000     0.30520    0.00625     0.31145
      H   27    0.10693      0.00000     0.38956    0.00350     0.39307
      H   28    0.10209      0.00000     0.39674    0.00117     0.39791
      H   29    0.09969      0.00000     0.39957    0.00073     0.40031
      H   30    0.10143      0.00000     0.39770    0.00087     0.39857
      H   31    0.19373      0.00000     0.30445    0.00182     0.30627
      H   32    0.11488      0.00000     0.38316    0.00196     0.38512
      H   33    0.10383      0.00000     0.39543    0.00074     0.39617
      H   34    0.10013      0.00000     0.39902    0.00085     0.39987
      H   35    0.10548      0.00000     0.39354    0.00097     0.39452
      H   36    0.21011      0.00000     0.28625    0.00364     0.28989
      H   37    0.19322      0.00000     0.30471    0.00207     0.30678
 =======================================================================
   * Total *   -0.00000     17.99314    48.77515    0.23171    67.00000

 Normal termination of Gaussian 16 at Sat Dec 12 01:06:29 2020.
