 Gaussian 16, Revision A.03,

 -----------------------------------------------------------
 # opt freq B3LYP/6-31G(d) empiricaldispersion=gd3bj scf=xqc
 -----------------------------------------------------------

 ------------------------------
 CID_57093245_JID_1736_neutraal
 ------------------------------
 Symbolic Z-matrix:
 Charge =  0 Multiplicity = 1

 SCF Done:  E(RB3LYP) =  -504.233666485     A.U. after   12 cycles
 SCF Done:  E(RB3LYP) =  -504.237474368     A.U. after   11 cycles
 SCF Done:  E(RB3LYP) =  -504.237956057     A.U. after   10 cycles
 SCF Done:  E(RB3LYP) =  -504.238047560     A.U. after   10 cycles
 SCF Done:  E(RB3LYP) =  -504.238086913     A.U. after    9 cycles
 SCF Done:  E(RB3LYP) =  -504.238104851     A.U. after    9 cycles
 SCF Done:  E(RB3LYP) =  -504.238112529     A.U. after    8 cycles
 SCF Done:  E(RB3LYP) =  -504.238114668     A.U. after    7 cycles
 SCF Done:  E(RB3LYP) =  -504.238115068     A.U. after    7 cycles
 SCF Done:  E(RB3LYP) =  -504.238115161     A.U. after    6 cycles
 Optimization completed.
    -- Stationary point found.

 1\1\GINC-NODE122\FOpt\RB3LYP\6-31G(d)\C9H18O2\VSC10255\08-Dec-2020\0\\
 # opt freq B3LYP/6-31G(d) empiricaldispersion=gd3bj scf=xqc\\CID_57093
 245_JID_1736_neutraal\\0,1\C,0.8683768402,0.0638346715,0.067466711\C,0
 .4487492707,-1.1629720101,-0.7122453616\C,1.4401904921,-2.2720000835,-
 1.0220280749\C,0.2739916892,-2.5210558366,-0.0920817937\C,0.51113412,-
 2.7768121089,1.3852326793\C,-0.5671913348,-2.220580246,2.3314991524\C,
 -1.9876440513,-2.7825036219,2.1521964091\C,-2.1184328488,-4.3047358466
 ,2.311681368\C,-1.5994341982,-4.8494729816,3.6435099466\O,-2.260147204

 Normal termination of Gaussian 16 at Tue Dec  8 21:00:47 2020.

 --------------------------------------------------------------------
 #N Geom=AllCheck Guess=TCheck SCRF=Check GenChk RB3LYP/6-31G(d) Freq
 --------------------------------------------------------------------

 Structure from the checkpoint file:  "JID_1736.chk"
 ------------------------------
 CID_57093245_JID_1736_neutraal
 ------------------------------
 Charge =  0 Multiplicity = 1

 SCF Done:  E(RB3LYP) =  -504.238115161     A.U. after    1 cycles

  Exact polarizability: 114.235   3.403  96.097   1.142  -3.103  87.043
 Approx polarizability: 137.948   2.985 137.699   1.452  -3.978 131.244

                      1                      2                      3
                      A                      A                      A
 Frequencies --     36.8760                51.7349                61.9740
 Red. masses --      3.5906                 4.1389                 4.0650
 Frc consts  --      0.0029                 0.0065                 0.0092
 IR Inten    --      0.8070                 0.4059                 1.1718

                      4                      5                      6
                      A                      A                      A
 Frequencies --    128.0916               139.7918               189.8367
 Red. masses --      3.7184                 2.9063                 1.9087
 Frc consts  --      0.0359                 0.0335                 0.0405
 IR Inten    --      2.2133                 1.2491                 3.5852

                      7                      8                      9
                      A                      A                      A
 Frequencies --    220.0844               236.1589               259.7102
 Red. masses --      1.2864                 2.0156                 2.3882
 Frc consts  --      0.0367                 0.0662                 0.0949
 IR Inten    --      3.5695                15.5868                 8.8719

                     10                     11                     12
                      A                      A                      A
 Frequencies --    300.4786               320.9439               328.4510
 Red. masses --      1.6047                 1.5580                 1.6233
 Frc consts  --      0.0854                 0.0946                 0.1032
 IR Inten    --     41.2062               107.2739                22.3389

                     13                     14                     15
                      A                      A                      A
 Frequencies --    343.9904               393.1691               415.5697
 Red. masses --      1.5281                 2.9472                 2.3901
 Frc consts  --      0.1065                 0.2684                 0.2432
 IR Inten    --     66.7780                 4.4329                 8.9440

                     16                     17                     18
                      A                      A                      A
 Frequencies --    445.6341               456.2056               531.8090
 Red. masses --      1.9950                 2.0446                 2.3898
 Frc consts  --      0.2334                 0.2507                 0.3982
 IR Inten    --      7.7130                 7.8586                 3.3063

                     19                     20                     21
                      A                      A                      A
 Frequencies --    573.1355               682.4844               747.7318
 Red. masses --      2.9318                 2.0494                 1.5709
 Frc consts  --      0.5674                 0.5624                 0.5175
 IR Inten    --      4.0261                 6.2924                 5.8330

                     22                     23                     24
                      A                      A                      A
 Frequencies --    786.3253               813.5559               864.2457
 Red. masses --      2.5232                 2.2445                 1.7947
 Frc consts  --      0.9192                 0.8753                 0.7898
 IR Inten    --      6.2521                 2.6429                 4.6627

                     25                     26                     27
                      A                      A                      A
 Frequencies --    875.8493               900.8402               930.0119
 Red. masses --      2.0232                 1.3782                 2.5451
 Frc consts  --      0.9144                 0.6590                 1.2970
 IR Inten    --      5.6609                 9.7336                14.3187

                     28                     29                     30
                      A                      A                      A
 Frequencies --    943.6531               973.2328              1015.3885
 Red. masses --      1.4955                 2.0416                 1.5627
 Frc consts  --      0.7846                 1.1393                 0.9493
 IR Inten    --      1.2820                24.8506                 5.1129

                     31                     32                     33
                      A                      A                      A
 Frequencies --   1017.8767              1040.6394              1045.0971
 Red. masses --      1.4518                 1.3343                 1.6378
 Frc consts  --      0.8862                 0.8513                 1.0539
 IR Inten    --     14.8992                 4.7301                 7.1879

                     34                     35                     36
                      A                      A                      A
 Frequencies --   1081.5915              1101.1864              1116.9779
 Red. masses --      2.3566                 2.3103                 1.9969
 Frc consts  --      1.6243                 1.6506                 1.4679
 IR Inten    --     27.5969                67.9644                 2.4487

                     37                     38                     39
                      A                      A                      A
 Frequencies --   1128.5954              1143.6772              1178.1933
 Red. masses --      2.6206                 1.7930                 1.1719
 Frc consts  --      1.9666                 1.3817                 0.9585
 IR Inten    --      2.7724                11.8562                 8.7039

                     40                     41                     42
                      A                      A                      A
 Frequencies --   1191.6563              1202.2561              1234.5549
 Red. masses --      1.4198                 1.6770                 1.3933
 Frc consts  --      1.1879                 1.4282                 1.2512
 IR Inten    --     14.0052                 1.3315                23.3048

                     43                     44                     45
                      A                      A                      A
 Frequencies --   1253.5080              1289.5899              1308.4234
 Red. masses --      1.3629                 1.4333                 1.6739
 Frc consts  --      1.2617                 1.4044                 1.6884
 IR Inten    --     49.0437                15.4837                 4.8016

                     46                     47                     48
                      A                      A                      A
 Frequencies --   1344.3017              1365.1394              1388.4793
 Red. masses --      1.1682                 1.3497                 1.6191
 Frc consts  --      1.2438                 1.4819                 1.8391
 IR Inten    --      5.6274                15.6324                 1.9455

                     49                     50                     51
                      A                      A                      A
 Frequencies --   1390.9574              1408.6512              1419.4459
 Red. masses --      1.3837                 1.2165                 1.5091
 Frc consts  --      1.5773                 1.4222                 1.7915
 IR Inten    --      3.5363                33.7538                 3.5595

                     52                     53                     54
                      A                      A                      A
 Frequencies --   1422.4428              1437.4591              1445.5100
 Red. masses --      1.3875                 1.3218                 1.3163
 Frc consts  --      1.6541                 1.6092                 1.6205
 IR Inten    --      2.7616                 5.0954                35.1439

                     55                     56                     57
                      A                      A                      A
 Frequencies --   1453.1690              1501.1648              1512.9615
 Red. masses --      1.4498                 1.1104                 1.2243
 Frc consts  --      1.8038                 1.4743                 1.6512
 IR Inten    --      1.3490                 1.8674                 4.8338

                     58                     59                     60
                      A                      A                      A
 Frequencies --   1517.8917              1520.3548              1526.3693
 Red. masses --      1.0858                 1.1492                 1.1143
 Frc consts  --      1.4740                 1.5651                 1.5295
 IR Inten    --      2.8638                 6.2003                13.3057

                     61                     62                     63
                      A                      A                      A
 Frequencies --   1529.8297              1537.5814              1542.8178
 Red. masses --      1.1131                 1.1517                 1.0865
 Frc consts  --      1.5349                 1.6042                 1.5238
 IR Inten    --      0.7076                10.9853                 2.5445

                     64                     65                     66
                      A                      A                      A
 Frequencies --   2992.2903              3019.7249              3024.3920
 Red. masses --      1.0724                 1.0693                 1.0699
 Frc consts  --      5.6576                 5.7451                 5.7658
 IR Inten    --     55.8268                18.2179                39.8948

                     67                     68                     69
                      A                      A                      A
 Frequencies --   3033.2620              3045.7827              3048.8435
 Red. masses --      1.0711                 1.0364                 1.0606
 Frc consts  --      5.8061                 5.6647                 5.8084
 IR Inten    --     52.4844                26.8627                18.8752

                     70                     71                     72
                      A                      A                      A
 Frequencies --   3073.3880              3081.8481              3087.6127
 Red. masses --      1.0916                 1.0946                 1.1002
 Frc consts  --      6.0749                 6.1255                 6.1796
 IR Inten    --     16.8897                80.2667                57.9026

                     73                     74                     75
                      A                      A                      A
 Frequencies --   3099.4310              3104.4327              3116.1288
 Red. masses --      1.0934                 1.1021                 1.1000
 Frc consts  --      6.1886                 6.2581                 6.2931
 IR Inten    --     51.0332                31.6461                19.7524

                     76                     77                     78
                      A                      A                      A
 Frequencies --   3121.0218              3138.2673              3163.9193
 Red. masses --      1.0911                 1.0547                 1.0889
 Frc consts  --      6.2619                 6.1204                 6.4224
 IR Inten    --     20.0698                14.3414                12.4303

                     79                     80                     81
                      A                      A                      A
 Frequencies --   3225.0247              3715.9730              3751.9262
 Red. masses --      1.1172                 1.0660                 1.0658
 Frc consts  --      6.8459                 8.6727                 8.8399
 IR Inten    --     12.6319                 7.4083                 6.2025

 - Thermochemistry -
 -------------------
 Temperature   298.150 Kelvin.  Pressure   1.00000 Atm.
 Atom     1 has atomic number  6 and mass  12.00000

 Molecular mass:   158.13068 amu.
 Principal axes and moments of inertia in atomic units:
                           1         2         3
     Eigenvalues --   798.140233585.380963877.09293
           X            0.99989   0.01474   0.00201
           Y           -0.01467   0.99941  -0.03110
           Z           -0.00247   0.03107   0.99951
 This molecule is an asymmetric top.
 Rotational symmetry number  1.
 Warning -- assumption of classical behavior for rotation
           may cause significant error
 Rotational temperatures (Kelvin)      0.10852     0.02416     0.02234
 Rotational constants (GHZ):           2.26118     0.50336     0.46549
 Zero-point vibrational energy     690296.6 (Joules/Mol)
                                  164.98485 (Kcal/Mol)
 Warning -- explicit consideration of  19 degrees of freedom as
           vibrations may cause significant error
 Vibrational temperatures:     53.06    74.43    89.17   184.30   201.13
          (Kelvin)            273.13   316.65   339.78   373.67   432.32
                              461.77   472.57   494.93   565.68   597.91
                              641.17   656.38   765.15   824.61   981.94
                             1075.82  1131.35  1170.53  1243.46  1260.15
                             1296.11  1338.08  1357.71  1400.26  1460.92
                             1464.50  1497.25  1503.66  1556.17  1584.36
                             1607.08  1623.80  1645.50  1695.16  1714.53
                             1729.78  1776.25  1803.52  1855.43  1882.53
                             1934.15  1964.13  1997.71  2001.28  2026.73
                             2042.27  2046.58  2068.18  2079.77  2090.79
                             2159.84  2176.81  2183.91  2187.45  2196.11
                             2201.08  2212.24  2219.77  4305.24  4344.71
                             4351.43  4364.19  4382.20  4386.61  4421.92
                             4434.09  4442.39  4459.39  4466.59  4483.41
                             4490.45  4515.27  4552.17  4640.09  5346.46
                             5398.19

 Zero-point correction=                           0.262920 (Hartree/Particle)
 Thermal correction to Energy=                    0.275910
 Thermal correction to Enthalpy=                  0.276854
 Thermal correction to Gibbs Free Energy=         0.223365
 Sum of electronic and zero-point Energies=           -503.975195
 Sum of electronic and thermal Energies=              -503.962205
 Sum of electronic and thermal Enthalpies=            -503.961261
 Sum of electronic and thermal Free Energies=         -504.014750

                     E (Thermal)             CV                S
                      KCal/Mol        Cal/Mol-Kelvin    Cal/Mol-Kelvin
 Total                  173.136             48.752            112.578
 Electronic               0.000              0.000              0.000
 Translational            0.889              2.981             41.084
 Rotational               0.889              2.981             30.785
 Vibrational            171.359             42.791             40.709
 Vibration     1          0.594              1.982              5.420
 Vibration     2          0.596              1.977              4.750
 Vibration     3          0.597              1.972              4.393
 Vibration     4          0.611              1.925              2.975
 Vibration     5          0.615              1.914              2.807
 Vibration     6          0.633              1.854              2.229
 Vibration     7          0.647              1.810              1.958
 Vibration     8          0.655              1.785              1.832
 Vibration     9          0.668              1.746              1.664
 Vibration    10          0.693              1.673              1.414
 Vibration    11          0.706              1.633              1.305
 Vibration    12          0.712              1.619              1.268
 Vibration    13          0.723              1.587              1.194
 Vibration    14          0.760              1.485              0.988
 Vibration    15          0.779              1.436              0.907
 Vibration    16          0.805              1.371              0.809
 Vibration    17          0.814              1.347              0.777
 Vibration    18          0.887              1.180              0.583
 Vibration    19          0.929              1.089              0.498

                           ! Non-Optimized Parameters !

 1\1\GINC-NODE122\Freq\RB3LYP\6-31G(d)\C9H18O2\VSC10255\08-Dec-2020\0\\
 #N Geom=AllCheck Guess=TCheck SCRF=Check GenChk RB3LYP/6-31G(d) Freq\\
 CID_57093245_JID_1736_neutraal\\0,1\C,0.8683768402,0.0638346715,0.0674
 66711\C,0.4487492707,-1.1629720101,-0.7122453616\C,1.4401904921,-2.272
 0000835,-1.0220280749\C,0.2739916892,-2.5210558366,-0.0920817937\C,0.5
 1113412,-2.7768121089,1.3852326793\C,-0.5671913348,-2.220580246,2.3314
 991524\C,-1.9876440513,-2.7825036219,2.1521964091\C,-2.1184328488,-4.3
 047358466,2.311681368\C,-1.5994341982,-4.8494729816,3.6435099466\O,-2.

 Normal termination of Gaussian 16 at Tue Dec  8 21:07:43 2020.

 ----------------------------------------------------------------------
 # B3LYP/6-311++G(d,p) empiricaldispersion=gd3bj scf=xqc pop=npa geom=c
 heck
 ----------------------------------------------------------------------

 --------------------------------------
 CID_57093245_JID_1736_Energie_neutraal
 --------------------------------------
 Structure from the checkpoint file:  "JID_1736.chk"
 Charge =  0 Multiplicity = 1

 SCF Done:  E(RB3LYP) =  -504.401639727     A.U. after   14 cycles
 Normal termination of Gaussian 16 at Tue Dec  8 21:11:30 2020.

 ----------------------------------------------------------------------
 # B3LYP/6-311++G(d,p) empiricaldispersion=gd3bj scf=xqc pop=npa geom=c
 heck
 ----------------------------------------------------------------------

 ------------------------------------
 CID_57093245_JID_1736_Energie_kation
 ------------------------------------
 Structure from the checkpoint file:  "JID_1736.chk"
 Charge =  1 Multiplicity = 2

 SCF Done:  E(UB3LYP) =  -504.071037855     A.U. after   27 cycles
 Normal termination of Gaussian 16 at Tue Dec  8 21:21:27 2020.
 Gaussian 16:  ES64L-G16RevA.03 25-Dec-2016

 -----------------------------------
 CID_57093245_JID_1736_Energie_anion
 -----------------------------------
 Structure from the checkpoint file:  "JID_1736.chk"
 Charge = -1 Multiplicity = 2

                         Standard orientation:
 ---------------------------------------------------------------------
 Center     Atomic      Atomic             Coordinates (Angstroms)
 Number     Number       Type             X           Y           Z
 ---------------------------------------------------------------------
      1          6           0        2.993708    1.619805   -0.278358
      2          6           0        2.760609    0.129796   -0.399321
      3          6           0        2.918135   -0.788318    0.801144
      4          6           0        1.560161   -0.571660    0.172007
      5          6           0        0.471737    0.166342    0.930158
      6          6           0       -0.461880    1.032009    0.066109
      7          6           0       -1.286230    0.291006   -1.000171
      8          6           0       -2.210213   -0.814425   -0.467242
      9          6           0       -3.199128   -0.352118    0.604291
     10          8           0       -4.064167    0.687359    0.156566
     11          8           0        1.094993   -1.618437   -0.661119
     12          1           0        2.492747    2.171217   -1.082595
     13          1           0        4.065137    1.845647   -0.335496
     14          1           0        2.627163    2.013927    0.675288
     15          1           0        3.091482   -0.304751   -1.340230
     16          1           0        3.394209   -1.751962    0.644336
     17          1           0        3.116884   -0.330691    1.767859
     18          1           0       -0.113303   -0.572050    1.497854
     19          1           0        0.940246    0.808323    1.685074
     20          1           0       -1.135848    1.575296    0.744293
     21          1           0        0.138777    1.800880   -0.434517
     22          1           0       -1.894118    1.029939   -1.541593
     23          1           0       -0.610290   -0.150945   -1.736864
     24          1           0       -2.777234   -1.233935   -1.307347
     25          1           0       -1.606578   -1.633900   -0.056665
     26          1           0       -3.859527   -1.178996    0.884535
     27          1           0       -2.661619   -0.046727    1.516922
     28          1           0       -3.511553    1.459625   -0.037005
     29          1           0        0.775427   -2.326895   -0.079132
 ---------------------------------------------------------------------

 SCF Done:  E(UB3LYP) =  -504.387530346     A.U. after   28 cycles

 The electronic state is 2-A.
 Alpha  occ. eigenvalues --  -19.01977 -19.01784 -10.12159 -10.10859 -10.07273
 Alpha  occ. eigenvalues --  -10.06185 -10.06150 -10.06122 -10.05921 -10.05783
 Alpha  occ. eigenvalues --  -10.05649  -0.92444  -0.91986  -0.75087  -0.69602
 Alpha  occ. eigenvalues --   -0.64236  -0.61108  -0.58264  -0.52501  -0.49629
 Alpha  occ. eigenvalues --   -0.46578  -0.43664  -0.40755  -0.40553  -0.37124
 Alpha  occ. eigenvalues --   -0.35607  -0.34874  -0.34625  -0.32689  -0.30921
 Alpha  occ. eigenvalues --   -0.30600  -0.29057  -0.28050  -0.27504  -0.26236
 Alpha  occ. eigenvalues --   -0.25027  -0.24155  -0.23502  -0.22717  -0.21410
 Alpha  occ. eigenvalues --   -0.20759  -0.17253  -0.16819  -0.15097   0.04647
 Alpha virt. eigenvalues --    0.06815   0.07294   0.08179   0.08901   0.09509
 Alpha virt. eigenvalues --    0.09779   0.10498   0.10768   0.11105   0.12317
 Alpha virt. eigenvalues --    0.12966   0.13044   0.13372   0.14439   0.15063

  Beta  occ. eigenvalues --  -19.01956 -19.01746 -10.12160 -10.10839 -10.07259
  Beta  occ. eigenvalues --  -10.06153 -10.06118 -10.06099 -10.05895 -10.05766
  Beta  occ. eigenvalues --  -10.05639  -0.92366  -0.91940  -0.75055  -0.69562
  Beta  occ. eigenvalues --   -0.64185  -0.61055  -0.58208  -0.52434  -0.49548
  Beta  occ. eigenvalues --   -0.46526  -0.43584  -0.40705  -0.40502  -0.37067
  Beta  occ. eigenvalues --   -0.35560  -0.34824  -0.34580  -0.32651  -0.30866
  Beta  occ. eigenvalues --   -0.30566  -0.29022  -0.28014  -0.27464  -0.26198
  Beta  occ. eigenvalues --   -0.24979  -0.24124  -0.23468  -0.22676  -0.21378
  Beta  occ. eigenvalues --   -0.20722  -0.17216  -0.16768  -0.15064
  Beta virt. eigenvalues --    0.06994   0.07810   0.07958   0.08805   0.09304
  Beta virt. eigenvalues --    0.09966   0.10106   0.10959   0.11180   0.11695
  Beta virt. eigenvalues --    0.12647   0.13245   0.13336   0.13562   0.14874

 Mulliken charges and spin densities:
               1          2
     1  C    1.089680  -1.795848
     2  C   -1.338799   1.666282
     3  C    2.280186  -2.828658
     4  C   -1.220457   1.087494
     5  C    0.227884  -0.730582
     6  C    1.070485  -0.930883
     7  C   -1.585290   1.086197
     8  C    0.572914  -0.661902
     9  C    0.610205  -1.158843
    10  O   -0.280516   0.039629
    11  O   -0.188307  -0.000266
    12  H   -0.157450   0.299989
    13  H   -0.097449   0.226251
    14  H   -0.189116   0.336929
    15  H    0.062650   0.158622
    16  H   -0.124903   0.283617
    17  H   -0.182423   0.307087
    18  H   -0.044306   0.238642
    19  H   -0.436384   0.597717
    20  H   -0.339901   0.487982
    21  H   -0.006098   0.148998
    22  H   -0.255042   0.409914
    23  H    0.004896   0.178745
    24  H    0.096085   0.071925
    25  H   -0.320255   0.408747
    26  H   -0.084913   0.251524
    27  H   -0.080221   0.235629
    28  H    0.082702   0.161335
    29  H   -0.165858   0.423726
 Sum of Mulliken charges =  -1.00000   1.00000

 Dipole moment (field-independent basis, Debye):
    X=              0.2685    Y=             -0.2694    Z=             -2.2057  Tot=              2.2383
 Quadrupole moment (field-independent basis, Debye-Ang):
   XX=           -134.8831   YY=           -112.6760   ZZ=           -102.5469
   XY=              0.3208   XZ=             -1.1374   YZ=             -0.8287

 Summary of Natural Population Analysis:

                                       Natural Population
                Natural  -----------------------------------------------
    Atom  No    Charge         Core      Valence    Rydberg      Total
 -----------------------------------------------------------------------
      C    1   -0.28696      0.99965     2.28175    0.00556     3.28696
      C    2   -0.11245      0.99955     2.10359    0.00931     3.11245
      C    3   -0.20543      0.99958     2.19625    0.00960     3.20543
      C    4    0.12479      0.99943     1.85934    0.01644     2.87521
      C    5   -0.20238      0.99958     2.19161    0.01120     3.20238
      C    6   -0.19139      0.99962     2.18109    0.01068     3.19139
      C    7   -0.19568      0.99962     2.18793    0.00814     3.19568
      C    8   -0.20287      0.99962     2.19562    0.00763     3.20287
      C    9   -0.00956      0.99960     1.99875    0.01122     3.00956
      O   10   -0.37191      0.99990     3.36506    0.00694     4.37191
      O   11   -0.37120      0.99989     3.36440    0.00691     4.37120
      H   12    0.09999      0.00000     0.39878    0.00123     0.40001
      H   13    0.09814      0.00000     0.40097    0.00089     0.40186
      H   14    0.10167      0.00000     0.39693    0.00139     0.39833
      H   15    0.10527      0.00000     0.39346    0.00127     0.39473
      H   16    0.10490      0.00000     0.39389    0.00121     0.39510
      H   17    0.10192      0.00000     0.39676    0.00132     0.39808
      H   18    0.09992      0.00000     0.39794    0.00214     0.40008
      H   19    0.10586      0.00000     0.39209    0.00205     0.39414
      H   20    0.09266      0.00000     0.40562    0.00173     0.40734
      H   21    0.09933      0.00000     0.39910    0.00157     0.40067
      H   22    0.09050      0.00000     0.40802    0.00148     0.40950
      H   23    0.10856      0.00000     0.38987    0.00156     0.39144
      H   24    0.09639      0.00000     0.40236    0.00125     0.40361
      H   25    0.10060      0.00000     0.39761    0.00179     0.39940
      H   26    0.08418      0.00000     0.41444    0.00139     0.41582
      H   27    0.07642      0.00000     0.42192    0.00166     0.42358
      H   28    0.22754      0.00000     0.26930    0.00316     0.27246
      H   29    0.23118      0.00000     0.26374    0.00508     0.26882
 =======================================================================
   * Total *    0.00000     10.99603    32.86819    0.13578    44.00000

 Normal termination of Gaussian 16 at Tue Dec  8 21:31:10 2020.
