 Gaussian 16, Revision A.03,

 -----------------------------------------------------------
 # opt freq B3LYP/6-31G(d) empiricaldispersion=gd3bj scf=xqc
 -----------------------------------------------------------

 ------------------------------
 CID_83706607_JID_6791_neutraal
 ------------------------------
 Symbolic Z-matrix:
 Charge =  0 Multiplicity = 1

 SCF Done:  E(RB3LYP) =  -707.048234282     A.U. after   15 cycles
 SCF Done:  E(RB3LYP) =  -707.053628320     A.U. after   12 cycles
 SCF Done:  E(RB3LYP) =  -707.054237319     A.U. after   11 cycles
 SCF Done:  E(RB3LYP) =  -707.054479963     A.U. after   11 cycles
 SCF Done:  E(RB3LYP) =  -707.054590877     A.U. after   10 cycles
 SCF Done:  E(RB3LYP) =  -707.054690670     A.U. after   11 cycles
 SCF Done:  E(RB3LYP) =  -707.054765868     A.U. after   11 cycles
 SCF Done:  E(RB3LYP) =  -707.054798082     A.U. after   10 cycles
 SCF Done:  E(RB3LYP) =  -707.054836058     A.U. after   11 cycles
 SCF Done:  E(RB3LYP) =  -707.054849908     A.U. after   10 cycles
 SCF Done:  E(RB3LYP) =  -707.054852213     A.U. after    9 cycles
 SCF Done:  E(RB3LYP) =  -707.054853012     A.U. after    8 cycles
 SCF Done:  E(RB3LYP) =  -707.054853177     A.U. after    8 cycles
 Optimization completed.
    -- Stationary point found.
 Normal termination of Gaussian 16 at Fri Dec 11 00:32:59 2020.

 --------------------------------------------------------------------
 #N Geom=AllCheck Guess=TCheck SCRF=Check GenChk RB3LYP/6-31G(d) Freq
 --------------------------------------------------------------------

 Structure from the checkpoint file:  "JID_6791.chk"
 ------------------------------
 CID_83706607_JID_6791_neutraal
 ------------------------------
 Charge =  0 Multiplicity = 1

 SCF Done:  E(RB3LYP) =  -707.054853177     A.U. after    1 cycles

  Exact polarizability: 212.271   0.815 148.845  -4.065  -5.540  90.892
 Approx polarizability: 267.119  10.571 248.695  -3.735 -10.422 140.954

                      1                      2                      3
                      A                      A                      A
 Frequencies --     33.6700                48.3518                80.8769
 Red. masses --      4.7743                 3.4012                 3.3105
 Frc consts  --      0.0032                 0.0047                 0.0128
 IR Inten    --      0.8013                 1.1892                 1.9340

                      4                      5                      6
                      A                      A                      A
 Frequencies --    100.8814               113.2001               134.1555
 Red. masses --      3.0684                 2.3191                 2.4396
 Frc consts  --      0.0184                 0.0175                 0.0259
 IR Inten    --      1.8816                 1.0250                 3.2697

                      7                      8                      9
                      A                      A                      A
 Frequencies --    144.3901               187.1054               218.3871
 Red. masses --      1.5348                 1.6257                 2.5461
 Frc consts  --      0.0189                 0.0335                 0.0715
 IR Inten    --      0.3971                 2.3519                 5.1839

                     10                     11                     12
                      A                      A                      A
 Frequencies --    250.2844               251.8943               257.4410
 Red. masses --      2.4231                 3.6975                 3.9251
 Frc consts  --      0.0894                 0.1382                 0.1533
 IR Inten    --      3.0378                 1.7488                 1.0781

                     13                     14                     15
                      A                      A                      A
 Frequencies --    259.4867               336.0360               352.6930
 Red. masses --      1.8307                 2.6597                 2.8165
 Frc consts  --      0.0726                 0.1770                 0.2064
 IR Inten    --      2.5072                 7.3352                 3.0942

                     16                     17                     18
                      A                      A                      A
 Frequencies --    381.1455               441.7560               459.9334
 Red. masses --      3.0617                 2.3243                 2.8741
 Frc consts  --      0.2621                 0.2672                 0.3582
 IR Inten    --     31.7463                75.4596                31.2382

                     19                     20                     21
                      A                      A                      A
 Frequencies --    472.3906               499.3589               510.9619
 Red. masses --      3.8918                 4.2417                 3.6906
 Frc consts  --      0.5117                 0.6232                 0.5677
 IR Inten    --     17.4283                 0.7680                 6.8745

                     22                     23                     24
                      A                      A                      A
 Frequencies --    585.5826               594.8034               628.8380
 Red. masses --      3.7032                 4.4744                 2.8082
 Frc consts  --      0.7482                 0.9327                 0.6543
 IR Inten    --      3.3163                 3.9989                16.9786

                     25                     26                     27
                      A                      A                      A
 Frequencies --    647.6472               696.0610               705.5265
 Red. masses --      4.0602                 3.9825                 2.1072
 Frc consts  --      1.0034                 1.1368                 0.6180
 IR Inten    --     20.2567                 4.1198                 7.1128

                     28                     29                     30
                      A                      A                      A
 Frequencies --    737.9247               769.6199               777.6836
 Red. masses --      3.1432                 2.4181                 1.5994
 Frc consts  --      1.0084                 0.8439                 0.5699
 IR Inten    --      2.9189                 4.5794                17.5288

                     31                     32                     33
                      A                      A                      A
 Frequencies --    836.3970               849.5175               886.9063
 Red. masses --      1.8512                 1.4825                 2.9389
 Frc consts  --      0.7630                 0.6303                 1.3620
 IR Inten    --     34.1363                 1.1980                 8.4119

                     34                     35                     36
                      A                      A                      A
 Frequencies --    957.8498               962.0830               989.4924
 Red. masses --      1.2518                 2.1117                 2.4291
 Frc consts  --      0.6767                 1.1516                 1.4013
 IR Inten    --      0.4705                 8.2038                 4.7472

                     37                     38                     39
                      A                      A                      A
 Frequencies --   1009.0201              1016.2288              1016.6958
 Red. masses --      4.4013                 3.3110                 2.1933
 Frc consts  --      2.6401                 2.0146                 1.3358
 IR Inten    --      4.6022                 9.5221                43.3862

                     40                     41                     42
                      A                      A                      A
 Frequencies --   1090.6357              1102.0482              1119.9538
 Red. masses --      1.9408                 1.7746                 1.7381
 Frc consts  --      1.3602                 1.2699                 1.2845
 IR Inten    --     10.5313                13.2626                 2.4039

                     43                     44                     45
                      A                      A                      A
 Frequencies --   1128.4405              1161.0064              1163.1611
 Red. masses --      1.7493                 1.6801                 1.8511
 Frc consts  --      1.3124                 1.3343                 1.4756
 IR Inten    --      1.6922                 5.2924                40.8315

                     46                     47                     48
                      A                      A                      A
 Frequencies --   1167.2696              1195.8505              1208.9706
 Red. masses --      1.3247                 1.7697                 1.2544
 Frc consts  --      1.0635                 1.4911                 1.0802
 IR Inten    --      4.9117                12.0725                33.4061

                     49                     50                     51
                      A                      A                      A
 Frequencies --   1219.7616              1246.0557              1263.0393
 Red. masses --      2.2710                 1.6871                 1.3704
 Frc consts  --      1.9907                 1.5434                 1.2881
 IR Inten    --     26.4560               263.4521                 7.7982

                     52                     53                     54
                      A                      A                      A
 Frequencies --   1279.5115              1303.8893              1319.5150
 Red. masses --      1.8858                 1.8645                 1.7688
 Frc consts  --      1.8190                 1.8676                 1.8145
 IR Inten    --     20.9409                14.4087                14.9670

                     55                     56                     57
                      A                      A                      A
 Frequencies --   1342.6661              1366.9184              1381.0829
 Red. masses --      2.0815                 1.5440                 1.6982
 Frc consts  --      2.2109                 1.6998                 1.9085
 IR Inten    --     44.7174                 6.3620                25.9610

                     58                     59                     60
                      A                      A                      A
 Frequencies --   1391.7291              1400.2077              1431.5363
 Red. masses --      2.7286                 2.0048                 1.5845
 Frc consts  --      3.1139                 2.3158                 1.9131
 IR Inten    --     70.1648                36.6671                49.5516

                     61                     62                     63
                      A                      A                      A
 Frequencies --   1451.0635              1457.2015              1485.5749
 Red. masses --      1.2550                 2.0277                 1.6390
 Frc consts  --      1.5569                 2.5368                 2.1312
 IR Inten    --     17.3182                12.2826                92.2595

                     64                     65                     66
                      A                      A                      A
 Frequencies --   1489.7064              1507.4514              1512.7298
 Red. masses --      1.2067                 1.1297                 1.0710
 Frc consts  --      1.5779                 1.5125                 1.4440
 IR Inten    --     14.5649                 1.4241                14.0881

                     67                     68                     69
                      A                      A                      A
 Frequencies --   1524.4076              1528.8632              1531.0606
 Red. masses --      1.0897                 1.0620                 1.0866
 Frc consts  --      1.4919                 1.4626                 1.5007
 IR Inten    --     45.5567                10.3982                 7.8010

                     70                     71                     72
                      A                      A                      A
 Frequencies --   1546.1904              1554.3923              1563.8058
 Red. masses --      1.4331                 1.7788                 1.3218
 Frc consts  --      2.0187                 2.5322                 1.9045
 IR Inten    --      4.8622               116.4299                25.6833

                     73                     74                     75
                      A                      A                      A
 Frequencies --   1566.5533              1648.3680              1669.0119
 Red. masses --      1.6114                 5.1013                 5.4800
 Frc consts  --      2.3300                 8.1666                 8.9939
 IR Inten    --     41.4081                55.1016               295.6064

                     76                     77                     78
                      A                      A                      A
 Frequencies --   1773.1264              2942.1016              2958.1301
 Red. masses --     10.2078                 1.0732                 1.0740
 Frc consts  --     18.9088                 5.4733                 5.5372
 IR Inten    --    321.3849                47.1719                55.5404

                     79                     80                     81
                      A                      A                      A
 Frequencies --   2996.7521              3018.1745              3033.6874
 Red. masses --      1.0541                 1.0622                 1.0430
 Frc consts  --      5.5774                 5.7011                 5.6554
 IR Inten    --     86.3177                39.3550                76.7971

                     82                     83                     84
                      A                      A                      A
 Frequencies --   3064.4097              3082.5665              3085.3652
 Red. masses --      1.0999                 1.0845                 1.1017
 Frc consts  --      6.0853                 6.0714                 6.1793
 IR Inten    --     48.0999                40.6232                33.9940

                     85                     86                     87
                      A                      A                      A
 Frequencies --   3120.9273              3138.4052              3157.4925
 Red. masses --      1.0889                 1.0999                 1.0871
 Frc consts  --      6.2492                 6.3829                 6.3857
 IR Inten    --     16.6989                25.0599                 3.9628

                     88                     89                     90
                      A                      A                      A
 Frequencies --   3186.1682              3190.0369              3195.5195
 Red. masses --      1.0874                 1.0966                 1.0884
 Frc consts  --      6.5041                 6.5747                 6.5481
 IR Inten    --     17.4301                 1.3842                11.4728

                     91                     92                     93
                      A                      A                      A
 Frequencies --   3215.2994              3225.8421              3596.3802
 Red. masses --      1.0917                 1.0925                 1.0759
 Frc consts  --      6.6493                 6.6980                 8.1986
 IR Inten    --     16.0470                13.3578                 8.7935

 - Thermochemistry -
 -------------------
 Temperature   298.150 Kelvin.  Pressure   1.00000 Atm.
 Atom     1 has atomic number  6 and mass  12.00000

 Molecular mass:   219.13716 amu.
 Principal axes and moments of inertia in atomic units:
                           1         2         3
     Eigenvalues --  1264.193187689.307968511.51103
           X            0.99994  -0.00694  -0.00825
           Y            0.00683   0.99990  -0.01226
           Z            0.00834   0.01220   0.99989
 This molecule is an asymmetric top.
 Rotational symmetry number  1.
 Warning -- assumption of classical behavior for rotation
           may cause significant error
 Rotational temperatures (Kelvin)      0.06851     0.01126     0.01018
 Rotational constants (GHZ):           1.42758     0.23471     0.21204
 Zero-point vibrational energy     744689.1 (Joules/Mol)
                                  177.98496 (Kcal/Mol)
 Warning -- explicit consideration of  23 degrees of freedom as
           vibrations may cause significant error
 Vibrational temperatures:     48.44    69.57   116.36   145.15   162.87
          (Kelvin)            193.02   207.75   269.20   314.21   360.10
                              362.42   370.40   373.34   483.48   507.45
                              548.38   635.59   661.74   679.66   718.47
                              735.16   842.52   855.79   904.76   931.82
                             1001.48  1015.10  1061.71  1107.31  1118.91
                             1203.39  1222.27  1276.06  1378.13  1384.22
                             1423.66  1451.75  1462.13  1462.80  1569.18
                             1585.60  1611.36  1623.57  1670.43  1673.53
                             1679.44  1720.56  1739.44  1754.96  1792.80
                             1817.23  1840.93  1876.01  1898.49  1931.80
                             1966.69  1987.07  2002.39  2014.59  2059.66
                             2087.76  2096.59  2137.41  2143.36  2168.89
                             2176.48  2193.28  2199.69  2202.85  2224.62
                             2236.42  2249.97  2253.92  2371.63  2401.34
                             2551.13  4233.03  4256.09  4311.66  4342.48
                             4364.80  4409.00  4435.13  4439.15  4490.32
                             4515.47  4542.93  4584.19  4589.75  4597.64
                             4626.10  4641.27  5174.39

 Zero-point correction=                           0.283637 (Hartree/Particle)
 Thermal correction to Energy=                    0.298930
 Thermal correction to Enthalpy=                  0.299874
 Thermal correction to Gibbs Free Energy=         0.240686
 Sum of electronic and zero-point Energies=           -706.771216
 Sum of electronic and thermal Energies=              -706.755924
 Sum of electronic and thermal Enthalpies=            -706.754979
 Sum of electronic and thermal Free Energies=         -706.814168

                     E (Thermal)             CV                S
                      KCal/Mol        Cal/Mol-Kelvin    Cal/Mol-Kelvin
 Total                  187.581             58.169            124.572
 Electronic               0.000              0.000              0.000
 Translational            0.889              2.981             42.057
 Rotational               0.889              2.981             32.781
 Vibrational            185.804             52.207             49.734
 Vibration     1          0.594              1.983              5.601
 Vibration     2          0.595              1.978              4.884
 Vibration     3          0.600              1.962              3.869
 Vibration     4          0.604              1.948              3.437
 Vibration     5          0.607              1.939              3.213
 Vibration     6          0.613              1.919              2.886
 Vibration     7          0.616              1.909              2.745
 Vibration     8          0.632              1.858              2.256
 Vibration     9          0.646              1.813              1.972
 Vibration    10          0.663              1.762              1.729
 Vibration    11          0.664              1.760              1.717
 Vibration    12          0.667              1.750              1.679
 Vibration    13          0.668              1.747              1.665
 Vibration    14          0.717              1.604              1.231
 Vibration    15          0.729              1.570              1.154
 Vibration    16          0.751              1.510              1.035
 Vibration    17          0.802              1.379              0.821
 Vibration    18          0.818              1.339              0.766
 Vibration    19          0.829              1.311              0.731
 Vibration    20          0.855              1.251              0.660
 Vibration    21          0.866              1.226              0.631
 Vibration    22          0.943              1.063              0.475
 Vibration    23          0.952              1.043              0.459

                           ! Non-Optimized Parameters !
 Normal termination of Gaussian 16 at Fri Dec 11 00:43:13 2020.

 ----------------------------------------------------------------------
 # B3LYP/6-311++G(d,p) empiricaldispersion=gd3bj scf=xqc pop=npa geom=c
 heck
 ----------------------------------------------------------------------

 --------------------------------------
 CID_83706607_JID_6791_Energie_neutraal
 --------------------------------------
 Structure from the checkpoint file:  "JID_6791.chk"
 Charge =  0 Multiplicity = 1

 SCF Done:  E(RB3LYP) =  -707.251491301     A.U. after   15 cycles
 Normal termination of Gaussian 16 at Fri Dec 11 00:47:30 2020.

 ----------------------------------------------------------------------
 # B3LYP/6-311++G(d,p) empiricaldispersion=gd3bj scf=xqc pop=npa geom=c
 heck
 ----------------------------------------------------------------------

 ------------------------------------
 CID_83706607_JID_6791_Energie_kation
 ------------------------------------
 Structure from the checkpoint file:  "JID_6791.chk"
 Charge =  1 Multiplicity = 2

 SCF Done:  E(UB3LYP) =  -706.988173008     A.U. after   24 cycles
 Normal termination of Gaussian 16 at Fri Dec 11 00:57:03 2020.
 Gaussian 16:  ES64L-G16RevA.03 25-Dec-2016

 ----------------------------------------------------------------------
 # B3LYP/6-311++G(d,p) empiricaldispersion=gd3bj scf=xqc pop=npa geom=c
 heck
 ----------------------------------------------------------------------

 -----------------------------------
 CID_83706607_JID_6791_Energie_anion
 -----------------------------------
 Structure from the checkpoint file:  "JID_6791.chk"
 Charge = -1 Multiplicity = 2

                         Standard orientation:
 ---------------------------------------------------------------------
 Center     Atomic      Atomic             Coordinates (Angstroms)
 Number     Number       Type             X           Y           Z
 ---------------------------------------------------------------------
      1          6           0       -5.322954   -0.958759    0.596093
      2          7           0       -3.944649   -1.279086    0.279535
      3          6           0       -3.021741   -0.274569    0.003515
      4          6           0       -1.647559   -0.585278    0.038340
      5          6           0       -0.679298    0.370275   -0.276517
      6          6           0       -1.089682    1.674249   -0.614152
      7          6           0       -2.442700    1.982911   -0.629928
      8          6           0       -3.416914    1.030341   -0.325350
      9          7           0        0.705652    0.065687   -0.285285
     10          6           0        1.102951   -1.325668   -0.188129
     11          6           0        2.528047   -1.465715   -0.702007
     12          7           0        3.438493   -0.536921   -0.046534
     13          6           0        3.029218    0.647990    0.501280
     14          8           0        3.802898    1.477141    0.968365
     15          6           0        1.527697    0.901494    0.589303
     16          6           0        4.859819   -0.785882   -0.217470
     17          1           0       -5.830802   -0.547652   -0.283499
     18          1           0       -5.424959   -0.231521    1.418059
     19          1           0       -5.841119   -1.879308    0.876234
     20          1           0       -3.562095   -2.044992    0.817224
     21          1           0       -1.356081   -1.589958    0.327918
     22          1           0       -0.352618    2.419365   -0.892324
     23          1           0       -2.754596    2.989566   -0.895507
     24          1           0       -4.465674    1.301557   -0.350580
     25          1           0        1.034818   -1.713032    0.846456
     26          1           0        0.448095   -1.932579   -0.817880
     27          1           0        2.542854   -1.302971   -1.789861
     28          1           0        2.885293   -2.486277   -0.514142
     29          1           0        1.385113    1.955860    0.354190
     30          1           0        1.246778    0.770895    1.651039
     31          1           0        5.123879   -1.766063    0.197419
     32          1           0        5.133112   -0.773131   -1.281454
     33          1           0        5.407034   -0.002977    0.305914
 ---------------------------------------------------------------------

 SCF Done:  E(UB3LYP) =  -707.242889413     A.U. after   33 cycles
 SCF Done:  E(UB3LYP) =  -707.242889413     a.u. after    1 cycles

 The electronic state is 2-A.
 Alpha  occ. eigenvalues --  -18.99869 -14.25945 -14.23797 -14.22925 -10.18506
 Alpha  occ. eigenvalues --  -10.12241 -10.12221 -10.12183 -10.12114 -10.11549
 Alpha  occ. eigenvalues --  -10.11101 -10.10569 -10.08562 -10.07298 -10.07181
 Alpha  occ. eigenvalues --  -10.07139  -0.95345  -0.87372  -0.84580  -0.84025
 Alpha  occ. eigenvalues --   -0.74838  -0.68206  -0.66989  -0.65459  -0.62919
 Alpha  occ. eigenvalues --   -0.59432  -0.58311  -0.56195  -0.51573  -0.48911
 Alpha  occ. eigenvalues --   -0.45133  -0.44393  -0.43113  -0.41150  -0.40530
 Alpha  occ. eigenvalues --   -0.39484  -0.37795  -0.36987  -0.36553  -0.35919
 Alpha  occ. eigenvalues --   -0.35097  -0.34008  -0.33204  -0.32140  -0.31666
 Alpha  occ. eigenvalues --   -0.30365  -0.30051  -0.29429  -0.28152  -0.28070
 Alpha  occ. eigenvalues --   -0.27343  -0.26719  -0.25753  -0.21664  -0.18937
 Alpha  occ. eigenvalues --   -0.16841  -0.16112  -0.12721  -0.10868   0.03817
 Alpha virt. eigenvalues --    0.05348   0.06717   0.07240   0.07829   0.07923
 Alpha virt. eigenvalues --    0.08348   0.08569   0.09383   0.09510   0.09815
 Alpha virt. eigenvalues --    0.10259   0.10908   0.11386   0.11553   0.11836

  Beta  occ. eigenvalues --  -18.99864 -14.25946 -14.23790 -14.22895 -10.18500
  Beta  occ. eigenvalues --  -10.12242 -10.12217 -10.12150 -10.12114 -10.11526
  Beta  occ. eigenvalues --  -10.11074 -10.10530 -10.08561 -10.07284 -10.07179
  Beta  occ. eigenvalues --  -10.07129  -0.95336  -0.87357  -0.84557  -0.83991
  Beta  occ. eigenvalues --   -0.74825  -0.68171  -0.66973  -0.65435  -0.62890
  Beta  occ. eigenvalues --   -0.59378  -0.58254  -0.56150  -0.51542  -0.48880
  Beta  occ. eigenvalues --   -0.45094  -0.44355  -0.43077  -0.41122  -0.40489
  Beta  occ. eigenvalues --   -0.39451  -0.37761  -0.36954  -0.36531  -0.35891
  Beta  occ. eigenvalues --   -0.35068  -0.33987  -0.33158  -0.32115  -0.31632
  Beta  occ. eigenvalues --   -0.30327  -0.30004  -0.29393  -0.28126  -0.28051
  Beta  occ. eigenvalues --   -0.27318  -0.26696  -0.25731  -0.21641  -0.18920
  Beta  occ. eigenvalues --   -0.16830  -0.16094  -0.12691  -0.10844
  Beta virt. eigenvalues --    0.06089   0.06308   0.07286   0.07741   0.08023
  Beta virt. eigenvalues --    0.08454   0.08625   0.08867   0.09540   0.09791
  Beta virt. eigenvalues --    0.09999   0.10555   0.11220   0.11622   0.11773

 Mulliken charges and spin densities:
               1          2
     1  C    0.717309  -1.095896
     2  N   -0.250548   0.160225
     3  C   -0.498981   0.760128
     4  C   -0.816236  -0.086490
     5  C    0.100688  -0.549648
     6  C   -0.125735   0.332829
     7  C   -0.174565  -0.459686
     8  C    0.934075  -0.398994
     9  N    0.231150   0.083595
    10  C   -0.954226   0.708487
    11  C    2.032771  -2.594934
    12  N   -0.262529   0.243519
    13  C   -0.216782   0.184253
    14  O   -0.372355   0.001924
    15  C    0.003427  -0.260328
    16  C    0.472352  -0.760066
    17  H   -0.102963   0.244957
    18  H   -0.075212   0.222812
    19  H   -0.760676   0.923295
    20  H   -0.156644   0.399888
    21  H   -0.416602   0.636314
    22  H    0.123773   0.010395
    23  H    0.069228   0.078100
    24  H    0.154926  -0.012175
    25  H   -0.127176   0.304151
    26  H   -0.092308   0.260359
    27  H    0.057553   0.128470
    28  H   -0.576850   0.773813
    29  H    0.165064   0.005478
    30  H    0.133720   0.055492
    31  H   -0.223518   0.383450
    32  H   -0.113650   0.262729
    33  H    0.121520   0.053553
 Sum of Mulliken charges =  -1.00000   1.00000

 Dipole moment (field-independent basis, Debye):
    X=              1.3537    Y=              6.5205    Z=             -1.9255  Tot=              6.9323
 Quadrupole moment (field-independent basis, Debye-Ang):
   XX=           -201.9289   YY=           -149.9162   ZZ=           -127.2325
   XY=            -14.8105   XZ=              4.5946   YZ=             -0.1265

 Summary of Natural Population Analysis:

                                       Natural Population
                Natural  -----------------------------------------------
    Atom  No    Charge         Core      Valence    Rydberg      Total
 -----------------------------------------------------------------------
      C    1   -0.17959      0.99965     2.17087    0.00907     3.17959
      N    2   -0.30884      0.99968     2.79702    0.01214     3.80884
      C    3    0.09937      0.99950     1.88886    0.01227     2.90063
      C    4   -0.14386      0.99948     2.13529    0.00908     3.14386
      C    5    0.09833      0.99948     1.89046    0.01174     2.90167
      C    6   -0.13810      0.99952     2.13033    0.00825     3.13810
      C    7   -0.08740      0.99958     2.07851    0.00931     3.08740
      C    8   -0.14850      0.99952     2.14075    0.00823     3.14850
      N    9   -0.26495      0.99966     2.75428    0.01101     3.76495
      C   10   -0.09313      0.99962     2.08037    0.01315     3.09313
      C   11   -0.07844      0.99960     2.06728    0.01155     3.07844
      N   12   -0.25081      0.99964     2.74125    0.00992     3.75081
      C   13    0.34457      0.99964     1.63410    0.02170     2.65543
      O   14   -0.33097      0.99988     3.32567    0.00542     4.33097
      C   15   -0.11869      0.99957     2.10937    0.00975     3.11869
      C   16   -0.17972      0.99964     2.17210    0.00798     3.17972
      H   17    0.09122      0.00000     0.40737    0.00141     0.40878
      H   18    0.08597      0.00000     0.41246    0.00156     0.41403
      H   19    0.10340      0.00000     0.39451    0.00209     0.39660
      H   20    0.18899      0.00000     0.30525    0.00576     0.31101
      H   21    0.10538      0.00000     0.39239    0.00223     0.39462
      H   22    0.10003      0.00000     0.39866    0.00131     0.39997
      H   23    0.09696      0.00000     0.40230    0.00074     0.40304
      H   24    0.10229      0.00000     0.39668    0.00102     0.39771
      H   25    0.08847      0.00000     0.40939    0.00215     0.41153
      H   26    0.10964      0.00000     0.38859    0.00177     0.39036
      H   27    0.09297      0.00000     0.40547    0.00156     0.40703
      H   28    0.10267      0.00000     0.39447    0.00286     0.39733
      H   29    0.11112      0.00000     0.38749    0.00139     0.38888
      H   30    0.09783      0.00000     0.40079    0.00138     0.40217
      H   31    0.09693      0.00000     0.40185    0.00122     0.40307
      H   32    0.09248      0.00000     0.40639    0.00113     0.40752
      H   33    0.11440      0.00000     0.38456    0.00104     0.38560
 =======================================================================
   * Total *    0.00000     15.99366    42.80514    0.20120    59.00000

 Normal termination of Gaussian 16 at Fri Dec 11 01:09:51 2020.
