 Gaussian 16, Revision A.03,

 -----------------------------------------------------------
 # opt freq B3LYP/6-31G(d) empiricaldispersion=gd3bj scf=xqc
 -----------------------------------------------------------

 ------------------------------
 CID_64870931_JID_7015_neutraal
 ------------------------------
 Symbolic Z-matrix:
 Charge =  0 Multiplicity = 1

 SCF Done:  E(RB3LYP) =  -695.602567652     A.U. after   14 cycles
 SCF Done:  E(RB3LYP) =  -695.607791903     A.U. after   12 cycles
 SCF Done:  E(RB3LYP) =  -695.608506669     A.U. after   12 cycles
 SCF Done:  E(RB3LYP) =  -695.609750990     A.U. after   12 cycles
 SCF Done:  E(RB3LYP) =  -695.610443965     A.U. after   12 cycles
 SCF Done:  E(RB3LYP) =  -695.611169231     A.U. after   13 cycles
 SCF Done:  E(RB3LYP) =  -695.612082771     A.U. after   12 cycles
 SCF Done:  E(RB3LYP) =  -695.612686776     A.U. after   12 cycles
 SCF Done:  E(RB3LYP) =  -695.613167085     A.U. after   12 cycles
 SCF Done:  E(RB3LYP) =  -695.613333265     A.U. after   11 cycles
 SCF Done:  E(RB3LYP) =  -695.615941425     A.U. after   10 cycles
 SCF Done:  E(RB3LYP) =  -695.615945978     A.U. after    9 cycles
 SCF Done:  E(RB3LYP) =  -695.615952211     A.U. after    9 cycles
 SCF Done:  E(RB3LYP) =  -695.615955093     A.U. after    9 cycles
 SCF Done:  E(RB3LYP) =  -695.615955768     A.U. after    8 cycles
 Optimization completed.
    -- Stationary point found.
 Normal termination of Gaussian 16 at Fri Dec 11 12:09:05 2020.

 --------------------------------------------------------------------
 #N Geom=AllCheck Guess=TCheck SCRF=Check GenChk RB3LYP/6-31G(d) Freq
 --------------------------------------------------------------------

 Structure from the checkpoint file:  "JID_7015.chk"
 ------------------------------
 CID_64870931_JID_7015_neutraal
 ------------------------------
 Charge =  0 Multiplicity = 1

 SCF Done:  E(RB3LYP) =  -695.615955768     A.U. after    1 cycles

  Exact polarizability: 210.526   5.594 136.620  -0.396  12.710 150.242
 Approx polarizability: 272.364   6.699 197.055  -1.508  29.659 248.847

                      1                      2                      3
                      A                      A                      A
 Frequencies --     26.6567                39.3400                43.4544
 Red. masses --      3.6885                 3.9170                 3.7853
 Frc consts  --      0.0015                 0.0036                 0.0042
 IR Inten    --      0.2406                 0.0614                 0.1444

                      4                      5                      6
                      A                      A                      A
 Frequencies --     92.5369               104.0769               130.0913
 Red. masses --      2.6711                 2.3334                 3.0615
 Frc consts  --      0.0135                 0.0149                 0.0305
 IR Inten    --      0.3707                 0.2263                 0.4511

                      7                      8                      9
                      A                      A                      A
 Frequencies --    181.1551               188.0541               230.7224
 Red. masses --      2.4516                 2.4228                 2.9532
 Frc consts  --      0.0474                 0.0505                 0.0926
 IR Inten    --      0.6053                 1.1482                 0.1122

                     10                     11                     12
                      A                      A                      A
 Frequencies --    240.2260               261.3605               289.1224
 Red. masses --      1.3508                 1.2923                 2.4744
 Frc consts  --      0.0459                 0.0520                 0.1219
 IR Inten    --      0.5256                 0.7366                 0.4181

                     13                     14                     15
                      A                      A                      A
 Frequencies --    300.6890               320.7467               325.9373
 Red. masses --      2.3929                 2.1183                 2.6221
 Frc consts  --      0.1275                 0.1284                 0.1641
 IR Inten    --      0.1656                 1.1053                 0.0932

                     16                     17                     18
                      A                      A                      A
 Frequencies --    355.0573               362.5880               412.5391
 Red. masses --      2.5114                 2.4193                 2.5885
 Frc consts  --      0.1865                 0.1874                 0.2596
 IR Inten    --      5.0931                 3.1666                 1.0129

                     19                     20                     21
                      A                      A                      A
 Frequencies --    419.1731               462.5233               468.1254
 Red. masses --      3.0100                 2.9293                 2.0824
 Frc consts  --      0.3116                 0.3692                 0.2689
 IR Inten    --      0.1814                 0.6331                 0.8602

                     22                     23                     24
                      A                      A                      A
 Frequencies --    478.3369               496.6514               531.7198
 Red. masses --      2.7828                 2.7455                 1.8284
 Frc consts  --      0.3751                 0.3990                 0.3046
 IR Inten    --      3.4662                 6.0515                16.5426

                     25                     26                     27
                      A                      A                      A
 Frequencies --    572.9123               629.6571               637.3796
 Red. masses --      2.7732                 3.8474                 6.2442
 Frc consts  --      0.5363                 0.8987                 1.4946
 IR Inten    --      4.3721                 4.5899                 0.3416

                     28                     29                     30
                      A                      A                      A
 Frequencies --    688.7090               713.6617               753.1157
 Red. masses --      2.3403                 2.3146                 1.5257
 Frc consts  --      0.6540                 0.6946                 0.5099
 IR Inten    --     41.2729                14.7024                29.5212

                     31                     32                     33
                      A                      A                      A
 Frequencies --    789.1413               793.6870               802.3787
 Red. masses --      1.7752                 1.4381                 2.3998
 Frc consts  --      0.6513                 0.5338                 0.9103
 IR Inten    --      3.0730                19.0354                 8.2887

                     34                     35                     36
                      A                      A                      A
 Frequencies --    838.0267               866.1852               888.6960
 Red. masses --      3.1835                 1.2496                 2.3199
 Frc consts  --      1.3173                 0.5524                 1.0795
 IR Inten    --      0.9629                 0.2484                 1.3497

                     37                     38                     39
                      A                      A                      A
 Frequencies --    895.7477               915.6960               923.8769
 Red. masses --      1.9985                 1.6550                 1.3879
 Frc consts  --      0.9448                 0.8176                 0.6980
 IR Inten    --      5.2463                 1.5965                 5.0852

                     40                     41                     42
                      A                      A                      A
 Frequencies --    944.2844               972.9692               984.6577
 Red. masses --      1.9462                 1.3370                 1.8484
 Frc consts  --      1.0224                 0.7457                 1.0559
 IR Inten    --      3.2456                 0.4211                 8.3253

                     43                     44                     45
                      A                      A                      A
 Frequencies --    986.0008               996.2121              1013.6021
 Red. masses --      2.0095                 1.2960                 1.9890
 Frc consts  --      1.1511                 0.7578                 1.2040
 IR Inten    --      3.8898                 6.0725                22.0258

                     46                     47                     48
                      A                      A                      A
 Frequencies --   1022.2001              1029.4019              1037.6094
 Red. masses --      5.4035                 2.0955                 1.7276
 Frc consts  --      3.3266                 1.3083                 1.0959
 IR Inten    --      1.9996                 2.3315                10.0110

                     49                     50                     51
                      A                      A                      A
 Frequencies --   1059.7012              1068.5188              1086.9176
 Red. masses --      2.1669                 1.8900                 1.8555
 Frc consts  --      1.4337                 1.2714                 1.2915
 IR Inten    --      8.2604                 9.4587                 5.5589

                     52                     53                     54
                      A                      A                      A
 Frequencies --   1108.8776              1128.9035              1147.2485
 Red. masses --      1.6879                 2.0941                 2.3218
 Frc consts  --      1.2228                 1.5724                 1.8005
 IR Inten    --     13.8022                19.7696                 9.1199

                     55                     56                     57
                      A                      A                      A
 Frequencies --   1155.5003              1189.8452              1192.2005
 Red. masses --      2.2865                 2.7739                 1.1057
 Frc consts  --      1.7987                 2.3138                 0.9259
 IR Inten    --     46.9425                14.7612                 0.8955

                     58                     59                     60
                      A                      A                      A
 Frequencies --   1199.8706              1208.5381              1223.1072
 Red. masses --      2.2955                 1.1556                 1.8657
 Frc consts  --      1.9471                 0.9945                 1.6445
 IR Inten    --     40.0635                 0.6672                 3.8099

                     61                     62                     63
                      A                      A                      A
 Frequencies --   1234.6839              1255.5353              1263.4149
 Red. masses --      2.5695                 1.5217                 1.8304
 Frc consts  --      2.3079                 1.4133                 1.7215
 IR Inten    --      1.4042                 7.0228                 8.0230

                     64                     65                     66
                      A                      A                      A
 Frequencies --   1289.7305              1313.4857              1331.8282
 Red. masses --      1.3625                 1.4247                 1.2403
 Frc consts  --      1.3353                 1.4481                 1.2962
 IR Inten    --      2.0736                10.1156                20.8305

                     67                     68                     69
                      A                      A                      A
 Frequencies --   1345.8642              1356.5684              1365.1828
 Red. masses --      1.3765                 1.7002                 2.2804
 Frc consts  --      1.4690                 1.8434                 2.5040
 IR Inten    --      3.0866                17.8821                 1.7133

                     70                     71                     72
                      A                      A                      A
 Frequencies --   1383.2487              1388.9045              1399.2991
 Red. masses --      1.4258                 1.3101                 1.3328
 Frc consts  --      1.6073                 1.4891                 1.5375
 IR Inten    --      0.1075                 6.9368                27.7699

                     73                     74                     75
                      A                      A                      A
 Frequencies --   1412.2266              1420.5410              1425.1255
 Red. masses --      1.3669                 1.4010                 1.3783
 Frc consts  --      1.6062                 1.6657                 1.6493
 IR Inten    --     26.4633                10.2661                10.0792

                     76                     77                     78
                      A                      A                      A
 Frequencies --   1431.1846              1441.7901              1455.9946
 Red. masses --      1.3251                 1.2456                 1.3866
 Frc consts  --      1.5992                 1.5256                 1.7319
 IR Inten    --     20.4084                 9.6498                 6.0509

                     79                     80                     81
                      A                      A                      A
 Frequencies --   1495.0431              1501.5438              1502.8395
 Red. masses --      1.1119                 1.1433                 2.0147
 Frc consts  --      1.4643                 1.5187                 2.6809
 IR Inten    --      8.4608                 3.4587                11.1423

                     82                     83                     84
                      A                      A                      A
 Frequencies --   1510.7245              1512.0374              1522.4125
 Red. masses --      1.1135                 1.0776                 1.1091
 Frc consts  --      1.4974                 1.4516                 1.5146
 IR Inten    --      1.4363                 1.1648                 3.9027

                     85                     86                     87
                      A                      A                      A
 Frequencies --   1524.5000              1525.3140              1535.6521
 Red. masses --      1.0723                 1.0958                 1.0848
 Frc consts  --      1.4684                 1.5021                 1.5072
 IR Inten    --      3.3790                 2.8463                 5.1795

                     88                     89                     90
                      A                      A                      A
 Frequencies --   1537.2794              1540.1102              1545.5543
 Red. masses --      1.0716                 1.0977                 1.1074
 Frc consts  --      1.4920                 1.5340                 1.5585
 IR Inten    --      2.2943                10.1333                 4.5761

                     91                     92                     93
                      A                      A                      A
 Frequencies --   1547.0250              1647.8317              1668.3546
 Red. masses --      2.1400                 5.6224                 5.6198
 Frc consts  --      3.0175                 8.9949                 9.2162
 IR Inten    --     10.1674                 1.0360                 3.7996

                     94                     95                     96
                      A                      A                      A
 Frequencies --   2908.1193              2922.2469              2947.7548
 Red. masses --      1.0739                 1.0732                 1.0728
 Frc consts  --      5.3511                 5.3994                 5.4921
 IR Inten    --     37.6850                90.8971                 4.6580

                     97                     98                     99
                      A                      A                      A
 Frequencies --   2965.2192              3019.5655              3037.7992
 Red. masses --      1.0726                 1.0612                 1.0649
 Frc consts  --      5.5563                 5.7010                 5.7900
 IR Inten    --    131.5452                34.5795                36.2042

                    100                    101                    102
                      A                      A                      A
 Frequencies --   3048.7729              3053.0073              3053.9173
 Red. masses --      1.0371                 1.0826                 1.0405
 Frc consts  --      5.6795                 5.9452                 5.7175
 IR Inten    --     15.9087                31.3971                17.9504

                    103                    104                    105
                      A                      A                      A
 Frequencies --   3055.6752              3075.7835              3096.2979
 Red. masses --      1.1007                 1.0889                 1.0964
 Frc consts  --      6.0551                 6.0692                 6.1928
 IR Inten    --     22.3410                60.2036                29.3257

                    106                    107                    108
                      A                      A                      A
 Frequencies --   3097.9583              3105.2664              3109.1167
 Red. masses --      1.0897                 1.0896                 1.1016
 Frc consts  --      6.1618                 6.1905                 6.2740
 IR Inten    --     31.0470                25.7482                32.9057

                    109                    110                    111
                      A                      A                      A
 Frequencies --   3116.2188              3124.8247              3145.1347
 Red. masses --      1.0995                 1.1018                 1.1003
 Frc consts  --      6.2906                 6.3387                 6.4125
 IR Inten    --     58.8566                32.6453                22.9928

                    112                    113                    114
                      A                      A                      A
 Frequencies --   3172.4375              3182.1873              3192.6684
 Red. masses --      1.0862                 1.0869                 1.0916
 Frc consts  --      6.4411                 6.4848                 6.5555
 IR Inten    --      7.8866                 0.9343                31.9439

                    115                    116                    117
                      A                      A                      A
 Frequencies --   3205.3873              3214.7066              3507.2178
 Red. masses --      1.0955                 1.0941                 1.0745
 Frc consts  --      6.6317                 6.6617                 7.7873
 IR Inten    --     35.7686                 7.7985                 1.3088

 - Thermochemistry -
 -------------------
 Temperature   298.150 Kelvin.  Pressure   1.00000 Atm.
 Atom     1 has atomic number  6 and mass  12.00000

 Molecular mass:   232.19395 amu.
 Principal axes and moments of inertia in atomic units:
                           1         2         3
     Eigenvalues --  1909.041977508.548057980.91493
           X            0.99995   0.00976  -0.00071
           Y           -0.00976   0.99995   0.00002
           Z            0.00071  -0.00001   1.00000
 This molecule is an asymmetric top.
 Rotational symmetry number  1.
 Warning -- assumption of classical behavior for rotation
           may cause significant error
 Rotational temperatures (Kelvin)      0.04537     0.01154     0.01085
 Rotational constants (GHZ):           0.94536     0.24036     0.22613
 Zero-point vibrational energy     976236.7 (Joules/Mol)
                                  233.32618 (Kcal/Mol)
 Warning -- explicit consideration of  25 degrees of freedom as
           vibrations may cause significant error
 Vibrational temperatures:     38.35    56.60    62.52   133.14   149.74
          (Kelvin)            187.17   260.64   270.57   331.96   345.63
                              376.04   415.98   432.62   461.48   468.95
                              510.85   521.68   593.55   603.10   665.47
                              673.53   688.22   714.57   765.03   824.29
                              905.94   917.05   990.90  1026.80  1083.57
                             1135.40  1141.94  1154.44  1205.73  1246.25
                             1278.64  1288.78  1317.48  1329.25  1358.61
                             1399.89  1416.70  1418.64  1433.33  1458.35
                             1470.72  1481.08  1492.89  1524.67  1537.36
                             1563.83  1595.43  1624.24  1650.63  1662.51
                             1711.92  1715.31  1726.35  1738.82  1759.78
                             1776.43  1806.44  1817.77  1855.63  1889.81
                             1916.20  1936.40  1951.80  1964.19  1990.19
                             1998.32  2013.28  2031.88  2043.84  2050.44
                             2059.16  2074.41  2094.85  2151.03  2160.39
                             2162.25  2173.60  2175.48  2190.41  2193.42
                             2194.59  2209.46  2211.80  2215.88  2223.71
                             2225.82  2370.86  2400.39  4184.13  4204.46
                             4241.16  4266.29  4344.48  4370.72  4386.50
                             4392.60  4393.91  4396.44  4425.37  4454.88
                             4457.27  4467.79  4473.33  4483.54  4495.93
                             4525.15  4564.43  4578.46  4593.54  4611.84
                             4625.25  5046.10

 Zero-point correction=                           0.371829 (Hartree/Particle)
 Thermal correction to Energy=                    0.388335
 Thermal correction to Enthalpy=                  0.389279
 Thermal correction to Gibbs Free Energy=         0.327365
 Sum of electronic and zero-point Energies=           -695.244127
 Sum of electronic and thermal Energies=              -695.227621
 Sum of electronic and thermal Enthalpies=            -695.226676
 Sum of electronic and thermal Free Energies=         -695.288590

                     E (Thermal)             CV                S
                      KCal/Mol        Cal/Mol-Kelvin    Cal/Mol-Kelvin
 Total                  243.684             65.813            130.309
 Electronic               0.000              0.000              0.000
 Translational            0.889              2.981             42.229
 Rotational               0.889              2.981             33.103
 Vibrational            241.907             59.851             54.977
 Vibration     1          0.593              1.984              6.064
 Vibration     2          0.594              1.981              5.292
 Vibration     3          0.595              1.980              5.095
 Vibration     4          0.602              1.955              3.606
 Vibration     5          0.605              1.946              3.376
 Vibration     6          0.612              1.923              2.945
 Vibration     7          0.630              1.865              2.316
 Vibration     8          0.633              1.856              2.247
 Vibration     9          0.652              1.794              1.873
 Vibration    10          0.657              1.779              1.801
 Vibration    11          0.669              1.743              1.653
 Vibration    12          0.686              1.694              1.479
 Vibration    13          0.693              1.672              1.413
 Vibration    14          0.706              1.634              1.306
 Vibration    15          0.710              1.624              1.280
 Vibration    16          0.731              1.565              1.144
 Vibration    17          0.736              1.549              1.111
 Vibration    18          0.776              1.443              0.918
 Vibration    19          0.782              1.429              0.895
 Vibration    20          0.820              1.333              0.759
 Vibration    21          0.825              1.321              0.743
 Vibration    22          0.835              1.298              0.715
 Vibration    23          0.852              1.257              0.667
 Vibration    24          0.887              1.180              0.583
 Vibration    25          0.929              1.090              0.499

                           ! Non-Optimized Parameters !
 Normal termination of Gaussian 16 at Fri Dec 11 12:28:09 2020.

 ----------------------------------------------------------------------
 # B3LYP/6-311++G(d,p) empiricaldispersion=gd3bj scf=xqc pop=npa geom=c
 heck
 ----------------------------------------------------------------------

 --------------------------------------
 CID_64870931_JID_7015_Energie_neutraal
 --------------------------------------
 Structure from the checkpoint file:  "JID_7015.chk"
 Charge =  0 Multiplicity = 1

 SCF Done:  E(RB3LYP) =  -695.803961594     A.U. after   14 cycles
 Normal termination of Gaussian 16 at Fri Dec 11 12:36:00 2020.

 ----------------------------------------------------------------------
 # B3LYP/6-311++G(d,p) empiricaldispersion=gd3bj scf=xqc pop=npa geom=c
 heck
 ----------------------------------------------------------------------

 ------------------------------------
 CID_64870931_JID_7015_Energie_kation
 ------------------------------------
 Structure from the checkpoint file:  "JID_7015.chk"
 Charge =  1 Multiplicity = 2

 SCF Done:  E(UB3LYP) =  -695.532462766     A.U. after   22 cycles
 Normal termination of Gaussian 16 at Fri Dec 11 12:57:07 2020.
 Gaussian 16:  ES64L-G16RevA.03 25-Dec-2016

 ----------------------------------------------------------------------
 # B3LYP/6-311++G(d,p) empiricaldispersion=gd3bj scf=xqc pop=npa geom=c
 heck
 ----------------------------------------------------------------------

 -----------------------------------
 CID_64870931_JID_7015_Energie_anion
 -----------------------------------
 Structure from the checkpoint file:  "JID_7015.chk"
 Charge = -1 Multiplicity = 2

                         Standard orientation:
 ---------------------------------------------------------------------
 Center     Atomic      Atomic             Coordinates (Angstroms)
 Number     Number       Type             X           Y           Z
 ---------------------------------------------------------------------
      1          6           0       -4.151397   -1.980169   -0.414797
      2          6           0       -3.881636   -0.538842    0.033069
      3          6           0       -2.439284   -0.198519    0.491509
      4          6           0       -1.455037   -0.569632   -0.639379
      5          7           0       -0.101827   -0.045234   -0.471920
      6          6           0        0.081527    1.226581   -1.173291
      7          6           0       -0.633827    2.403188   -0.511721
      8          6           0       -2.129543    2.197846   -0.246295
      9          7           0       -2.343790    1.234393    0.831711
     10          6           0        0.939539   -1.008042   -0.822714
     11          6           0        2.301283   -0.612741   -0.287368
     12          6           0        3.458565   -0.860929   -1.030728
     13          6           0        4.717659   -0.544169   -0.518085
     14          6           0        4.830810    0.036463    0.745056
     15          6           0        3.678200    0.297861    1.489728
     16          6           0        2.422809   -0.025221    0.977991
     17          6           0       -2.060652   -0.965107    1.766254
     18          1           0       -3.568006   -2.247679   -1.302303
     19          1           0       -5.209278   -2.110352   -0.669139
     20          1           0       -3.912116   -2.702262    0.373090
     21          1           0       -4.144901    0.143626   -0.786927
     22          1           0       -4.557659   -0.294223    0.865203
     23          1           0       -1.406410   -1.661716   -0.669740
     24          1           0       -1.873294   -0.258750   -1.613444
     25          1           0       -0.253206    1.132357   -2.226927
     26          1           0        1.153009    1.444862   -1.200315
     27          1           0       -0.498742    3.282557   -1.156704
     28          1           0       -0.156067    2.615311    0.451048
     29          1           0       -2.652558    1.941415   -1.185900
     30          1           0       -2.551662    3.153232    0.085237
     31          1           0       -3.172788    1.486296    1.363515
     32          1           0        0.655266   -1.971330   -0.380995
     33          1           0        1.012554   -1.176397   -1.915682
     34          1           0        3.372328   -1.304132   -2.020415
     35          1           0        5.607640   -0.742652   -1.109247
     36          1           0        5.809058    0.289792    1.144356
     37          1           0        3.758316    0.756503    2.471792
     38          1           0        1.519431    0.190365    1.539889
     39          1           0       -2.699784   -0.659446    2.603224
     40          1           0       -2.161550   -2.049021    1.640987
     41          1           0       -1.024349   -0.733871    2.025485
 ---------------------------------------------------------------------

 SCF Done:  E(UB3LYP) =  -695.789448408     A.U. after   33 cycles
 SCF Done:  E(UB3LYP) =  -695.789448408     a.u. after    1 cycles

 The electronic state is 2-A.
 Alpha  occ. eigenvalues --  -14.21248 -14.19494 -10.10927 -10.10859 -10.09782
 Alpha  occ. eigenvalues --  -10.09735 -10.09686 -10.09156 -10.08725 -10.08679
 Alpha  occ. eigenvalues --  -10.08579 -10.08497 -10.08029 -10.07040 -10.06914
 Alpha  occ. eigenvalues --  -10.06635 -10.05675  -0.84384  -0.80642  -0.76767
 Alpha  occ. eigenvalues --   -0.70832  -0.68290  -0.66038  -0.65795  -0.62742
 Alpha  occ. eigenvalues --   -0.60297  -0.58830  -0.55197  -0.52265  -0.51616
 Alpha  occ. eigenvalues --   -0.49734  -0.47449  -0.45184  -0.42604  -0.41171
 Alpha  occ. eigenvalues --   -0.39611  -0.38258  -0.37197  -0.36768  -0.35924
 Alpha  occ. eigenvalues --   -0.34583  -0.34285  -0.33477  -0.33180  -0.32309
 Alpha  occ. eigenvalues --   -0.31523  -0.30990  -0.29743  -0.29203  -0.28382
 Alpha  occ. eigenvalues --   -0.27536  -0.26612  -0.26344  -0.25696  -0.25465
 Alpha  occ. eigenvalues --   -0.25328  -0.24249  -0.23507  -0.23074  -0.22347
 Alpha  occ. eigenvalues --   -0.16798  -0.16085  -0.13358  -0.11925   0.04079
 Alpha virt. eigenvalues --    0.05357   0.06327   0.06734   0.06913   0.07197
 Alpha virt. eigenvalues --    0.07414   0.07683   0.08654   0.08914   0.09118
 Alpha virt. eigenvalues --    0.09503   0.10107   0.10737   0.11263   0.11654

  Beta  occ. eigenvalues --  -14.21240 -14.19480 -10.10927 -10.10848 -10.09768
  Beta  occ. eigenvalues --  -10.09719 -10.09678 -10.09150 -10.08721 -10.08660
  Beta  occ. eigenvalues --  -10.08564 -10.08490 -10.08017 -10.07018 -10.06908
  Beta  occ. eigenvalues --  -10.06607 -10.05660  -0.84370  -0.80623  -0.76743
  Beta  occ. eigenvalues --   -0.70808  -0.68262  -0.66008  -0.65765  -0.62712
  Beta  occ. eigenvalues --   -0.60268  -0.58799  -0.55152  -0.52214  -0.51575
  Beta  occ. eigenvalues --   -0.49702  -0.47413  -0.45142  -0.42565  -0.41138
  Beta  occ. eigenvalues --   -0.39580  -0.38237  -0.37167  -0.36740  -0.35897
  Beta  occ. eigenvalues --   -0.34554  -0.34260  -0.33446  -0.33154  -0.32283
  Beta  occ. eigenvalues --   -0.31495  -0.30965  -0.29713  -0.29172  -0.28340
  Beta  occ. eigenvalues --   -0.27504  -0.26586  -0.26318  -0.25668  -0.25441
  Beta  occ. eigenvalues --   -0.25302  -0.24227  -0.23484  -0.23046  -0.22318
  Beta  occ. eigenvalues --   -0.16762  -0.16039  -0.13315  -0.11885
  Beta virt. eigenvalues --    0.05920   0.06324   0.06851   0.07069   0.07168
  Beta virt. eigenvalues --    0.07293   0.07956   0.08039   0.08939   0.09310
  Beta virt. eigenvalues --    0.09382   0.09843   0.10336   0.10918   0.11584

 Mulliken charges and spin densities:
               1          2
     1  C    0.685777  -1.304941
     2  C   -1.257683   1.200067
     3  C    0.356653  -0.340592
     4  C   -0.585240  -0.421918
     5  N    0.507080   0.014238
     6  C    0.205574  -0.554767
     7  C   -0.562753   0.162516
     8  C    0.223871  -0.454968
     9  N   -0.173101   0.205563
    10  C    1.366535  -2.036559
    11  C    0.147829   1.013191
    12  C   -0.980272   0.854493
    13  C    0.429551  -0.830884
    14  C    0.596217  -0.962473
    15  C   -0.000606  -0.396795
    16  C   -0.947379   0.690219
    17  C    0.616987  -1.130065
    18  H   -0.271166   0.405777
    19  H   -0.452691   0.607885
    20  H    0.012147   0.127881
    21  H   -0.047047   0.207709
    22  H   -0.371629   0.500366
    23  H    0.220632  -0.028697
    24  H    0.100696   0.054120
    25  H   -0.107232   0.216129
    26  H    0.269524  -0.113737
    27  H   -0.078175   0.213032
    28  H    0.212832  -0.063484
    29  H    0.170887  -0.060272
    30  H   -0.432080   0.590471
    31  H    0.060194   0.204471
    32  H   -0.014103   0.173708
    33  H   -0.039018   0.174678
    34  H   -0.235897   0.398168
    35  H   -0.508248   0.682993
    36  H   -0.243970   0.396226
    37  H   -0.119873   0.299606
    38  H    0.228901  -0.083270
    39  H   -0.056519   0.208416
    40  H   -0.014679   0.126861
    41  H    0.087476   0.054640
 Sum of Mulliken charges =  -1.00000   1.00000

 Dipole moment (field-independent basis, Debye):
    X=              1.4359    Y=              0.9407    Z=              0.1830  Tot=              1.7263
 Quadrupole moment (field-independent basis, Debye-Ang):
   XX=           -225.4496   YY=           -149.3152   ZZ=           -144.3504
   XY=              0.2461   XZ=              3.4592   YZ=             -3.3697

 Summary of Natural Population Analysis:

                                       Natural Population
                Natural  -----------------------------------------------
    Atom  No    Charge         Core      Valence    Rydberg      Total
 -----------------------------------------------------------------------
      C    1   -0.28805      0.99966     2.28314    0.00525     3.28805
      C    2   -0.19567      0.99959     2.18567    0.01041     3.19567
      C    3    0.05936      0.99955     1.92654    0.01455     2.94064
      C    4   -0.08870      0.99955     2.07757    0.01159     3.08870
      N    5   -0.28594      0.99970     2.77377    0.01246     3.78594
      C    6   -0.08049      0.99960     2.07157    0.00932     3.08049
      C    7   -0.19446      0.99961     2.18611    0.00874     3.19446
      C    8   -0.09097      0.99961     2.07965    0.01171     3.09097
      N    9   -0.34696      0.99971     2.83410    0.01316     3.84696
      C   10   -0.08401      0.99957     2.07428    0.01016     3.08401
      C   11   -0.02047      0.99950     2.01067    0.01030     3.02047
      C   12   -0.10170      0.99951     2.09248    0.00971     3.10170
      C   13   -0.09814      0.99956     2.08841    0.01016     3.09814
      C   14   -0.10647      0.99956     2.09668    0.01023     3.10647
      C   15   -0.09921      0.99956     2.09059    0.00906     3.09921
      C   16   -0.09897      0.99950     2.09000    0.00947     3.09897
      C   17   -0.28618      0.99961     2.27891    0.00765     3.28618
      H   18    0.09662      0.00000     0.40233    0.00105     0.40338
      H   19    0.10118      0.00000     0.39779    0.00103     0.39882
      H   20    0.09650      0.00000     0.40239    0.00110     0.40350
      H   21    0.09764      0.00000     0.40091    0.00145     0.40236
      H   22    0.09635      0.00000     0.40215    0.00151     0.40365
      H   23    0.10207      0.00000     0.39648    0.00145     0.39793
      H   24    0.08932      0.00000     0.40900    0.00168     0.41068
      H   25    0.07797      0.00000     0.42061    0.00142     0.42203
      H   26    0.10152      0.00000     0.39716    0.00132     0.39848
      H   27    0.09505      0.00000     0.40408    0.00087     0.40495
      H   28    0.10030      0.00000     0.39802    0.00168     0.39970
      H   29    0.07987      0.00000     0.41834    0.00179     0.42013
      H   30    0.09682      0.00000     0.40210    0.00108     0.40318
      H   31    0.17676      0.00000     0.32045    0.00279     0.32324
      H   32    0.10267      0.00000     0.39625    0.00108     0.39733
      H   33    0.08412      0.00000     0.41417    0.00172     0.41588
      H   34    0.10010      0.00000     0.39833    0.00157     0.39990
      H   35    0.10143      0.00000     0.39728    0.00129     0.39857
      H   36    0.10056      0.00000     0.39841    0.00103     0.39944
      H   37    0.09956      0.00000     0.39962    0.00081     0.40044
      H   38    0.10967      0.00000     0.38825    0.00208     0.39033
      H   39    0.09874      0.00000     0.40028    0.00097     0.40126
      H   40    0.09516      0.00000     0.40396    0.00087     0.40484
      H   41    0.10707      0.00000     0.39125    0.00168     0.39293
 =======================================================================
   * Total *   -0.00000     16.99297    46.79976    0.20727    64.00000

 Normal termination of Gaussian 16 at Fri Dec 11 13:21:06 2020.
