 Gaussian 16, Revision A.03,

 -----------------------------------------------------------
 # opt freq B3LYP/6-31G(d) empiricaldispersion=gd3bj scf=xqc
 -----------------------------------------------------------

 ------------------------------
 CID_81212269_JID_6849_neutraal
 ------------------------------
 Symbolic Z-matrix:
 Charge =  0 Multiplicity = 1

 SCF Done:  E(RB3LYP) =  -760.175163092     A.U. after   15 cycles
 SCF Done:  E(RB3LYP) =  -760.181631739     A.U. after   12 cycles
 SCF Done:  E(RB3LYP) =  -760.182480582     A.U. after   12 cycles
 SCF Done:  E(RB3LYP) =  -760.183103402     A.U. after   12 cycles
 SCF Done:  E(RB3LYP) =  -760.183300273     A.U. after   12 cycles
 SCF Done:  E(RB3LYP) =  -760.183388985     A.U. after   12 cycles
 SCF Done:  E(RB3LYP) =  -760.183446129     A.U. after   10 cycles
 SCF Done:  E(RB3LYP) =  -760.183468786     A.U. after   10 cycles
 SCF Done:  E(RB3LYP) =  -760.183474742     A.U. after    9 cycles
 SCF Done:  E(RB3LYP) =  -760.183476058     A.U. after    8 cycles
 SCF Done:  E(RB3LYP) =  -760.183476803     A.U. after    8 cycles
 SCF Done:  E(RB3LYP) =  -760.183477122     A.U. after    8 cycles
 SCF Done:  E(RB3LYP) =  -760.183477256     A.U. after    8 cycles
 SCF Done:  E(RB3LYP) =  -760.183477344     A.U. after    7 cycles
 SCF Done:  E(RB3LYP) =  -760.183477368     A.U. after    7 cycles
 Optimization completed.
    -- Stationary point found.
 Normal termination of Gaussian 16 at Fri Dec 11 00:54:16 2020.

 --------------------------------------------------------------------
 #N Geom=AllCheck Guess=TCheck SCRF=Check GenChk RB3LYP/6-31G(d) Freq
 --------------------------------------------------------------------

 Structure from the checkpoint file:  "JID_6849.chk"
 ------------------------------
 CID_81212269_JID_6849_neutraal
 ------------------------------
 Charge =  0 Multiplicity = 1

 SCF Done:  E(RB3LYP) =  -760.183477368     A.U. after    1 cycles

  Exact polarizability: 174.827  -3.432 128.211   3.930 -11.765  94.998
 Approx polarizability: 227.565   0.942 207.440   5.200 -30.162 149.064

                      1                      2                      3
                      A                      A                      A
 Frequencies --     30.8334                43.4126                64.8028
 Red. masses --      4.7569                 4.1895                 4.4860
 Frc consts  --      0.0027                 0.0047                 0.0111
 IR Inten    --      0.0887                 1.0557                 1.3164

                      4                      5                      6
                      A                      A                      A
 Frequencies --     91.9311               100.3866               134.7027
 Red. masses --      4.0692                 3.9192                 3.3149
 Frc consts  --      0.0203                 0.0233                 0.0354
 IR Inten    --      0.4484                 0.7214                 1.4191

                      7                      8                      9
                      A                      A                      A
 Frequencies --    173.7823               201.1622               222.3153
 Red. masses --      3.4136                 2.6057                 2.2109
 Frc consts  --      0.0607                 0.0621                 0.0644
 IR Inten    --      5.7411                 7.3012                28.8041

                     10                     11                     12
                      A                      A                      A
 Frequencies --    227.8628               246.5820               261.6180
 Red. masses --      1.2589                 2.0398                 2.4454
 Frc consts  --      0.0385                 0.0731                 0.0986
 IR Inten    --      8.0136                23.7072                 1.0415

                     13                     14                     15
                      A                      A                      A
 Frequencies --    272.9918               314.2524               370.9191
 Red. masses --      2.6685                 4.8901                 2.8423
 Frc consts  --      0.1172                 0.2845                 0.2304
 IR Inten    --     23.0065                 6.0869                 3.3550

                     16                     17                     18
                      A                      A                      A
 Frequencies --    416.9705               438.4354               455.1284
 Red. masses --      3.7331                 3.8994                 3.8164
 Frc consts  --      0.3824                 0.4416                 0.4658
 IR Inten    --      0.6859                 5.2678                 7.1086

                     19                     20                     21
                      A                      A                      A
 Frequencies --    485.7557               520.3168               567.5944
 Red. masses --      2.3702                 4.0390                 4.2203
 Frc consts  --      0.3295                 0.6443                 0.8011
 IR Inten    --      1.1286                20.5779                 6.8081

                     22                     23                     24
                      A                      A                      A
 Frequencies --    600.0709               626.7006               655.7201
 Red. masses --      2.2706                 3.9155                 5.6850
 Frc consts  --      0.4817                 0.9061                 1.4402
 IR Inten    --     30.6939                 7.9390                 8.8313

                     25                     26                     27
                      A                      A                      A
 Frequencies --    706.8330               753.5771               772.9500
 Red. masses --      1.9788                 2.8244                 3.9545
 Frc consts  --      0.5825                 0.9450                 1.3920
 IR Inten    --     20.5153                 3.6545                42.0605

                     28                     29                     30
                      A                      A                      A
 Frequencies --    809.3975               837.2551               864.6659
 Red. masses --      1.2870                 2.5362                 1.4243
 Frc consts  --      0.4968                 1.0475                 0.6274
 IR Inten    --     41.6126                 5.7489               119.5898

                     31                     32                     33
                      A                      A                      A
 Frequencies --    880.2761               883.4069               919.5798
 Red. masses --      2.2915                 1.3212                 1.8856
 Frc consts  --      1.0462                 0.6075                 0.9395
 IR Inten    --     14.5611                 2.0652                 8.4257

                     34                     35                     36
                      A                      A                      A
 Frequencies --    928.0769               949.4980               962.9382
 Red. masses --      2.2931                 4.6719                 1.9573
 Frc consts  --      1.1637                 2.4816                 1.0693
 IR Inten    --      4.7658                30.5842                 5.0466

                     37                     38                     39
                      A                      A                      A
 Frequencies --    997.5578              1035.6219              1062.5607
 Red. masses --      2.1161                 3.1588                 1.7515
 Frc consts  --      1.2407                 1.9961                 1.1651
 IR Inten    --     21.4222                50.7895                 7.2000

                     40                     41                     42
                      A                      A                      A
 Frequencies --   1080.9421              1086.0225              1093.7675
 Red. masses --      2.0782                 1.9590                 1.8518
 Frc consts  --      1.4307                 1.3613                 1.3052
 IR Inten    --     34.0702                10.0120                14.9765

                     43                     44                     45
                      A                      A                      A
 Frequencies --   1105.0395              1146.1263              1152.0545
 Red. masses --      2.0593                 2.2208                 2.1985
 Frc consts  --      1.4816                 1.7188                 1.7192
 IR Inten    --     22.9402                14.0025                74.3430

                     46                     47                     48
                      A                      A                      A
 Frequencies --   1171.9771              1174.2022              1212.6238
 Red. masses --      3.5878                 2.2147                 1.4808
 Frc consts  --      2.9035                 1.7991                 1.2829
 IR Inten    --     90.3402                 3.9005                23.4909

                     49                     50                     51
                      A                      A                      A
 Frequencies --   1219.8192              1248.8734              1281.7326
 Red. masses --      2.6524                 3.9548                 1.5240
 Frc consts  --      2.3253                 3.6342                 1.4751
 IR Inten    --     51.7174                16.4173                 1.2672

                     52                     53                     54
                      A                      A                      A
 Frequencies --   1297.8105              1304.5011              1335.4237
 Red. masses --      1.4986                 1.2862                 1.3829
 Frc consts  --      1.4872                 1.2896                 1.4531
 IR Inten    --     74.0867                39.3959                 3.4565

                     55                     56                     57
                      A                      A                      A
 Frequencies --   1345.0106              1356.4821              1364.1406
 Red. masses --      1.6380                 1.6836                 2.1219
 Frc consts  --      1.7459                 1.8252                 2.3264
 IR Inten    --     27.9581                 2.8864                 4.3199

                     58                     59                     60
                      A                      A                      A
 Frequencies --   1376.6302              1386.5768              1418.4593
 Red. masses --      1.3425                 1.4689                 1.3842
 Frc consts  --      1.4990                 1.6640                 1.6409
 IR Inten    --     93.1994                51.9550                 7.6935

                     61                     62                     63
                      A                      A                      A
 Frequencies --   1430.2286              1438.0486              1444.8848
 Red. masses --      1.4384                 1.5815                 1.8940
 Frc consts  --      1.7336                 1.9270                 2.3297
 IR Inten    --      3.2889                45.9137                21.9303

                     64                     65                     66
                      A                      A                      A
 Frequencies --   1451.8772              1467.9019              1486.2880
 Red. masses --      1.6890                 2.8146                 4.2582
 Frc consts  --      2.0976                 3.5732                 5.5422
 IR Inten    --     22.1563               155.6464                76.0658

                     67                     68                     69
                      A                      A                      A
 Frequencies --   1514.0716              1523.7316              1524.8144
 Red. masses --      1.0786                 1.0692                 1.0682
 Frc consts  --      1.4568                 1.4626                 1.4633
 IR Inten    --      2.1173                 5.0196                 5.3044

                     70                     71                     72
                      A                      A                      A
 Frequencies --   1535.1337              1540.9442              1592.3579
 Red. masses --      1.0832                 1.0731                 3.8544
 Frc consts  --      1.5041                 1.5013                 5.7582
 IR Inten    --      1.4136                 2.2972                28.0317

                     73                     74                     75
                      A                      A                      A
 Frequencies --   1706.3868              1713.4699              2974.7948
 Red. masses --      1.0876                11.6423                 1.0726
 Frc consts  --      1.8658                20.1393                 5.5923
 IR Inten    --     35.2863               256.8130                46.8736

                     76                     77                     78
                      A                      A                      A
 Frequencies --   3001.5462              3009.5862              3026.0095
 Red. masses --      1.0712                 1.0788                 1.0760
 Frc consts  --      5.6859                 5.7573                 5.8052
 IR Inten    --     39.1983                24.4059                76.3482

                     79                     80                     81
                      A                      A                      A
 Frequencies --   3062.0722              3104.1837              3114.3544
 Red. masses --      1.0367                 1.0907                 1.0951
 Frc consts  --      5.7272                 6.1925                 6.2582
 IR Inten    --     16.2042                27.0864                26.9876

                     82                     83                     84
                      A                      A                      A
 Frequencies --   3128.2939              3147.1563              3163.8888
 Red. masses --      1.1017                 1.1008                 1.0903
 Frc consts  --      6.3524                 6.4238                 6.4306
 IR Inten    --     27.4920                12.8773                 4.5620

                     85                     86                     87
                      A                      A                      A
 Frequencies --   3180.7722              3263.6948              3291.4811
 Red. masses --      1.0847                 1.0940                 1.0998
 Frc consts  --      6.4656                 6.8655                 7.0199
 IR Inten    --     15.2423                 9.4893                 2.0757

                     88                     89                     90
                      A                      A                      A
 Frequencies --   3484.4633              3567.2864              3647.6649
 Red. masses --      1.0504                 1.0924                 1.0812
 Frc consts  --      7.5144                 8.1903                 8.4757
 IR Inten    --      0.3972                 0.0633                95.7411

 - Thermochemistry -
 -------------------
 Temperature   298.150 Kelvin.  Pressure   1.00000 Atm.
 Atom     1 has atomic number  6 and mass  12.00000

 Molecular mass:   224.12733 amu.
 Principal axes and moments of inertia in atomic units:
                           1         2         3
     Eigenvalues --  1624.721816165.114397099.86360
           X            0.99987  -0.01564   0.00232
           Y            0.01563   0.99987   0.00469
           Z           -0.00239  -0.00465   0.99999
 This molecule is an asymmetric top.
 Rotational symmetry number  1.
 Warning -- assumption of classical behavior for rotation
           may cause significant error
 Rotational temperatures (Kelvin)      0.05331     0.01405     0.01220
 Rotational constants (GHZ):           1.11080     0.29273     0.25419
 Zero-point vibrational energy     715271.4 (Joules/Mol)
                                  170.95398 (Kcal/Mol)
 Warning -- explicit consideration of  22 degrees of freedom as
           vibrations may cause significant error
 Vibrational temperatures:     44.36    62.46    93.24   132.27   144.43
          (Kelvin)            193.81   250.03   289.43   319.86   327.84
                              354.78   376.41   392.77   452.14   533.67
                              599.93   630.81   654.83   698.89   748.62
                              816.64   863.37   901.68   943.44  1016.98
                             1084.23  1112.10  1164.54  1204.62  1244.06
                             1266.52  1271.03  1323.07  1335.30  1366.12
                             1385.45  1435.26  1490.03  1528.79  1555.23
                             1562.54  1573.69  1589.91  1649.02  1657.55
                             1686.21  1689.42  1744.70  1755.05  1796.85
                             1844.13  1867.26  1876.89  1921.38  1935.17
                             1951.68  1962.69  1980.66  1994.97  2040.85
                             2057.78  2069.03  2078.87  2088.93  2111.98
                             2138.44  2178.41  2192.31  2193.87  2208.71
                             2217.08  2291.05  2455.11  2465.30  4280.07
                             4318.56  4330.12  4353.75  4405.64  4466.23
                             4480.86  4500.92  4528.06  4552.13  4576.42
                             4695.73  4735.71  5013.37  5132.53  5248.18

 Zero-point correction=                           0.272433 (Hartree/Particle)
 Thermal correction to Energy=                    0.287481
 Thermal correction to Enthalpy=                  0.288425
 Thermal correction to Gibbs Free Energy=         0.229289
 Sum of electronic and zero-point Energies=           -759.911045
 Sum of electronic and thermal Energies=              -759.895997
 Sum of electronic and thermal Enthalpies=            -759.895052
 Sum of electronic and thermal Free Energies=         -759.954188

                     E (Thermal)             CV                S
                      KCal/Mol        Cal/Mol-Kelvin    Cal/Mol-Kelvin
 Total                  180.397             56.943            124.462
 Electronic               0.000              0.000              0.000
 Translational            0.889              2.981             42.124
 Rotational               0.889              2.981             32.631
 Vibrational            178.619             50.981             49.708
 Vibration     1          0.594              1.984              5.775
 Vibration     2          0.595              1.980              5.097
 Vibration     3          0.597              1.971              4.305
 Vibration     4          0.602              1.955              3.619
 Vibration     5          0.604              1.949              3.447
 Vibration     6          0.613              1.919              2.878
 Vibration     7          0.627              1.875              2.394
 Vibration     8          0.638              1.838              2.122
 Vibration     9          0.648              1.807              1.940
 Vibration    10          0.651              1.799              1.896
 Vibration    11          0.661              1.768              1.755
 Vibration    12          0.669              1.743              1.651
 Vibration    13          0.676              1.723              1.577
 Vibration    14          0.702              1.646              1.340
 Vibration    15          0.743              1.532              1.076
 Vibration    16          0.780              1.433              0.902
 Vibration    17          0.799              1.386              0.832
 Vibration    18          0.813              1.350              0.780
 Vibration    19          0.842              1.282              0.695
 Vibration    20          0.875              1.205              0.609
 Vibration    21          0.924              1.101              0.509
 Vibration    22          0.958              1.032              0.450

 Optimization completed.
    -- Stationary point found.
 Normal termination of Gaussian 16 at Fri Dec 11 01:04:55 2020.

 ----------------------------------------------------------------------
 # B3LYP/6-311++G(d,p) empiricaldispersion=gd3bj scf=xqc pop=npa geom=c
 heck
 ----------------------------------------------------------------------

 --------------------------------------
 CID_81212269_JID_6849_Energie_neutraal
 --------------------------------------
 Structure from the checkpoint file:  "JID_6849.chk"
 Charge =  0 Multiplicity = 1

 SCF Done:  E(RB3LYP) =  -760.406536809     A.U. after   15 cycles
 Normal termination of Gaussian 16 at Fri Dec 11 01:09:09 2020.

 ----------------------------------------------------------------------
 # B3LYP/6-311++G(d,p) empiricaldispersion=gd3bj scf=xqc pop=npa geom=c
 heck
 ----------------------------------------------------------------------

 ------------------------------------
 CID_81212269_JID_6849_Energie_kation
 ------------------------------------
 Structure from the checkpoint file:  "JID_6849.chk"
 Charge =  1 Multiplicity = 2

 SCF Done:  E(UB3LYP) =  -760.093807583     A.U. after   28 cycles
 Normal termination of Gaussian 16 at Fri Dec 11 01:19:52 2020.
 Gaussian 16:  ES64L-G16RevA.03 25-Dec-2016

 ----------------------------------------------------------------------
 # B3LYP/6-311++G(d,p) empiricaldispersion=gd3bj scf=xqc pop=npa geom=c
 heck
 ----------------------------------------------------------------------

 -----------------------------------
 CID_81212269_JID_6849_Energie_anion
 -----------------------------------
 Structure from the checkpoint file:  "JID_6849.chk"
 Charge = -1 Multiplicity = 2

                         Standard orientation:
 ---------------------------------------------------------------------
 Center     Atomic      Atomic             Coordinates (Angstroms)
 Number     Number       Type             X           Y           Z
 ---------------------------------------------------------------------
      1          6           0        0.237834    1.803271    1.711854
      2          6           0        0.146667    1.404094    0.233650
      3          6           0        1.287681    1.995989   -0.599499
      4          8           0        2.538700    1.436140   -0.240599
      5          6           0        2.565581    0.031079   -0.495512
      6          6           0        1.480090   -0.683559    0.306860
      7          7           0        0.177013   -0.059964    0.063098
      8          6           0       -0.922288   -0.871945    0.166570
      9          8           0       -0.832848   -2.063773    0.476133
     10          6           0       -2.274548   -0.332838   -0.132134
     11          6           0       -2.856141    0.697620   -0.867881
     12          6           0       -4.244330    0.481019   -0.758677
     13          7           0       -4.522176   -0.597419   -0.016885
     14          7           0       -3.321306   -1.064463    0.342007
     15          6           0        3.965438   -0.455573   -0.135398
     16          7           0        4.109265   -1.878081   -0.455539
     17          1           0       -0.554421    1.316414    2.289118
     18          1           0        0.120847    2.887678    1.815105
     19          1           0        1.206463    1.528561    2.137226
     20          1           0       -0.792924    1.775779   -0.168892
     21          1           0        1.087635    1.822141   -1.669042
     22          1           0        1.364671    3.072988   -0.424783
     23          1           0        2.386302   -0.149843   -1.566843
     24          1           0        1.727392   -0.654415    1.378450
     25          1           0        1.406775   -1.728948    0.008309
     26          1           0       -2.360470    1.466847   -1.439318
     27          1           0       -5.051308    1.059219   -1.188086
     28          1           0       -3.223395   -1.929967    0.855339
     29          1           0        4.677667    0.113429   -0.740932
     30          1           0        4.161866   -0.196546    0.919607
     31          1           0        5.094691   -2.129358   -0.471131
     32          1           0        3.685933   -2.448375    0.273834
 ---------------------------------------------------------------------

 SCF Done:  E(UB3LYP) =  -760.401415605     A.U. after   33 cycles
 SCF Done:  E(UB3LYP) =  -760.401415605     a.u. after    1 cycles

 The electronic state is 2-A.
 Alpha  occ. eigenvalues --  -19.03252 -18.96604 -14.26324 -14.22803 -14.21773
 Alpha  occ. eigenvalues --  -14.19896 -10.14938 -10.12473 -10.12189 -10.11364
 Alpha  occ. eigenvalues --  -10.09616 -10.09517 -10.09338 -10.08223 -10.06659
 Alpha  occ. eigenvalues --  -10.05882  -0.95203  -0.94083  -0.91689  -0.82608
 Alpha  occ. eigenvalues --   -0.79022  -0.70850  -0.69710  -0.67574  -0.64358
 Alpha  occ. eigenvalues --   -0.59968  -0.57653  -0.52896  -0.51377  -0.49561
 Alpha  occ. eigenvalues --   -0.48674  -0.45782  -0.42535  -0.40512  -0.39619
 Alpha  occ. eigenvalues --   -0.38171  -0.36877  -0.36046  -0.34674  -0.34144
 Alpha  occ. eigenvalues --   -0.33741  -0.33011  -0.32695  -0.32051  -0.31415
 Alpha  occ. eigenvalues --   -0.29952  -0.29045  -0.28409  -0.26805  -0.26729
 Alpha  occ. eigenvalues --   -0.25391  -0.25084  -0.21856  -0.18769  -0.17680
 Alpha  occ. eigenvalues --   -0.15853  -0.15422  -0.15147  -0.14103  -0.13423
 Alpha  occ. eigenvalues --    0.04287
 Alpha virt. eigenvalues --    0.05763   0.06526   0.08066   0.08393   0.09254
 Alpha virt. eigenvalues --    0.09722   0.09834   0.10637   0.11071   0.12007
 Alpha virt. eigenvalues --    0.12384   0.12887   0.13300   0.13640   0.14010

  Beta  occ. eigenvalues --  -19.03247 -18.96414 -14.26132 -14.22751 -14.21613
  Beta  occ. eigenvalues --  -14.19851 -10.14737 -10.12466 -10.12185 -10.11357
  Beta  occ. eigenvalues --  -10.09601 -10.09515 -10.09257 -10.08274 -10.06643
  Beta  occ. eigenvalues --  -10.05806  -0.95176  -0.93788  -0.91356  -0.82438
  Beta  occ. eigenvalues --   -0.78949  -0.70574  -0.69664  -0.67342  -0.64277
  Beta  occ. eigenvalues --   -0.59869  -0.57602  -0.52733  -0.51104  -0.49517
  Beta  occ. eigenvalues --   -0.48539  -0.45679  -0.42413  -0.40439  -0.39590
  Beta  occ. eigenvalues --   -0.38101  -0.36705  -0.35956  -0.34537  -0.33980
  Beta  occ. eigenvalues --   -0.33236  -0.32935  -0.32566  -0.31853  -0.31326
  Beta  occ. eigenvalues --   -0.29835  -0.28949  -0.28363  -0.26710  -0.25997
  Beta  occ. eigenvalues --   -0.25315  -0.24974  -0.21829  -0.18556  -0.17567
  Beta  occ. eigenvalues --   -0.15438  -0.15179  -0.14788  -0.13359  -0.12971
  Beta virt. eigenvalues --    0.06633   0.07152   0.08139   0.08444   0.08486
  Beta virt. eigenvalues --    0.09554   0.09801   0.10248   0.10652   0.11277
  Beta virt. eigenvalues --    0.12215   0.12544   0.12949   0.13564   0.13696

 Mulliken charges and spin densities:
               1          2
     1  C    0.195127  -0.789960
     2  C   -0.536020   0.520806
     3  C    0.046118  -0.337477
     4  O   -0.060142   0.016574
     5  C   -0.867746   0.633147
     6  C   -0.052056  -0.233597
     7  N    0.236268   0.010248
     8  C   -0.126417   0.127305
     9  O   -0.385965   0.063855
    10  C   -0.323273   0.078733
    11  C    0.333543  -0.043496
    12  C   -0.274775  -0.099609
    13  N   -0.275209   0.082701
    14  N   -0.016851   0.091380
    15  C    1.050157  -1.542344
    16  N   -0.375382   0.014216
    17  H    0.092950   0.074320
    18  H   -0.096384   0.239496
    19  H    0.180899  -0.008682
    20  H   -0.288136   0.391249
    21  H    0.152507  -0.034879
    22  H   -0.145773   0.333294
    23  H    0.155025   0.016256
    24  H    0.119426   0.080107
    25  H    0.241086  -0.042816
    26  H    0.050317   0.078364
    27  H    0.092508   0.044928
    28  H    0.304307   0.005317
    29  H   -0.183539   0.357936
    30  H   -0.092263   0.248063
    31  H   -0.228253   0.485375
    32  H    0.077947   0.139191
 Sum of Mulliken charges =  -1.00000   1.00000

 Dipole moment (field-independent basis, Debye):
    X=             -2.0699    Y=              2.4564    Z=              0.0538  Tot=              3.2127
 Quadrupole moment (field-independent basis, Debye-Ang):
   XX=           -188.8886   YY=           -135.1667   ZZ=           -112.5747
   XY=              6.6325   XZ=              4.0141   YZ=             -5.5721

 Summary of Natural Population Analysis:

                                       Natural Population
                Natural  -----------------------------------------------
    Atom  No    Charge         Core      Valence    Rydberg      Total
 -----------------------------------------------------------------------
      C    1   -0.29328      0.99964     2.28791    0.00574     3.29328
      C    2   -0.02250      0.99958     2.01129    0.01162     3.02250
      C    3   -0.00976      0.99955     1.99676    0.01345     3.00976
      O    4   -0.30384      0.99988     3.29509    0.00886     4.30384
      C    5    0.06040      0.99953     1.92558    0.01449     2.93960
      C    6   -0.10401      0.99958     2.09288    0.01154     3.10401
      N    7   -0.24993      0.99964     2.74064    0.00965     3.74993
      C    8    0.35476      0.99960     1.62500    0.02064     2.64524
      O    9   -0.31784      0.99989     3.31308    0.00487     4.31784
      C   10    0.03843      0.99953     1.94616    0.01587     2.96157
      C   11   -0.14973      0.99954     2.14082    0.00938     3.14973
      C   12   -0.03834      0.99965     2.02324    0.01546     3.03834
      N   13   -0.13254      0.99975     2.62018    0.01262     3.63254
      N   14   -0.12967      0.99966     2.61917    0.01084     3.62967
      C   15   -0.09491      0.99960     2.08154    0.01376     3.09491
      N   16   -0.42356      0.99977     2.91305    0.01074     3.92356
      H   17    0.10301      0.00000     0.39614    0.00085     0.39699
      H   18    0.10042      0.00000     0.39851    0.00107     0.39958
      H   19    0.10158      0.00000     0.39732    0.00110     0.39842
      H   20    0.11002      0.00000     0.38770    0.00228     0.38998
      H   21    0.08122      0.00000     0.41749    0.00129     0.41878
      H   22    0.09244      0.00000     0.40657    0.00099     0.40756
      H   23    0.08318      0.00000     0.41519    0.00163     0.41682
      H   24    0.09005      0.00000     0.40885    0.00110     0.40995
      H   25    0.12068      0.00000     0.37814    0.00118     0.37932
      H   26    0.10526      0.00000     0.39388    0.00086     0.39474
      H   27    0.09280      0.00000     0.40609    0.00111     0.40720
      H   28    0.20351      0.00000     0.29459    0.00190     0.29649
      H   29    0.09658      0.00000     0.40187    0.00155     0.40342
      H   30    0.08169      0.00000     0.41655    0.00176     0.41831
      H   31    0.18016      0.00000     0.31580    0.00404     0.31984
      H   32    0.17372      0.00000     0.32463    0.00165     0.32628
 =======================================================================
   * Total *    0.00000     15.99438    43.79172    0.21390    60.00000

 Normal termination of Gaussian 16 at Fri Dec 11 01:32:36 2020.
