 Gaussian 16, Revision A.03,

 -----------------------------------------------------------
 # opt freq B3LYP/6-31G(d) empiricaldispersion=gd3bj scf=xqc
 -----------------------------------------------------------

 --------------------------------
 CID_104592666_JID_10515_neutraal
 --------------------------------
 Symbolic Z-matrix:
 Charge =  0 Multiplicity = 1

 SCF Done:  E(RB3LYP) =  -913.818315981     A.U. after   15 cycles
 SCF Done:  E(RB3LYP) =  -913.769076376     A.U. after   14 cycles
 SCF Done:  E(RB3LYP) =  -913.827437434     A.U. after   13 cycles
 SCF Done:  E(RB3LYP) =  -913.825418607     A.U. after   13 cycles
 SCF Done:  E(RB3LYP) =  -913.829349336     A.U. after   13 cycles
 SCF Done:  E(RB3LYP) =  -913.830241613     A.U. after   12 cycles
 SCF Done:  E(RB3LYP) =  -913.830883849     A.U. after   12 cycles
 SCF Done:  E(RB3LYP) =  -913.831249458     A.U. after   12 cycles
 SCF Done:  E(RB3LYP) =  -913.831382438     A.U. after   12 cycles
 SCF Done:  E(RB3LYP) =  -913.831446715     A.U. after   11 cycles
 SCF Done:  E(RB3LYP) =  -913.831601514     A.U. after    8 cycles
 SCF Done:  E(RB3LYP) =  -913.831601692     A.U. after    8 cycles
 SCF Done:  E(RB3LYP) =  -913.831601846     A.U. after    7 cycles
 SCF Done:  E(RB3LYP) =  -913.831601900     A.U. after    7 cycles
 SCF Done:  E(RB3LYP) =  -913.831601914     A.U. after    7 cycles
 Optimization completed.
    -- Stationary point found.
 Normal termination of Gaussian 16 at Sat Dec 12 16:10:46 2020.

 --------------------------------------------------------------------
 #N Geom=AllCheck Guess=TCheck SCRF=Check GenChk RB3LYP/6-31G(d) Freq
 --------------------------------------------------------------------

 Structure from the checkpoint file:  "JID_10515.chk"
 --------------------------------
 CID_104592666_JID_10515_neutraal
 --------------------------------
 Charge =  0 Multiplicity = 1

 SCF Done:  E(RB3LYP) =  -913.831601914     A.U. after    1 cycles

  Exact polarizability: 238.733  -2.333 167.016  22.176  -4.746 124.166
 Approx polarizability: 330.624  -6.712 290.185  44.414  -8.059 194.294

                      1                      2                      3
                      A                      A                      A
 Frequencies --      3.4258                25.0437                27.9323
 Red. masses --      1.1614                 2.9676                 1.1398
 Frc consts  --      0.0000                 0.0011                 0.0005
 IR Inten    --      0.2656                 0.3071                 0.2058

                      4                      5                      6
                      A                      A                      A
 Frequencies --     37.9220                51.2432                88.3771
 Red. masses --      4.8538                 4.0983                 3.1424
 Frc consts  --      0.0041                 0.0063                 0.0145
 IR Inten    --      0.8574                 0.0827                 1.5723

                      7                      8                      9
                      A                      A                      A
 Frequencies --     96.1048               105.2262               126.9444
 Red. masses --      3.4603                 3.0369                 3.6748
 Frc consts  --      0.0188                 0.0198                 0.0349
 IR Inten    --      2.9455                 5.8950                 2.5358

                     10                     11                     12
                      A                      A                      A
 Frequencies --    129.8457               161.7054               167.5191
 Red. masses --      2.9357                 2.9143                 2.7463
 Frc consts  --      0.0292                 0.0449                 0.0454
 IR Inten    --      5.8570                 3.3830                18.2723

                     13                     14                     15
                      A                      A                      A
 Frequencies --    183.2773               191.1358               221.6230
 Red. masses --      2.5721                 3.4264                 3.3020
 Frc consts  --      0.0509                 0.0738                 0.0956
 IR Inten    --     15.0515                 3.5463                 5.0017

                     16                     17                     18
                      A                      A                      A
 Frequencies --    227.3135               250.4504               271.4824
 Red. masses --      3.5217                 1.1223                 2.3756
 Frc consts  --      0.1072                 0.0415                 0.1032
 IR Inten    --      0.8966                 0.6215                 2.5349

                     19                     20                     21
                      A                      A                      A
 Frequencies --    326.3328               343.7866               363.9600
 Red. masses --      3.7734                 3.6737                 4.0364
 Frc consts  --      0.2368                 0.2558                 0.3150
 IR Inten    --      0.8972                 1.8057                 4.1616

                     22                     23                     24
                      A                      A                      A
 Frequencies --    369.9044               418.9347               436.8441
 Red. masses --      5.8186                 5.0476                 5.1510
 Frc consts  --      0.4691                 0.5219                 0.5792
 IR Inten    --      2.7301                 3.7846                 3.2461

                     25                     26                     27
                      A                      A                      A
 Frequencies --    441.2512               457.4720               486.8885
 Red. masses --      4.2032                 4.6497                 4.0340
 Frc consts  --      0.4822                 0.5733                 0.5634
 IR Inten    --      7.6966                 7.8894                 8.5269

                     28                     29                     30
                      A                      A                      A
 Frequencies --    551.0212               586.8794               593.3980
 Red. masses --      2.2106                 4.6359                 1.6456
 Frc consts  --      0.3955                 0.9408                 0.3414
 IR Inten    --      9.5713                11.3819                61.0359

                     31                     32                     33
                      A                      A                      A
 Frequencies --    607.6403               637.9002               656.7074
 Red. masses --      4.5975                 4.6366                 4.5581
 Frc consts  --      1.0002                 1.1116                 1.1582
 IR Inten    --      3.8154                10.2922                10.1474

                     34                     35                     36
                      A                      A                      A
 Frequencies --    701.5933               710.3678               728.6295
 Red. masses --      5.0979                 4.5533                 4.3232
 Frc consts  --      1.4785                 1.3538                 1.3523
 IR Inten    --      9.1495                12.0247                 1.7503

                     37                     38                     39
                      A                      A                      A
 Frequencies --    769.2339               779.8300               788.8002
 Red. masses --      2.9638                 3.2172                 2.5597
 Frc consts  --      1.0333                 1.1527                 0.9384
 IR Inten    --     18.8426                10.2339                 1.5815

                     40                     41                     42
                      A                      A                      A
 Frequencies --    802.7297               828.2137               847.9039
 Red. masses --      3.3269                 1.6197                 1.6011
 Frc consts  --      1.2631                 0.6546                 0.6782
 IR Inten    --     27.3410                37.7505                96.3210

                     43                     44                     45
                      A                      A                      A
 Frequencies --    882.4340               920.6870               941.8168
 Red. masses --      3.4988                 1.3584                 3.8135
 Frc consts  --      1.6052                 0.6784                 1.9930
 IR Inten    --     10.5977                 3.8415                 2.9023

                     46                     47                     48
                      A                      A                      A
 Frequencies --    950.9381               976.7960              1030.9977
 Red. masses --      1.3248                 1.7785                 1.5067
 Frc consts  --      0.7058                 0.9998                 0.9436
 IR Inten    --      0.6222                28.6148                 2.9331

                     49                     50                     51
                      A                      A                      A
 Frequencies --   1041.6542              1051.3109              1066.2501
 Red. masses --      5.3359                 2.8068                 5.5530
 Frc consts  --      3.4112                 1.8278                 3.7196
 IR Inten    --     20.5928                 4.1184                43.5152

                     52                     53                     54
                      A                      A                      A
 Frequencies --   1076.6637              1089.8565              1130.5766
 Red. masses --      1.5828                 1.5009                 2.6921
 Frc consts  --      1.0810                 1.0504                 2.0274
 IR Inten    --      4.8200                12.8057                 8.2995

                     55                     56                     57
                      A                      A                      A
 Frequencies --   1160.1179              1161.8562              1185.4255
 Red. masses --      1.3076                 1.2982                 1.3094
 Frc consts  --      1.0369                 1.0325                 1.0841
 IR Inten    --     12.1436                 1.4025                12.6112

                     58                     59                     60
                      A                      A                      A
 Frequencies --   1193.9423              1216.9602              1222.9785
 Red. masses --      1.2784                 2.0790                 1.4092
 Frc consts  --      1.0737                 1.8141                 1.2418
 IR Inten    --      2.9649                11.7624                14.2667

                     61                     62                     63
                      A                      A                      A
 Frequencies --   1247.1785              1267.0674              1305.4201
 Red. masses --      2.4107                 2.3831                 2.1083
 Frc consts  --      2.2093                 2.2542                 2.1168
 IR Inten    --     22.4129                25.9729                44.5160

                     64                     65                     66
                      A                      A                      A
 Frequencies --   1317.1032              1343.2070              1349.0508
 Red. masses --      2.8253                 1.6031                 2.8728
 Frc consts  --      2.8878                 1.7041                 3.0804
 IR Inten    --     92.1128                20.4609                88.9851

                     67                     68                     69
                      A                      A                      A
 Frequencies --   1352.9386              1371.2059              1384.5375
 Red. masses --      2.9663                 4.9009                 3.4458
 Frc consts  --      3.1990                 5.4291                 3.8918
 IR Inten    --      6.6926               102.2705               117.6136

                     70                     71                     72
                      A                      A                      A
 Frequencies --   1438.5049              1443.8389              1460.4310
 Red. masses --      1.4048                 1.2593                 2.6919
 Frc consts  --      1.7127                 1.5467                 3.3827
 IR Inten    --     19.0434                 7.7409               129.0910

                     73                     74                     75
                      A                      A                      A
 Frequencies --   1472.3056              1478.4205              1492.1631
 Red. masses --      1.8151                 1.9878                 1.2466
 Frc consts  --      2.3182                 2.5598                 1.6353
 IR Inten    --     20.4804                17.2805                 4.3948

                     76                     77                     78
                      A                      A                      A
 Frequencies --   1498.0079              1501.9566              1517.1924
 Red. masses --      2.0433                 1.0457                 1.0463
 Frc consts  --      2.7015                 1.3899                 1.4190
 IR Inten    --     28.2759                 6.0949                 4.2601

                     79                     80                     81
                      A                      A                      A
 Frequencies --   1526.1534              1527.9849              1529.9658
 Red. masses --      1.0533                 1.1232                 1.1017
 Frc consts  --      1.4455                 1.5451                 1.5194
 IR Inten    --      3.3003                 9.8712                 9.9179

                     82                     83                     84
                      A                      A                      A
 Frequencies --   1535.2366              1550.4240              1553.6508
 Red. masses --      1.1048                 3.1158                 1.3776
 Frc consts  --      1.5343                 4.4128                 1.9593
 IR Inten    --     21.9632                85.2548                 4.2148

                     85                     86                     87
                      A                      A                      A
 Frequencies --   1560.2890              1619.7091              1635.5324
 Red. masses --      3.0643                 5.3330                 6.6872
 Frc consts  --      4.3954                 8.2432                10.5394
 IR Inten    --    204.8012                67.6329                 9.6823

                     88                     89                     90
                      A                      A                      A
 Frequencies --   1673.2449              1691.5309              1751.1178
 Red. masses --      5.8942                 1.0919                 7.9482
 Frc consts  --      9.7229                 1.8407                14.3598
 IR Inten    --     30.3252                26.9021               433.3016

                     91                     92                     93
                      A                      A                      A
 Frequencies --   2977.1131              3032.2023              3040.5136
 Red. masses --      1.0753                 1.0381                 1.0390
 Frc consts  --      5.6155                 5.6233                 5.6590
 IR Inten    --     82.7042                68.0205                45.3476

                     94                     95                     96
                      A                      A                      A
 Frequencies --   3067.5002              3092.5823              3112.2916
 Red. masses --      1.0324                 1.0991                 1.0990
 Frc consts  --      5.7236                 6.1934                 6.2722
 IR Inten    --     66.3558                22.3210                18.1829

                     97                     98                     99
                      A                      A                      A
 Frequencies --   3124.9568              3132.8239              3150.5093
 Red. masses --      1.1010                 1.1061                 1.0871
 Frc consts  --      6.3344                 6.3960                 6.3575
 IR Inten    --     16.2029                15.5496                 5.4857

                    100                    101                    102
                      A                      A                      A
 Frequencies --   3161.6356              3162.4753              3175.4180
 Red. masses --      1.1043                 1.1043                 1.0893
 Frc consts  --      6.5038                 6.5073                 6.4716
 IR Inten    --     16.3590                10.5099                18.9069

                    103                    104                    105
                      A                      A                      A
 Frequencies --   3207.7958              3230.6391              3258.9537
 Red. masses --      1.0901                 1.0914                 1.0972
 Frc consts  --      6.6090                 6.7114                 6.8658
 IR Inten    --      4.3951                 9.8218                 3.0452

                    106                    107                    108
                      A                      A                      A
 Frequencies --   3468.6165              3559.7615              3583.8216
 Red. masses --      1.0497                 1.0933                 1.0746
 Frc consts  --      7.4406                 8.1626                 8.1322
 IR Inten    --      2.7356                 0.2427                41.7124

 - Thermochemistry -
 -------------------
 Temperature   298.150 Kelvin.  Pressure   1.00000 Atm.
 Atom     1 has atomic number  6 and mass  12.00000

 Molecular mass:   274.14298 amu.
 Principal axes and moments of inertia in atomic units:
                           1         2         3
     Eigenvalues --  2861.136437249.585788037.91323
           X            0.99992  -0.00114   0.01240
           Y            0.00134   0.99987  -0.01615
           Z           -0.01238   0.01617   0.99979
 This molecule is an asymmetric top.
 Rotational symmetry number  1.
 Warning -- assumption of classical behavior for rotation
           may cause significant error
 Rotational temperatures (Kelvin)      0.03027     0.01195     0.01078
 Rotational constants (GHZ):           0.63078     0.24894     0.22453
 Zero-point vibrational energy     824460.5 (Joules/Mol)
                                  197.05080 (Kcal/Mol)
 Warning -- explicit consideration of  31 degrees of freedom as
           vibrations may cause significant error
 Vibrational temperatures:      4.93    36.03    40.19    54.56    73.73
          (Kelvin)            127.15   138.27   151.40   182.64   186.82
                              232.66   241.02   263.70   275.00   318.87
                              327.05   360.34   390.60   469.52   494.63
                              523.66   532.21   602.75   628.52   634.86
                              658.20   700.52   792.80   844.39   853.77
                              874.26   917.80   944.86  1009.44  1022.06
                             1048.34  1106.76  1122.00  1134.91  1154.95
                             1191.61  1219.94  1269.63  1324.66  1355.06
                             1368.19  1405.39  1483.38  1498.71  1512.60
                             1534.10  1549.08  1568.06  1626.65  1669.15
                             1671.65  1705.56  1717.82  1750.93  1759.59
                             1794.41  1823.03  1878.21  1895.02  1932.58
                             1940.98  1946.58  1972.86  1992.04  2069.69
                             2077.36  2101.23  2118.32  2127.12  2146.89
                             2155.30  2160.98  2182.90  2195.79  2198.43
                             2201.28  2208.86  2230.71  2235.36  2244.91
                             2330.40  2353.17  2407.43  2433.74  2519.47
                             4283.40  4362.66  4374.62  4413.45  4449.54
                             4477.89  4496.12  4507.43  4532.88  4548.89
                             4550.10  4568.72  4615.30  4648.17  4688.91
                             4990.57  5121.70  5156.32

 Zero-point correction=                           0.314020 (Hartree/Particle)
 Thermal correction to Energy=                    0.334461
 Thermal correction to Enthalpy=                  0.335405
 Thermal correction to Gibbs Free Energy=         0.260771
 Sum of electronic and zero-point Energies=           -913.517581
 Sum of electronic and thermal Energies=              -913.497141
 Sum of electronic and thermal Enthalpies=            -913.496197
 Sum of electronic and thermal Free Energies=         -913.570831

                     E (Thermal)             CV                S
                      KCal/Mol        Cal/Mol-Kelvin    Cal/Mol-Kelvin
 Total                  209.877             74.028            157.080
 Electronic               0.000              0.000              0.000
 Translational            0.889              2.981             42.724
 Rotational               0.889              2.981             33.477
 Vibrational            208.100             68.066             80.879
 Vibration     1          0.592              1.987             10.140
 Vibration     2          0.593              1.985              6.188
 Vibration     3          0.593              1.984              5.971
 Vibration     4          0.594              1.982              5.365
 Vibration     5          0.596              1.977              4.769
 Vibration     6          0.601              1.957              3.696
 Vibration     7          0.603              1.952              3.532
 Vibration     8          0.605              1.945              3.355
 Vibration     9          0.611              1.926              2.992
 Vibration    10          0.612              1.923              2.948
 Vibration    11          0.622              1.889              2.530
 Vibration    12          0.624              1.882              2.463
 Vibration    13          0.631              1.863              2.295
 Vibration    14          0.634              1.852              2.217
 Vibration    15          0.648              1.808              1.946
 Vibration    16          0.651              1.799              1.900
 Vibration    17          0.663              1.762              1.727
 Vibration    18          0.675              1.726              1.587
 Vibration    19          0.710              1.623              1.278
 Vibration    20          0.723              1.588              1.195
 Vibration    21          0.737              1.546              1.105
 Vibration    22          0.742              1.534              1.080
 Vibration    23          0.782              1.429              0.896
 Vibration    24          0.797              1.390              0.837
 Vibration    25          0.801              1.380              0.823
 Vibration    26          0.816              1.344              0.773
 Vibration    27          0.843              1.279              0.692
 Vibration    28          0.906              1.137              0.542
 Vibration    29          0.944              1.060              0.473
 Vibration    30          0.951              1.046              0.461
 Vibration    31          0.966              1.016              0.437

                           ! Non-Optimized Parameters !
 Normal termination of Gaussian 16 at Sat Dec 12 16:31:45 2020.

 ----------------------------------------------------------------------
 # B3LYP/6-311++G(d,p) empiricaldispersion=gd3bj scf=xqc pop=npa geom=c
 heck
 ----------------------------------------------------------------------

 ----------------------------------------
 CID_104592666_JID_10515_Energie_neutraal
 ----------------------------------------
 Structure from the checkpoint file:  "JID_10515.chk"
 Charge =  0 Multiplicity = 1

 SCF Done:  E(RB3LYP) =  -914.089306354     A.U. after   17 cycles
 Normal termination of Gaussian 16 at Sat Dec 12 16:40:17 2020.

 ----------------------------------------------------------------------
 # B3LYP/6-311++G(d,p) empiricaldispersion=gd3bj scf=xqc pop=npa geom=c
 heck
 ----------------------------------------------------------------------

 --------------------------------------
 CID_104592666_JID_10515_Energie_kation
 --------------------------------------
 Structure from the checkpoint file:  "JID_10515.chk"
 Charge =  1 Multiplicity = 2

 SCF Done:  E(UB3LYP) =  -913.812483292     A.U. after   29 cycles
 Normal termination of Gaussian 16 at Sat Dec 12 16:59:50 2020.
 Gaussian 16:  ES64L-G16RevA.03 25-Dec-2016

 ----------------------------------------------------------------------
 # B3LYP/6-311++G(d,p) empiricaldispersion=gd3bj scf=xqc pop=npa geom=c
 heck
 ----------------------------------------------------------------------

 -------------------------------------
 CID_104592666_JID_10515_Energie_anion
 -------------------------------------
 Structure from the checkpoint file:  "JID_10515.chk"
 Charge = -1 Multiplicity = 2

                         Standard orientation:
 ---------------------------------------------------------------------
 Center     Atomic      Atomic             Coordinates (Angstroms)
 Number     Number       Type             X           Y           Z
 ---------------------------------------------------------------------
      1          6           0       -4.922498   -0.149011   -0.866848
      2          6           0       -3.564911   -0.205024   -0.209199
      3          6           0       -2.671253    0.860737   -0.297767
      4          6           0       -1.405242    0.826888    0.302161
      5          6           0       -1.045917   -0.289215    1.075559
      6          6           0       -1.936742   -1.364171    1.184533
      7          6           0       -3.168605   -1.320846    0.541290
      8          8           0        0.154094   -0.242361    1.710053
      9          6           0        0.764386   -1.474255    2.077817
     10          6           0       -0.559456    2.050165    0.125807
     11          8           0       -1.074015    3.164696    0.152825
     12          7           0        0.795218    1.953971   -0.123343
     13          6           0        1.685848    0.888069   -0.309277
     14          7           0        2.899037    1.011239    0.238428
     15          7           0        3.583233   -0.074093   -0.189412
     16          6           0        2.829084   -0.869958   -0.987712
     17          6           0        1.579506   -0.283585   -1.109793
     18          6           0        0.421152   -0.822977   -1.897909
     19          7           0       -0.024190   -2.127958   -1.364950
     20          6           0        4.964275   -0.244425    0.205072
     21          1           0       -5.714401    0.054876   -0.134334
     22          1           0       -4.965150    0.641480   -1.622514
     23          1           0       -5.172940   -1.097666   -1.355957
     24          1           0       -2.938665    1.755285   -0.851754
     25          1           0       -1.662688   -2.238033    1.763029
     26          1           0       -3.841846   -2.170411    0.633796
     27          1           0        0.276229   -1.915402    2.956783
     28          1           0        0.740163   -2.173217    1.235732
     29          1           0        1.796166   -1.221896    2.328667
     30          1           0        1.239833    2.863542   -0.074962
     31          1           0        3.227887   -1.780917   -1.412834
     32          1           0       -0.417020   -0.130044   -1.820895
     33          1           0        0.690796   -0.871004   -2.966160
     34          1           0       -0.983006   -2.306080   -1.657163
     35          1           0        0.543941   -2.872482   -1.765334
     36          1           0        5.572275    0.582216   -0.174781
     37          1           0        5.043565   -0.269729    1.295689
     38          1           0        5.333383   -1.185679   -0.207505
 ---------------------------------------------------------------------

 SCF Done:  E(UB3LYP) =  -914.085565253     A.U. after   33 cycles
 SCF Done:  E(UB3LYP) =  -914.085565253     a.u. after    1 cycles

 The electronic state is 2-A.
 Alpha  occ. eigenvalues --  -19.04723 -18.97692 -14.28957 -14.23678 -14.22175
 Alpha  occ. eigenvalues --  -14.19436 -10.16634 -10.13056 -10.12902 -10.11761
 Alpha  occ. eigenvalues --  -10.11688 -10.10267 -10.09935 -10.07939 -10.07702
 Alpha  occ. eigenvalues --  -10.07142 -10.06964 -10.06909 -10.06721 -10.06704
 Alpha  occ. eigenvalues --   -0.96684  -0.95349  -0.93058  -0.82656  -0.78428
 Alpha  occ. eigenvalues --   -0.75655  -0.73271  -0.69119  -0.67933  -0.65450
 Alpha  occ. eigenvalues --   -0.61923  -0.61593  -0.57477  -0.56726  -0.53998
 Alpha  occ. eigenvalues --   -0.50650  -0.49061  -0.48387  -0.45326  -0.43768
 Alpha  occ. eigenvalues --   -0.42507  -0.39925  -0.38948  -0.38374  -0.38001
 Alpha  occ. eigenvalues --   -0.37198  -0.36752  -0.35283  -0.34891  -0.33756
 Alpha  occ. eigenvalues --   -0.33310  -0.33068  -0.32889  -0.32249  -0.31103
 Alpha  occ. eigenvalues --   -0.30849  -0.30018  -0.29463  -0.28808  -0.27260
 Alpha  occ. eigenvalues --   -0.26412  -0.26248  -0.25384  -0.23209  -0.21446
 Alpha  occ. eigenvalues --   -0.20140  -0.19140  -0.16683  -0.15187  -0.14544
 Alpha  occ. eigenvalues --   -0.14175  -0.12156  -0.11857   0.03755
 Alpha virt. eigenvalues --    0.05367   0.06216   0.07047   0.07380   0.08387
 Alpha virt. eigenvalues --    0.08764   0.08911   0.09501   0.10141   0.10394
 Alpha virt. eigenvalues --    0.10578   0.10925   0.11314   0.11792   0.11995

  Beta  occ. eigenvalues --  -19.04717 -18.97605 -14.28932 -14.23672 -14.22149
  Beta  occ. eigenvalues --  -14.19411 -10.16561 -10.13031 -10.12903 -10.11755
  Beta  occ. eigenvalues --  -10.11649 -10.10229 -10.09925 -10.07933 -10.07729
  Beta  occ. eigenvalues --  -10.07078 -10.06970 -10.06791 -10.06687 -10.06631
  Beta  occ. eigenvalues --   -0.96661  -0.95306  -0.92907  -0.82603  -0.78380
  Beta  occ. eigenvalues --   -0.75528  -0.73221  -0.69079  -0.67859  -0.65261
  Beta  occ. eigenvalues --   -0.61888  -0.61542  -0.57392  -0.56650  -0.53788
  Beta  occ. eigenvalues --   -0.50566  -0.49003  -0.48323  -0.45265  -0.43723
  Beta  occ. eigenvalues --   -0.42445  -0.39858  -0.38894  -0.38302  -0.37960
  Beta  occ. eigenvalues --   -0.37100  -0.36694  -0.35232  -0.34827  -0.33693
  Beta  occ. eigenvalues --   -0.33251  -0.33039  -0.32845  -0.32191  -0.30938
  Beta  occ. eigenvalues --   -0.30752  -0.29929  -0.29383  -0.28683  -0.27157
  Beta  occ. eigenvalues --   -0.26341  -0.26148  -0.25324  -0.23112  -0.21262
  Beta  occ. eigenvalues --   -0.20095  -0.18967  -0.16394  -0.15107  -0.14442
  Beta  occ. eigenvalues --   -0.13815  -0.12023  -0.11589
  Beta virt. eigenvalues --    0.06154   0.06648   0.06712   0.07470   0.07595
  Beta virt. eigenvalues --    0.08793   0.08933   0.09043   0.09848   0.10377
  Beta virt. eigenvalues --    0.10444   0.10703   0.11049   0.11654   0.11880

 Mulliken charges and spin densities:
               1          2
     1  C   -0.346786  -0.188960
     2  C    0.112616   0.060971
     3  C   -0.374883   0.192766
     4  C    0.517855  -0.063241
     5  C   -0.430953   0.041920
     6  C   -0.072110   0.134966
     7  C   -0.081013  -0.177440
     8  O   -0.018997   0.012118
     9  C   -0.208456  -0.124939
    10  C   -0.086143  -0.044731
    11  O   -0.315811   0.028346
    12  N   -0.237302  -0.015899
    13  C   -0.452271  -0.202168
    14  N   -0.355261   0.238220
    15  N    0.121785   0.018440
    16  C   -0.222755  -0.046073
    17  C    1.465458  -0.343546
    18  C   -0.429482  -0.765743
    19  N   -0.283623  -0.017448
    20  C    0.855622  -1.146748
    21  H    0.154227  -0.006189
    22  H    0.139678   0.002125
    23  H    0.026417   0.111507
    24  H    0.199900   0.000540
    25  H    0.054661   0.093955
    26  H    0.033611   0.109056
    27  H    0.065892   0.067858
    28  H    0.165846   0.010635
    29  H    0.084043   0.071288
    30  H    0.301776   0.005595
    31  H   -1.117308   1.312056
    32  H    0.254628  -0.024233
    33  H    0.043132   0.115059
    34  H    0.109762   0.100611
    35  H    0.029346   0.241751
    36  H   -0.151656   0.328086
    37  H    0.044051   0.121217
    38  H   -0.595496   0.748268
 Sum of Mulliken charges =  -1.00000   1.00000

 Dipole moment (field-independent basis, Debye):
    X=             -5.1141    Y=              0.3688    Z=              1.3445  Tot=              5.3007
 Quadrupole moment (field-independent basis, Debye-Ang):
   XX=           -192.4046   YY=           -168.6610   ZZ=           -143.5495
   XY=             17.6075   XZ=             11.4903   YZ=            -12.1199

 Summary of Natural Population Analysis:

                                       Natural Population
                Natural  -----------------------------------------------
    Atom  No    Charge         Core      Valence    Rydberg      Total
 -----------------------------------------------------------------------
      C    1   -0.28798      0.99964     2.28372    0.00462     3.28798
      C    2   -0.04609      0.99951     2.03718    0.00939     3.04609
      C    3   -0.06547      0.99949     2.05784    0.00814     3.06547
      C    4   -0.08195      0.99942     2.07100    0.01153     3.08195
      C    5    0.18018      0.99935     1.80672    0.01375     2.81982
      C    6   -0.12654      0.99952     2.11775    0.00926     3.12654
      C    7   -0.07032      0.99953     2.06176    0.00903     3.07032
      O    8   -0.27286      0.99985     3.26317    0.00984     4.27286
      C    9   -0.10700      0.99959     2.09839    0.00902     3.10700
      C   10    0.35311      0.99962     1.62557    0.02169     2.64689
      O   11   -0.31660      0.99988     3.31148    0.00524     4.31660
      N   12   -0.30887      0.99963     2.79984    0.00940     3.80887
      C   13    0.17034      0.99950     1.81343    0.01674     2.82966
      N   14   -0.17091      0.99969     2.66018    0.01105     3.67091
      N   15   -0.10132      0.99967     2.58950    0.01215     3.60132
      C   16    0.00617      0.99949     1.98166    0.01268     2.99383
      C   17   -0.08108      0.99947     2.06928    0.01234     3.08108
      C   18   -0.10118      0.99959     2.08993    0.01166     3.10118
      N   19   -0.42055      0.99977     2.90990    0.01088     3.92055
      C   20   -0.17038      0.99964     2.16217    0.00857     3.17038
      H   21    0.09851      0.00000     0.40040    0.00109     0.40149
      H   22    0.09995      0.00000     0.39926    0.00078     0.40005
      H   23    0.09968      0.00000     0.39923    0.00109     0.40032
      H   24    0.10468      0.00000     0.39423    0.00109     0.39532
      H   25    0.10251      0.00000     0.39640    0.00109     0.39749
      H   26    0.09418      0.00000     0.40496    0.00086     0.40582
      H   27    0.07813      0.00000     0.42100    0.00087     0.42187
      H   28    0.10065      0.00000     0.39786    0.00149     0.39935
      H   29    0.09351      0.00000     0.40558    0.00091     0.40649
      H   30    0.19839      0.00000     0.29919    0.00242     0.30161
      H   31    0.10687      0.00000     0.38988    0.00326     0.39313
      H   32    0.10386      0.00000     0.39400    0.00214     0.39614
      H   33    0.08540      0.00000     0.41340    0.00120     0.41460
      H   34    0.17732      0.00000     0.32095    0.00173     0.32268
      H   35    0.17310      0.00000     0.32461    0.00229     0.32690
      H   36    0.09983      0.00000     0.39873    0.00144     0.40017
      H   37    0.09818      0.00000     0.40060    0.00121     0.40182
      H   38    0.10454      0.00000     0.39322    0.00224     0.39546
 =======================================================================
   * Total *    0.00000     19.99185    52.76396    0.24419    73.00000

 Normal termination of Gaussian 16 at Sat Dec 12 17:22:32 2020.
