 Gaussian 16, Revision A.03,

 -----------------------------------------------------------
 # opt freq B3LYP/6-31G(d) empiricaldispersion=gd3bj scf=xqc
 -----------------------------------------------------------

 -------------------------------
 CID_144624912_JID_6473_neutraal
 -------------------------------
 Symbolic Z-matrix:
 Charge =  0 Multiplicity = 1

 SCF Done:  E(RB3LYP) =  -697.083088722     A.U. after   14 cycles
 SCF Done:  E(RB3LYP) =  -697.088251957     A.U. after   12 cycles
 SCF Done:  E(RB3LYP) =  -697.088498350     A.U. after   12 cycles
 SCF Done:  E(RB3LYP) =  -697.090380469     A.U. after   11 cycles
 SCF Done:  E(RB3LYP) =  -697.091918211     A.U. after   12 cycles
 SCF Done:  E(RB3LYP) =  -697.092452406     A.U. after   13 cycles
 SCF Done:  E(RB3LYP) =  -697.093276811     A.U. after   11 cycles
 SCF Done:  E(RB3LYP) =  -697.093586490     A.U. after   12 cycles
 SCF Done:  E(RB3LYP) =  -697.093768956     A.U. after   13 cycles
 SCF Done:  E(RB3LYP) =  -697.093817428     A.U. after    9 cycles
 SCF Done:  E(RB3LYP) =  -697.093997631     A.U. after    7 cycles
 SCF Done:  E(RB3LYP) =  -697.093997662     A.U. after    7 cycles
 SCF Done:  E(RB3LYP) =  -697.093997747     A.U. after    7 cycles
 SCF Done:  E(RB3LYP) =  -697.093997735     A.U. after    8 cycles
 SCF Done:  E(RB3LYP) =  -697.093997717     A.U. after    6 cycles
 Optimization completed.
    -- Stationary point found.
 Normal termination of Gaussian 16 at Thu Dec 10 23:55:28 2020.

 --------------------------------------------------------------------
 #N Geom=AllCheck Guess=TCheck SCRF=Check GenChk RB3LYP/6-31G(d) Freq
 --------------------------------------------------------------------

 Structure from the checkpoint file:  "JID_6473.chk"
 -------------------------------
 CID_144624912_JID_6473_neutraal
 -------------------------------
 Charge =  0 Multiplicity = 1

 SCF Done:  E(RB3LYP) =  -697.093997718     A.U. after    1 cycles

  Exact polarizability: 174.307  -2.081 154.484   2.376   3.805 133.597
 Approx polarizability: 208.861  -8.632 223.023   6.272   9.962 195.868

                      1                      2                      3
                      A                      A                      A
 Frequencies --     15.2054                24.2726                33.8014
 Red. masses --      3.6522                 1.9770                 3.1989
 Frc consts  --      0.0005                 0.0007                 0.0022
 IR Inten    --      0.5566                 0.0977                 0.0240

                      4                      5                      6
                      A                      A                      A
 Frequencies --     44.2819                58.5377                62.1601
 Red. masses --      3.5901                 3.8646                 3.4919
 Frc consts  --      0.0041                 0.0078                 0.0079
 IR Inten    --      0.7194                 0.1435                 0.9894

                      7                      8                      9
                      A                      A                      A
 Frequencies --     75.4206                83.1222                99.0452
 Red. masses --      2.2765                 3.0360                 1.2204
 Frc consts  --      0.0076                 0.0124                 0.0071
 IR Inten    --      0.3688                 0.1914                 0.1596

                     10                     11                     12
                      A                      A                      A
 Frequencies --    107.7837               128.2900               139.7511
 Red. masses --      3.4469                 3.4678                 3.2842
 Frc consts  --      0.0236                 0.0336                 0.0378
 IR Inten    --      1.7496                 0.9577                 0.7797

                     13                     14                     15
                      A                      A                      A
 Frequencies --    179.3113               226.7991               241.5633
 Red. masses --      2.8803                 1.8075                 1.0278
 Frc consts  --      0.0546                 0.0548                 0.0353
 IR Inten    --      0.9426                 0.0767                 0.1771

                     16                     17                     18
                      A                      A                      A
 Frequencies --    246.1026               255.1269               279.6550
 Red. masses --      1.2785                 2.6416                 1.2138
 Frc consts  --      0.0456                 0.1013                 0.0559
 IR Inten    --      0.0736                 1.6002                 0.5918

                     19                     20                     21
                      A                      A                      A
 Frequencies --    305.7611               325.9648               333.4053
 Red. masses --      2.1822                 1.0238                 2.4133
 Frc consts  --      0.1202                 0.0641                 0.1581
 IR Inten    --      0.0289                 1.0376                 0.4430

                     22                     23                     24
                      A                      A                      A
 Frequencies --    347.5691               373.8028               414.4879
 Red. masses --      2.3723                 2.3491                 2.4089
 Frc consts  --      0.1689                 0.1934                 0.2438
 IR Inten    --      1.9005                 0.2312                 5.5111

                     25                     26                     27
                      A                      A                      A
 Frequencies --    433.8328               465.4071               473.4468
 Red. masses --      1.9731                 2.8544                 2.8336
 Frc consts  --      0.2188                 0.3643                 0.3742
 IR Inten    --      0.8990                 2.0259                 1.6229

                     28                     29                     30
                      A                      A                      A
 Frequencies --    492.4779               547.9265               562.2401
 Red. masses --      2.9206                 2.7024                 2.5167
 Frc consts  --      0.4173                 0.4780                 0.4687
 IR Inten    --      5.3678                 7.4447                19.6958

                     31                     32                     33
                      A                      A                      A
 Frequencies --    647.1833               663.2862               705.8582
 Red. masses --      1.4110                 2.0957                 2.2764
 Frc consts  --      0.3482                 0.5432                 0.6683
 IR Inten    --     85.4919                21.9915                13.2526

                     34                     35                     36
                      A                      A                      A
 Frequencies --    788.6171               792.0604               796.3080
 Red. masses --      5.4734                 2.0708                 1.7258
 Frc consts  --      2.0056                 0.7654                 0.6448
 IR Inten    --     57.5485                 0.9312                 2.9404

                     37                     38                     39
                      A                      A                      A
 Frequencies --    836.3118               842.8159               857.6540
 Red. masses --      1.0595                 1.0551                 2.8754
 Frc consts  --      0.4366                 0.4416                 1.2462
 IR Inten    --     16.2006                 5.2477                 1.9410

                     40                     41                     42
                      A                      A                      A
 Frequencies --    868.8153               892.4233               912.6844
 Red. masses --      2.3331                 2.3012                 2.3003
 Frc consts  --      1.0376                 1.0798                 1.1289
 IR Inten    --      0.6995                 0.5368                 2.3683

                     43                     44                     45
                      A                      A                      A
 Frequencies --    948.7978               958.1999               967.0799
 Red. masses --      1.2267                 1.4465                 1.3970
 Frc consts  --      0.6506                 0.7825                 0.7698
 IR Inten    --      2.7253                 2.3065                 2.5649

                     46                     47                     48
                      A                      A                      A
 Frequencies --    972.8957               984.4337               998.5407
 Red. masses --      1.5541                 2.2245                 1.5659
 Frc consts  --      0.8667                 1.2701                 0.9199
 IR Inten    --      0.4998                 4.5410                 2.3091

                     49                     50                     51
                      A                      A                      A
 Frequencies --   1016.7190              1027.7349              1050.0034
 Red. masses --      3.2462                 1.8316                 1.9684
 Frc consts  --      1.9771                 1.1398                 1.2787
 IR Inten    --      1.2487                 2.0018                 0.5295

                     52                     53                     54
                      A                      A                      A
 Frequencies --   1090.9562              1106.4390              1119.8849
 Red. masses --      2.0225                 1.6754                 2.4367
 Frc consts  --      1.4182                 1.2084                 1.8005
 IR Inten    --     13.9048                 1.6609                 1.5997

                     55                     56                     57
                      A                      A                      A
 Frequencies --   1141.3894              1162.8600              1184.5826
 Red. masses --      1.3618                 2.0396                 1.6979
 Frc consts  --      1.0453                 1.6250                 1.4037
 IR Inten    --      1.1004                11.3085                 5.4859

                     58                     59                     60
                      A                      A                      A
 Frequencies --   1196.2893              1207.0022              1222.3884
 Red. masses --      2.2875                 2.0961                 2.5000
 Frc consts  --      1.9288                 1.7992                 2.2009
 IR Inten    --     10.9052                 6.2537                54.5990

                     61                     62                     63
                      A                      A                      A
 Frequencies --   1236.4514              1242.3414              1246.1441
 Red. masses --      1.4638                 1.4464                 1.4311
 Frc consts  --      1.3185                 1.3152                 1.3094
 IR Inten    --      0.6491                 0.3130                 1.0200

                     64                     65                     66
                      A                      A                      A
 Frequencies --   1289.4640              1306.8601              1348.5249
 Red. masses --      1.3917                 1.2436                 1.2899
 Frc consts  --      1.3634                 1.2514                 1.3820
 IR Inten    --     11.0519                 2.9740                 1.8820

                     67                     68                     69
                      A                      A                      A
 Frequencies --   1352.2307              1358.4103              1371.4793
 Red. masses --      1.3280                 1.3671                 1.3593
 Frc consts  --      1.4307                 1.4864                 1.5064
 IR Inten    --     13.5204                 2.8628                 9.8322

                     70                     71                     72
                      A                      A                      A
 Frequencies --   1382.4818              1388.1568              1402.3318
 Red. masses --      1.3688                 1.3746                 1.4240
 Frc consts  --      1.5414                 1.5607                 1.6499
 IR Inten    --      8.2104                62.3802                 6.5611

                     73                     74                     75
                      A                      A                      A
 Frequencies --   1404.8177              1409.2116              1421.2515
 Red. masses --      1.4449                 1.5335                 1.2091
 Frc consts  --      1.6800                 1.7942                 1.4389
 IR Inten    --     35.3570                58.6269                 1.7636

                     76                     77                     78
                      A                      A                      A
 Frequencies --   1426.5433              1428.3206              1439.1080
 Red. masses --      1.4150                 1.4460                 2.6764
 Frc consts  --      1.6966                 1.7381                 3.2657
 IR Inten    --     23.0753                 8.0759               245.3352

                     79                     80                     81
                      A                      A                      A
 Frequencies --   1441.1828              1446.8655              1447.0592
 Red. masses --      1.2423                 1.2589                 1.2884
 Frc consts  --      1.5203                 1.5527                 1.5896
 IR Inten    --      6.1973                22.3721                33.2878

                     82                     83                     84
                      A                      A                      A
 Frequencies --   1482.2428              1495.7610              1509.6567
 Red. masses --      1.4200                 1.2821                 1.0917
 Frc consts  --      1.8381                 1.6900                 1.4659
 IR Inten    --      1.1833                 2.7814                 2.5669

                     85                     86                     87
                      A                      A                      A
 Frequencies --   1517.3563              1518.7496              1520.9678
 Red. masses --      1.0668                 1.0936                 1.0468
 Frc consts  --      1.4472                 1.4862                 1.4267
 IR Inten    --      5.0801                 4.1202                 1.7670

                     88                     89                     90
                      A                      A                      A
 Frequencies --   1523.2147              1526.4054              1528.7970
 Red. masses --      1.0917                 1.0451                 1.0349
 Frc consts  --      1.4924                 1.4346                 1.4252
 IR Inten    --      6.3640                 7.8310                 1.3155

                     91                     92                     93
                      A                      A                      A
 Frequencies --   1529.0762              1531.8725              1532.4107
 Red. masses --      1.0437                 1.0653                 1.0669
 Frc consts  --      1.4378                 1.4729                 1.4761
 IR Inten    --      5.9929                 1.7809                 3.1488

                     94                     95                     96
                      A                      A                      A
 Frequencies --   1534.6613              1542.6937              1543.7957
 Red. masses --      1.0794                 1.0514                 1.0572
 Frc consts  --      1.4979                 1.4743                 1.4845
 IR Inten    --      2.6082                 5.8030                 1.6340

                     97                     98                     99
                      A                      A                      A
 Frequencies --   1544.7492              1777.5422              2993.6350
 Red. masses --      1.0543                 5.3900                 1.0824
 Frc consts  --      1.4823                10.0342                 5.7153
 IR Inten    --     11.0488               480.4786                19.5934

                    100                    101                    102
                      A                      A                      A
 Frequencies --   3032.6635              3035.0361              3037.4740
 Red. masses --      1.0697                 1.0414                 1.0489
 Frc consts  --      5.7965                 5.6520                 5.7020
 IR Inten    --     14.5455                49.4728                11.9270

                    103                    104                    105
                      A                      A                      A
 Frequencies --   3039.3977              3042.5643              3045.4700
 Red. masses --      1.0507                 1.0625                 1.0386
 Frc consts  --      5.7188                 5.7951                 5.6758
 IR Inten    --     22.3596                21.7971                17.3846

                    106                    107                    108
                      A                      A                      A
 Frequencies --   3046.1873              3050.5265              3050.7747
 Red. masses --      1.0573                 1.0383                 1.0382
 Frc consts  --      5.7805                 5.6930                 5.6932
 IR Inten    --     46.6635                42.3077                25.1557

                    109                    110                    111
                      A                      A                      A
 Frequencies --   3060.0333              3073.8604              3074.4648
 Red. masses --      1.0818                 1.0947                 1.0880
 Frc consts  --      5.9682                 6.0940                 6.0593
 IR Inten    --     56.4318                22.5876                37.8274

                    112                    113                    114
                      A                      A                      A
 Frequencies --   3078.0868              3085.3601              3088.5819
 Red. masses --      1.1006                 1.0989                 1.1030
 Frc consts  --      6.1438                 6.1634                 6.1996
 IR Inten    --     31.7972                32.7593                44.8185

                    115                    116                    117
                      A                      A                      A
 Frequencies --   3104.1951              3104.9305              3106.8164
 Red. masses --      1.0949                 1.1010                 1.1018
 Frc consts  --      6.2162                 6.2537                 6.2659
 IR Inten    --     15.0983                34.5543                55.8587

                    118                    119                    120
                      A                      A                      A
 Frequencies --   3109.1043              3112.6309              3121.0271
 Red. masses --      1.1023                 1.1008                 1.1003
 Frc consts  --      6.2779                 6.2836                 6.3146
 IR Inten    --     40.3913                 5.1993                60.6134

                    121                    122                    123
                      A                      A                      A
 Frequencies --   3125.3105              3136.2260              3137.9054
 Red. masses --      1.1007                 1.1028                 1.1014
 Frc consts  --      6.3343                 6.3910                 6.3899
 IR Inten    --     51.4786                24.6439                21.9496

                    124                    125                    126
                      A                      A                      A
 Frequencies --   3149.3774              3575.7322              3599.3041
 Red. masses --      1.1007                 1.0751                 1.0749
 Frc consts  --      6.4326                 8.0989                 8.2045
 IR Inten    --     25.7048                20.8458                33.2894

 - Thermochemistry -
 -------------------
 Temperature   298.150 Kelvin.  Pressure   1.00000 Atm.
 Atom     1 has atomic number  6 and mass  12.00000

 Molecular mass:   228.22016 amu.
 Principal axes and moments of inertia in atomic units:
                           1         2         3
     Eigenvalues --  3120.035935494.297957257.64326
           X            0.99969  -0.02494  -0.00261
           Y            0.02492   0.99966  -0.00772
           Z            0.00280   0.00765   0.99997
 This molecule is an asymmetric top.
 Rotational symmetry number  1.
 Warning -- assumption of classical behavior for rotation
           may cause significant error
 Rotational temperatures (Kelvin)      0.02776     0.01576     0.01193
 Rotational constants (GHZ):           0.57844     0.32848     0.24867
 Zero-point vibrational energy    1067682.8 (Joules/Mol)
                                  255.18233 (Kcal/Mol)
 Warning -- explicit consideration of  30 degrees of freedom as
           vibrations may cause significant error
 Vibrational temperatures:     21.88    34.92    48.63    63.71    84.22
          (Kelvin)             89.43   108.51   119.59   142.50   155.08
                              184.58   201.07   257.99   326.31   347.56
                              354.09   367.07   402.36   439.92   468.99
                              479.70   500.07   537.82   596.36   624.19
                              669.62   681.18   708.57   788.34   808.94
                              931.15   954.32  1015.57  1134.64  1139.60
                             1145.71  1203.27  1212.62  1233.97  1250.03
                             1284.00  1313.15  1365.11  1378.64  1391.41
                             1399.78  1416.38  1436.68  1462.83  1478.68
                             1510.72  1569.64  1591.92  1611.26  1642.20
                             1673.10  1704.35  1721.19  1736.61  1758.74
                             1778.98  1787.45  1792.92  1855.25  1880.28
                             1940.23  1945.56  1954.45  1973.25  1989.08
                             1997.25  2017.64  2021.22  2027.54  2044.86
                             2052.48  2055.03  2070.56  2073.54  2081.72
                             2082.00  2132.62  2152.07  2172.06  2183.14
                             2185.14  2188.33  2191.57  2196.16  2199.60
                             2200.00  2204.02  2204.80  2208.04  2219.59
                             2221.18  2222.55  2557.49  4307.17  4363.33
                             4366.74  4370.25  4373.02  4377.57  4381.75
                             4382.78  4389.03  4389.38  4402.71  4422.60
                             4423.47  4428.68  4439.15  4443.78  4466.24
                             4467.30  4470.02  4473.31  4478.38  4490.46
                             4496.62  4512.33  4514.75  4531.25  5144.68
                             5178.60

 Zero-point correction=                           0.406659 (Hartree/Particle)
 Thermal correction to Energy=                    0.427331
 Thermal correction to Enthalpy=                  0.428275
 Thermal correction to Gibbs Free Energy=         0.354422
 Sum of electronic and zero-point Energies=           -696.687339
 Sum of electronic and thermal Energies=              -696.666667
 Sum of electronic and thermal Enthalpies=            -696.665723
 Sum of electronic and thermal Free Energies=         -696.739576

                     E (Thermal)             CV                S
                      KCal/Mol        Cal/Mol-Kelvin    Cal/Mol-Kelvin
 Total                  268.154             74.347            155.437
 Electronic               0.000              0.000              0.000
 Translational            0.889              2.981             42.178
 Rotational               0.889              2.981             33.186
 Vibrational            266.377             68.386             80.073
 Vibration     1          0.593              1.986              7.179
 Vibration     2          0.593              1.985              6.250
 Vibration     3          0.594              1.983              5.593
 Vibration     4          0.595              1.980              5.058
 Vibration     5          0.596              1.974              4.506
 Vibration     6          0.597              1.972              4.387
 Vibration     7          0.599              1.965              4.007
 Vibration     8          0.600              1.961              3.816
 Vibration     9          0.604              1.950              3.473
 Vibration    10          0.606              1.943              3.308
 Vibration    11          0.611              1.925              2.972
 Vibration    12          0.615              1.914              2.807
 Vibration    13          0.629              1.868              2.336
 Vibration    14          0.650              1.800              1.904
 Vibration    15          0.658              1.777              1.791
 Vibration    16          0.661              1.769              1.758
 Vibration    17          0.665              1.754              1.695
 Vibration    18          0.680              1.711              1.536
 Vibration    19          0.696              1.663              1.385
 Vibration    20          0.710              1.624              1.280
 Vibration    21          0.715              1.609              1.244
 Vibration    22          0.725              1.580              1.177
 Vibration    23          0.745              1.526              1.064
 Vibration    24          0.778              1.439              0.911
 Vibration    25          0.795              1.396              0.846
 Vibration    26          0.823              1.327              0.751
 Vibration    27          0.830              1.309              0.728
 Vibration    28          0.848              1.267              0.677
 Vibration    29          0.903              1.144              0.548
 Vibration    30          0.918              1.113              0.519

                           ! Non-Optimized Parameters !
 Normal termination of Gaussian 16 at Fri Dec 11 00:11:48 2020.

 ----------------------------------------------------------------------
 # B3LYP/6-311++G(d,p) empiricaldispersion=gd3bj scf=xqc pop=npa geom=c
 heck
 ----------------------------------------------------------------------

 ---------------------------------------
 CID_144624912_JID_6473_Energie_neutraal
 ---------------------------------------
 Structure from the checkpoint file:  "JID_6473.chk"
 Charge =  0 Multiplicity = 1

 SCF Done:  E(RB3LYP) =  -697.298582865     A.U. after   13 cycles
 Normal termination of Gaussian 16 at Fri Dec 11 00:20:29 2020.

 ----------------------------------------------------------------------
 # B3LYP/6-311++G(d,p) empiricaldispersion=gd3bj scf=xqc pop=npa geom=c
 heck
 ----------------------------------------------------------------------

 -------------------------------------
 CID_144624912_JID_6473_Energie_kation
 -------------------------------------
 Structure from the checkpoint file:  "JID_6473.chk"
 Charge =  1 Multiplicity = 2

 SCF Done:  E(UB3LYP) =  -696.975612318     A.U. after   33 cycles
 SCF Done:  E(UB3LYP) =  -696.982755578     a.u. after   16 cycles
 Normal termination of Gaussian 16 at Fri Dec 11 03:50:43 2020.
 Gaussian 16:  ES64L-G16RevA.03 25-Dec-2016

 ----------------------------------------------------------------------
 # B3LYP/6-311++G(d,p) empiricaldispersion=gd3bj scf=xqc pop=npa geom=c
 heck
 ----------------------------------------------------------------------

 ------------------------------------
 CID_144624912_JID_6473_Energie_anion
 ------------------------------------
 Structure from the checkpoint file:  "JID_6473.chk"
 Charge = -1 Multiplicity = 2

                         Standard orientation:
 ---------------------------------------------------------------------
 Center     Atomic      Atomic             Coordinates (Angstroms)
 Number     Number       Type             X           Y           Z
 ---------------------------------------------------------------------
      1          6           0       -2.624389    2.571411   -0.175285
      2          6           0       -2.073826    3.992312   -0.056317
      3          6           0       -3.866564   -1.384564    0.870700
      4          6           0       -2.504245   -1.820434    0.326580
      5          6           0       -2.267351   -1.269089   -1.088697
      6          6           0       -0.879605   -1.634983   -1.635384
      7          6           0        0.263465   -1.235524   -0.687945
      8          6           0        0.011854   -1.810941    0.717803
      9          6           0       -1.360268   -1.398800    1.262859
     10          7           0        0.384301    0.231782   -0.697505
     11          6           0        1.083743    1.023460    0.197372
     12          8           0        0.674580    2.141641    0.511067
     13          7           0        2.260370    0.528991    0.738801
     14          6           0        3.242841   -0.340517    0.073806
     15          6           0        3.608592    0.145901   -1.332996
     16          6           0        4.470388   -0.431163    0.981183
     17          1           0       -2.137579    1.913738    0.551955
     18          1           0       -2.437191    2.161515   -1.176557
     19          1           0       -3.707197    2.530453   -0.005579
     20          1           0       -2.295692    4.417976    0.929067
     21          1           0       -0.987350    3.982639   -0.176474
     22          1           0       -2.508971    4.657001   -0.812021
     23          1           0       -3.918392   -0.291723    0.953151
     24          1           0       -4.681608   -1.709213    0.213040
     25          1           0       -4.049146   -1.803785    1.867022
     26          1           0       -2.491085   -2.920491    0.261467
     27          1           0       -3.038580   -1.646250   -1.772062
     28          1           0       -2.396303   -0.178463   -1.066900
     29          1           0       -0.716567   -1.177085   -2.618838
     30          1           0       -0.825358   -2.721664   -1.778161
     31          1           0        1.187826   -1.662105   -1.092116
     32          1           0        0.805780   -1.487663    1.398445
     33          1           0        0.069434   -2.906578    0.650368
     34          1           0       -1.386053   -0.308699    1.398532
     35          1           0       -1.512560   -1.837095    2.257057
     36          1           0       -0.464362    0.719801   -0.955203
     37          1           0        2.677070    1.257727    1.307334
     38          1           0        2.815717   -1.346149    0.000698
     39          1           0        4.080140    1.134439   -1.284133
     40          1           0        4.311265   -0.547388   -1.809520
     41          1           0        2.717392    0.224944   -1.962137
     42          1           0        4.194054   -0.789001    1.978393
     43          1           0        5.208855   -1.118772    0.557812
     44          1           0        4.949312    0.550946    1.085677
 ---------------------------------------------------------------------

 SCF Done:  E(UB3LYP) =  -697.287416064     A.U. after   32 cycles

 The electronic state is 2-A.
 Alpha  occ. eigenvalues --  -18.98364 -14.23137 -14.23050 -10.19644 -10.12039
 Alpha  occ. eigenvalues --  -10.11447 -10.07906 -10.07476 -10.07340 -10.07307
 Alpha  occ. eigenvalues --  -10.07138 -10.06902 -10.06896 -10.06752 -10.06728
 Alpha  occ. eigenvalues --  -10.06567  -0.94958  -0.83466  -0.81446  -0.73621
 Alpha  occ. eigenvalues --   -0.68352  -0.66821  -0.66477  -0.65228  -0.60147
 Alpha  occ. eigenvalues --   -0.58967  -0.53001  -0.52820  -0.52201  -0.50737
 Alpha  occ. eigenvalues --   -0.49610  -0.46354  -0.41069  -0.39820  -0.38491
 Alpha  occ. eigenvalues --   -0.37699  -0.36836  -0.35259  -0.34974  -0.34854
 Alpha  occ. eigenvalues --   -0.34345  -0.33606  -0.32698  -0.32178  -0.31365
 Alpha  occ. eigenvalues --   -0.30529  -0.29497  -0.29212  -0.28826  -0.28494
 Alpha  occ. eigenvalues --   -0.28115  -0.26846  -0.26573  -0.26103  -0.25991
 Alpha  occ. eigenvalues --   -0.25507  -0.25216  -0.24821  -0.22690  -0.21609
 Alpha  occ. eigenvalues --   -0.20968  -0.17740  -0.16098  -0.15216   0.04093
 Alpha virt. eigenvalues --    0.05966   0.06679   0.07069   0.07680   0.08184
 Alpha virt. eigenvalues --    0.08470   0.08766   0.09548   0.10031   0.10331
 Alpha virt. eigenvalues --    0.10452   0.11052   0.11166   0.11495   0.12046

  Beta  occ. eigenvalues --  -18.98363 -14.23131 -14.23045 -10.19643 -10.12026
  Beta  occ. eigenvalues --  -10.11440 -10.07895 -10.07451 -10.07300 -10.07296
  Beta  occ. eigenvalues --  -10.07133 -10.06889 -10.06889 -10.06750 -10.06710
  Beta  occ. eigenvalues --  -10.06538  -0.94954  -0.83454  -0.81428  -0.73596
  Beta  occ. eigenvalues --   -0.68317  -0.66791  -0.66471  -0.65195  -0.60083
  Beta  occ. eigenvalues --   -0.58938  -0.52966  -0.52808  -0.52145  -0.50691
  Beta  occ. eigenvalues --   -0.49577  -0.46317  -0.41045  -0.39780  -0.38454
  Beta  occ. eigenvalues --   -0.37672  -0.36789  -0.35232  -0.34954  -0.34849
  Beta  occ. eigenvalues --   -0.34322  -0.33588  -0.32680  -0.32152  -0.31341
  Beta  occ. eigenvalues --   -0.30502  -0.29461  -0.29177  -0.28792  -0.28462
  Beta  occ. eigenvalues --   -0.28105  -0.26818  -0.26546  -0.26072  -0.25973
  Beta  occ. eigenvalues --   -0.25498  -0.25182  -0.24785  -0.22655  -0.21580
  Beta  occ. eigenvalues --   -0.20940  -0.17735  -0.16085  -0.15208
  Beta virt. eigenvalues --    0.06089   0.06677   0.06970   0.07585   0.08130
  Beta virt. eigenvalues --    0.08649   0.08868   0.09068   0.09628   0.10326
  Beta virt. eigenvalues --    0.10634   0.10721   0.11337   0.11404   0.11711

 Mulliken charges and spin densities:
               1          2
     1  C   -0.221029  -0.029354
     2  C   -0.482016  -0.052572
     3  C   -0.265828  -0.498791
     4  C    0.605687  -0.397754
     5  C   -0.081593  -0.066244
     6  C    0.281169  -1.095653
     7  C   -0.123266   0.461719
     8  C    0.032681  -0.707835
     9  C   -0.300866  -0.039960
    10  N   -0.042728  -0.044579
    11  C    0.248902  -0.431127
    12  O   -0.310358   0.002724
    13  N   -0.188956   0.099177
    14  C   -1.139515   1.010413
    15  C    0.461443  -0.924634
    16  C    0.924372  -1.392304
    17  H    0.311135  -0.153699
    18  H   -0.062566   0.169116
    19  H    0.075679   0.046178
    20  H    0.095105   0.017940
    21  H    0.182421   0.011038
    22  H    0.085892   0.021515
    23  H    0.126118   0.000430
    24  H   -0.077280   0.207342
    25  H   -0.000472   0.128911
    26  H   -0.056717   0.240627
    27  H   -0.202668   0.408165
    28  H    0.188861  -0.126783
    29  H   -0.261677   0.443140
    30  H   -0.231634   0.409410
    31  H   -0.262134   0.494360
    32  H    0.276668  -0.095889
    33  H   -0.537597   0.718671
    34  H   -0.053517   0.280887
    35  H    0.020717   0.161877
    36  H    0.594624  -0.251940
    37  H    0.248677   0.047769
    38  H    0.099215   0.066521
    39  H    0.111328   0.031445
    40  H   -0.374486   0.528177
    41  H   -0.013007   0.167877
    42  H   -0.301995   0.458452
    43  H   -0.311581   0.476074
    44  H   -0.067207   0.199162
 Sum of Mulliken charges =  -1.00000   1.00000

 Dipole moment (field-independent basis, Debye):
    X=             -3.7526    Y=              5.0429    Z=              1.3774  Tot=              6.4350
 Quadrupole moment (field-independent basis, Debye-Ang):
   XX=           -181.4818   YY=           -164.9855   ZZ=           -143.1654
   XY=              3.7976   XZ=             -1.1896   YZ=             -5.2914

 Summary of Natural Population Analysis:

                                       Natural Population
                Natural  -----------------------------------------------
    Atom  No    Charge         Core      Valence    Rydberg      Total
 -----------------------------------------------------------------------
      C    1   -0.28748      0.99968     2.28312    0.00468     3.28748
      C    2   -0.28890      0.99968     2.28485    0.00437     3.28890
      C    3   -0.28115      0.99965     2.27676    0.00473     3.28115
      C    4   -0.11203      0.99959     2.10242    0.01002     3.11203
      C    5   -0.19286      0.99960     2.18345    0.00981     3.19286
      C    6   -0.18976      0.99961     2.18039    0.00976     3.18976
      C    7   -0.01141      0.99957     1.99781    0.01403     3.01141
      C    8   -0.19739      0.99960     2.18890    0.00888     3.19739
      C    9   -0.19138      0.99961     2.18225    0.00953     3.19138
      N   10   -0.34014      0.99967     2.83117    0.00931     3.84014
      C   11    0.41226      0.99970     1.56526    0.02278     2.58774
      O   12   -0.34790      0.99988     3.34285    0.00518     4.34790
      N   13   -0.33519      0.99967     2.82589    0.00963     3.83519
      C   14   -0.01720      0.99961     2.00615    0.01145     3.01720
      C   15   -0.29255      0.99964     2.28730    0.00560     3.29255
      C   16   -0.28547      0.99965     2.27961    0.00622     3.28547
      H   17    0.10273      0.00000     0.39588    0.00139     0.39727
      H   18    0.09170      0.00000     0.40713    0.00117     0.40830
      H   19    0.09105      0.00000     0.40793    0.00103     0.40895
      H   20    0.09167      0.00000     0.40727    0.00106     0.40833
      H   21    0.11165      0.00000     0.38723    0.00112     0.38835
      H   22    0.08811      0.00000     0.41083    0.00105     0.41189
      H   23    0.09638      0.00000     0.40258    0.00104     0.40362
      H   24    0.09815      0.00000     0.40096    0.00089     0.40185
      H   25    0.09763      0.00000     0.40152    0.00085     0.40237
      H   26    0.09350      0.00000     0.40445    0.00205     0.40650
      H   27    0.10190      0.00000     0.39701    0.00109     0.39810
      H   28    0.09151      0.00000     0.40650    0.00200     0.40849
      H   29    0.10192      0.00000     0.39693    0.00115     0.39808
      H   30    0.10510      0.00000     0.39304    0.00186     0.39490
      H   31    0.09909      0.00000     0.39819    0.00272     0.40091
      H   32    0.10677      0.00000     0.39175    0.00149     0.39323
      H   33    0.10114      0.00000     0.39716    0.00170     0.39886
      H   34    0.09595      0.00000     0.40236    0.00168     0.40405
      H   35    0.09983      0.00000     0.39931    0.00085     0.40017
      H   36    0.19411      0.00000     0.30284    0.00305     0.30589
      H   37    0.19140      0.00000     0.30638    0.00222     0.30860
      H   38    0.09518      0.00000     0.40182    0.00300     0.40482
      H   39    0.09640      0.00000     0.40267    0.00093     0.40360
      H   40    0.10345      0.00000     0.39543    0.00113     0.39655
      H   41    0.10674      0.00000     0.39202    0.00125     0.39326
      H   42    0.10372      0.00000     0.39506    0.00122     0.39628
      H   43    0.10730      0.00000     0.39128    0.00142     0.39270
      H   44    0.09449      0.00000     0.40443    0.00108     0.40551
 =======================================================================
   * Total *   -0.00000     15.99440    47.81815    0.18745    64.00000

 Normal termination of Gaussian 16 at Fri Dec 11 04:19:10 2020.
