 Gaussian 16, Revision A.03,

 -----------------------------------------------------------
 # opt freq B3LYP/6-31G(d) empiricaldispersion=gd3bj scf=xqc
 -----------------------------------------------------------

 -------------------------------
 CID_154229346_JID_5704_neutraal
 -------------------------------
 Symbolic Z-matrix:
 Charge =  0 Multiplicity = 1

 SCF Done:  E(RB3LYP) =  -709.885266432     A.U. after   14 cycles
 SCF Done:  E(RB3LYP) =  -709.892676789     A.U. after   13 cycles
 SCF Done:  E(RB3LYP) =  -709.893431401     A.U. after   12 cycles
 SCF Done:  E(RB3LYP) =  -709.893733353     A.U. after   12 cycles
 SCF Done:  E(RB3LYP) =  -709.893862602     A.U. after   12 cycles
 SCF Done:  E(RB3LYP) =  -709.893983772     A.U. after   11 cycles
 SCF Done:  E(RB3LYP) =  -709.894035746     A.U. after   10 cycles
 SCF Done:  E(RB3LYP) =  -709.894067601     A.U. after   11 cycles
 SCF Done:  E(RB3LYP) =  -709.894075843     A.U. after   10 cycles
 SCF Done:  E(RB3LYP) =  -709.894079737     A.U. after    8 cycles
 SCF Done:  E(RB3LYP) =  -709.894080701     A.U. after    8 cycles
 SCF Done:  E(RB3LYP) =  -709.894080762     A.U. after    8 cycles
 SCF Done:  E(RB3LYP) =  -709.894080779     A.U. after    8 cycles
 SCF Done:  E(RB3LYP) =  -709.894080779     A.U. after    7 cycles
 Optimization completed.
    -- Stationary point found.
 Normal termination of Gaussian 16 at Thu Dec 10 16:45:02 2020.

 --------------------------------------------------------------------
 #N Geom=AllCheck Guess=TCheck SCRF=Check GenChk RB3LYP/6-31G(d) Freq
 --------------------------------------------------------------------

 Structure from the checkpoint file:  "JID_5704.chk"
 -------------------------------
 CID_154229346_JID_5704_neutraal
 -------------------------------
 Charge =  0 Multiplicity = 1

 SCF Done:  E(RB3LYP) =  -709.894080779     A.U. after    1 cycles

  Exact polarizability: 142.000   0.158 114.400  -3.227  -3.365 110.195
 Approx polarizability: 170.743   5.198 170.811  -4.086 -17.912 180.447

                      1                      2                      3
                      A                      A                      A
 Frequencies --     25.6237                49.1644                71.9400
 Red. masses --      4.7005                 3.4263                 3.4302
 Frc consts  --      0.0018                 0.0049                 0.0105
 IR Inten    --      0.9753                 0.5396                 0.2372

                      4                      5                      6
                      A                      A                      A
 Frequencies --     91.0348               101.6436               113.0370
 Red. masses --      5.2611                 2.5413                 3.8332
 Frc consts  --      0.0257                 0.0155                 0.0289
 IR Inten    --      2.6491                 1.3827                 0.0627

                      7                      8                      9
                      A                      A                      A
 Frequencies --    172.6381               199.2190               230.4722
 Red. masses --      3.7185                 1.8116                 3.3287
 Frc consts  --      0.0653                 0.0424                 0.1042
 IR Inten    --      2.7967                 0.4531                 3.1887

                     10                     11                     12
                      A                      A                      A
 Frequencies --    250.5773               266.5082               309.0089
 Red. masses --      1.6822                 3.6907                 2.4531
 Frc consts  --      0.0622                 0.1544                 0.1380
 IR Inten    --      3.7972                 6.5439                 3.0112

                     13                     14                     15
                      A                      A                      A
 Frequencies --    352.2741               358.9167               409.0705
 Red. masses --      2.8204                 3.2986                 4.1153
 Frc consts  --      0.2062                 0.2504                 0.4057
 IR Inten    --      9.2518                12.0965                 6.3519

                     16                     17                     18
                      A                      A                      A
 Frequencies --    439.4568               449.9590               519.2475
 Red. masses --      3.3935                 3.2951                 4.3924
 Frc consts  --      0.3861                 0.3931                 0.6978
 IR Inten    --      6.2884                 0.3517                 0.1240

                     19                     20                     21
                      A                      A                      A
 Frequencies --    569.4197               577.6331               645.4674
 Red. masses --      3.4040                 3.1361                 3.7577
 Frc consts  --      0.6503                 0.6165                 0.9224
 IR Inten    --      7.9147                 1.4550                 0.9096

                     22                     23                     24
                      A                      A                      A
 Frequencies --    681.8114               718.4675               780.1171
 Red. masses --      3.3677                 3.6824                 2.5996
 Frc consts  --      0.9224                 1.1200                 0.9321
 IR Inten    --      1.7512                 2.4214                 0.5542

                     25                     26                     27
                      A                      A                      A
 Frequencies --    795.8057               822.4813               839.3249
 Red. masses --      1.4017                 1.6268                 2.5216
 Frc consts  --      0.5230                 0.6484                 1.0466
 IR Inten    --      1.8839                24.2560                13.5723

                     28                     29                     30
                      A                      A                      A
 Frequencies --    866.2921               876.4320               899.5154
 Red. masses --      2.5201                 2.7254                 2.1241
 Frc consts  --      1.1143                 1.2334                 1.0126
 IR Inten    --     10.5498                17.9689                51.3434

                     31                     32                     33
                      A                      A                      A
 Frequencies --    914.7179               921.4904               943.8536
 Red. masses --      2.2468                 2.5920                 2.2474
 Frc consts  --      1.1076                 1.2968                 1.1796
 IR Inten    --      2.0061                 9.6225                22.8523

                     34                     35                     36
                      A                      A                      A
 Frequencies --    953.6849               986.9395              1040.7538
 Red. masses --      2.8876                 2.1474                 2.4496
 Frc consts  --      1.5474                 1.2324                 1.5633
 IR Inten    --     12.0822                13.2286                 6.1778

                     37                     38                     39
                      A                      A                      A
 Frequencies --   1047.2586              1054.0747              1080.4416
 Red. masses --      1.8774                 2.9372                 2.0711
 Frc consts  --      1.2131                 1.9228                 1.4245
 IR Inten    --      7.9532                15.8632                13.1441

                     40                     41                     42
                      A                      A                      A
 Frequencies --   1086.1727              1126.1583              1132.3673
 Red. masses --      2.3725                 2.5703                 1.9536
 Frc consts  --      1.6491                 1.9205                 1.4759
 IR Inten    --     53.6706                 7.8165                23.1974

                     43                     44                     45
                      A                      A                      A
 Frequencies --   1151.2317              1163.9958              1199.2610
 Red. masses --      2.2527                 2.0242                 1.4731
 Frc consts  --      1.7591                 1.6158                 1.2483
 IR Inten    --      5.2602                 3.0999                60.4361

                     46                     47                     48
                      A                      A                      A
 Frequencies --   1202.4585              1217.1934              1239.2825
 Red. masses --      1.7640                 2.1071                 1.4465
 Frc consts  --      1.5028                 1.8393                 1.3089
 IR Inten    --    154.7872               251.1431                 5.9874

                     49                     50                     51
                      A                      A                      A
 Frequencies --   1247.8584              1257.3605              1263.4021
 Red. masses --      1.3885                 1.3393                 1.5577
 Frc consts  --      1.2739                 1.2475                 1.4650
 IR Inten    --     22.9554                20.8048                53.9980

                     52                     53                     54
                      A                      A                      A
 Frequencies --   1300.0233              1313.8670              1343.4064
 Red. masses --      1.4103                 1.3815                 1.1281
 Frc consts  --      1.4043                 1.4051                 1.1995
 IR Inten    --      3.9885                 5.4377                 9.9786

                     55                     56                     57
                      A                      A                      A
 Frequencies --   1347.4762              1359.7371              1368.8797
 Red. masses --      1.5303                 1.3309                 1.3237
 Frc consts  --      1.6371                 1.4498                 1.4614
 IR Inten    --      5.9898                 0.3863                 5.3584

                     58                     59                     60
                      A                      A                      A
 Frequencies --   1378.8903              1399.0089              1403.1746
 Red. masses --      1.2962                 1.4597                 1.6948
 Frc consts  --      1.4521                 1.6832                 1.9660
 IR Inten    --      5.1859                40.4449                23.0932

                     61                     62                     63
                      A                      A                      A
 Frequencies --   1423.8714              1436.9266              1447.4552
 Red. masses --      1.3787                 1.4019                 1.4392
 Frc consts  --      1.6469                 1.7054                 1.7765
 IR Inten    --     19.9219                15.2119                 8.6405

                     64                     65                     66
                      A                      A                      A
 Frequencies --   1489.3179              1493.4833              1516.0213
 Red. masses --      1.0921                 1.2012                 1.0533
 Frc consts  --      1.4272                 1.5786                 1.4263
 IR Inten    --     10.1221                 7.8486                 6.9314

                     67                     68                     69
                      A                      A                      A
 Frequencies --   1519.2159              1524.3396              1525.9227
 Red. masses --      1.0801                 1.0855                 1.0938
 Frc consts  --      1.4688                 1.4860                 1.5005
 IR Inten    --      3.7892                 4.2479                 5.1011

                     70                     71                     72
                      A                      A                      A
 Frequencies --   1538.3296              1541.8578              1809.0977
 Red. masses --      1.0578                 1.0941                10.9730
 Frc consts  --      1.4748                 1.5324                21.1592
 IR Inten    --      6.4573                 2.5502                77.3809

                     73                     74                     75
                      A                      A                      A
 Frequencies --   1831.2642              2985.6645              3032.6226
 Red. masses --     11.6030                 1.0809                 1.0713
 Frc consts  --     22.9257                 5.6772                 5.8047
 IR Inten    --    239.1608                12.9649                11.6023

                     76                     77                     78
                      A                      A                      A
 Frequencies --   3038.8594              3050.4543              3062.6759
 Red. masses --      1.0694                 1.0798                 1.0362
 Frc consts  --      5.8186                 5.9200                 5.7266
 IR Inten    --     12.6296                32.8035                17.0604

                     79                     80                     81
                      A                      A                      A
 Frequencies --   3068.4849              3086.6060              3089.4858
 Red. masses --      1.0638                 1.0610                 1.0851
 Frc consts  --      5.9016                 5.9559                 6.1020
 IR Inten    --     46.9858                32.7799                16.9160

                     82                     83                     84
                      A                      A                      A
 Frequencies --   3096.1734              3108.1846              3112.2859
 Red. masses --      1.0591                 1.0962                 1.1042
 Frc consts  --      5.9819                 6.2398                 6.3017
 IR Inten    --     23.0868                20.9143                 9.4420

                     85                     86                     87
                      A                      A                      A
 Frequencies --   3128.8369              3133.6381              3135.9570
 Red. masses --      1.1015                 1.1065                 1.0945
 Frc consts  --      6.3535                 6.4015                 6.3417
 IR Inten    --     23.4631                36.5135                11.8094

                     88                     89                     90
                      A                      A                      A
 Frequencies --   3141.9345              3161.5845              3439.6851
 Red. masses --      1.1046                 1.1077                 1.0738
 Frc consts  --      6.4247                 6.5232                 7.4852
 IR Inten    --      5.6291                28.2027                 3.2009

 - Thermochemistry -
 -------------------
 Temperature   298.150 Kelvin.  Pressure   1.00000 Atm.
 Atom     1 has atomic number  6 and mass  12.00000

 Molecular mass:   211.12084 amu.
 Principal axes and moments of inertia in atomic units:
                           1         2         3
     Eigenvalues --  1689.355344821.375945446.40555
           X            0.99995  -0.00892   0.00485
           Y            0.00875   0.99936   0.03460
           Z           -0.00516  -0.03455   0.99939
 This molecule is an asymmetric top.
 Rotational symmetry number  1.
 Warning -- assumption of classical behavior for rotation
           may cause significant error
 Rotational temperatures (Kelvin)      0.05127     0.01796     0.01590
 Rotational constants (GHZ):           1.06830     0.37432     0.33136
 Zero-point vibrational energy     729107.3 (Joules/Mol)
                                  174.26082 (Kcal/Mol)
 Warning -- explicit consideration of  20 degrees of freedom as
           vibrations may cause significant error
 Vibrational temperatures:     36.87    70.74   103.51   130.98   146.24
          (Kelvin)            162.64   248.39   286.63   331.60   360.52
                              383.45   444.59   506.84   516.40   588.56
                              632.28   647.39   747.08   819.27   831.09
                              928.68   980.97  1033.71  1122.41  1144.99
                             1183.37  1207.60  1246.40  1260.99  1294.20
                             1316.07  1325.82  1357.99  1372.14  1419.99
                             1497.41  1506.77  1516.58  1554.51  1562.76
                             1620.29  1629.22  1656.37  1674.73  1725.47
                             1730.07  1751.27  1783.05  1795.39  1809.06
                             1817.75  1870.44  1890.36  1932.86  1938.72
                             1956.36  1969.51  1983.92  2012.86  2018.86
                             2048.63  2067.42  2082.57  2142.80  2148.79
                             2181.22  2185.81  2193.18  2195.46  2213.31
                             2218.39  2602.89  2634.78  4295.71  4363.27
                             4372.24  4388.92  4406.51  4414.87  4440.94
                             4445.08  4454.70  4471.98  4477.89  4501.70
                             4508.61  4511.94  4520.54  4548.81  4948.94

 Zero-point correction=                           0.277702 (Hartree/Particle)
 Thermal correction to Energy=                    0.291931
 Thermal correction to Enthalpy=                  0.292875
 Thermal correction to Gibbs Free Energy=         0.235359
 Sum of electronic and zero-point Energies=           -709.616378
 Sum of electronic and thermal Energies=              -709.602150
 Sum of electronic and thermal Enthalpies=            -709.601205
 Sum of electronic and thermal Free Energies=         -709.658722

                     E (Thermal)             CV                S
                      KCal/Mol        Cal/Mol-Kelvin    Cal/Mol-Kelvin
 Total                  183.190             53.894            121.053
 Electronic               0.000              0.000              0.000
 Translational            0.889              2.981             41.945
 Rotational               0.889              2.981             32.162
 Vibrational            181.412             47.933             46.946
 Vibration     1          0.593              1.985              6.142
 Vibration     2          0.595              1.978              4.851
 Vibration     3          0.598              1.967              4.100
 Vibration     4          0.602              1.956              3.638
 Vibration     5          0.604              1.948              3.423
 Vibration     6          0.607              1.939              3.216
 Vibration     7          0.626              1.876              2.407
 Vibration     8          0.637              1.841              2.140
 Vibration     9          0.652              1.794              1.875
 Vibration    10          0.663              1.762              1.727
 Vibration    11          0.672              1.735              1.619
 Vibration    12          0.698              1.657              1.368
 Vibration    13          0.729              1.571              1.156
 Vibration    14          0.734              1.557              1.127
 Vibration    15          0.773              1.451              0.930
 Vibration    16          0.799              1.384              0.828
 Vibration    17          0.809              1.361              0.796
 Vibration    18          0.874              1.207              0.612
 Vibration    19          0.925              1.097              0.505
 Vibration    20          0.934              1.080              0.490

 Optimization completed.
    -- Stationary point found.
 Normal termination of Gaussian 16 at Thu Dec 10 16:57:45 2020.

 ----------------------------------------------------------------------
 # B3LYP/6-311++G(d,p) empiricaldispersion=gd3bj scf=xqc pop=npa geom=c
 heck
 ----------------------------------------------------------------------

 ---------------------------------------
 CID_154229346_JID_5704_Energie_neutraal
 ---------------------------------------
 Structure from the checkpoint file:  "JID_5704.chk"
 Charge =  0 Multiplicity = 1

 SCF Done:  E(RB3LYP) =  -710.098975140     A.U. after   15 cycles
 Normal termination of Gaussian 16 at Thu Dec 10 17:04:13 2020.

 ----------------------------------------------------------------------
 # B3LYP/6-311++G(d,p) empiricaldispersion=gd3bj scf=xqc pop=npa geom=c
 heck
 ----------------------------------------------------------------------

 -------------------------------------
 CID_154229346_JID_5704_Energie_kation
 -------------------------------------
 Structure from the checkpoint file:  "JID_5704.chk"
 Charge =  1 Multiplicity = 2

 SCF Done:  E(UB3LYP) =  -709.790548036     A.U. after   24 cycles
 Normal termination of Gaussian 16 at Thu Dec 10 17:18:24 2020.
 Gaussian 16:  ES64L-G16RevA.03 25-Dec-2016

 ----------------------------------------------------------------------
 # B3LYP/6-311++G(d,p) empiricaldispersion=gd3bj scf=xqc pop=npa geom=c
 heck
 ----------------------------------------------------------------------

 ------------------------------------
 CID_154229346_JID_5704_Energie_anion
 ------------------------------------
 Structure from the checkpoint file:  "JID_5704.chk"
 Charge = -1 Multiplicity = 2

                         Standard orientation:
 ---------------------------------------------------------------------
 Center     Atomic      Atomic             Coordinates (Angstroms)
 Number     Number       Type             X           Y           Z
 ---------------------------------------------------------------------
      1          6           0       -4.593116    0.084158   -0.737099
      2          6           0       -3.570638   -1.026363   -0.562519
      3          8           0       -2.621394   -0.703780    0.484743
      4          6           0       -1.586673    0.085356    0.130560
      5          8           0       -1.422240    0.534931   -0.985044
      6          6           0       -0.628386    0.283619    1.292613
      7          6           0        0.330160   -0.940518    1.353257
      8          6           0        1.293656   -0.885219    0.179362
      9          6           0        2.130312    0.417372    0.207387
     10          6           0        3.206870    0.151101   -0.846207
     11          6           0        3.266523   -1.415067   -0.905132
     12          7           0        2.281779   -1.958550    0.067062
     13          6           0        1.231038    1.626380    0.088727
     14          8           0        1.374307    2.515375   -0.724269
     15          6           0        0.118846    1.630590    1.143083
     16          1           0       -5.105122    0.291698    0.208039
     17          1           0       -5.343408   -0.214426   -1.477770
     18          1           0       -4.107831    0.998546   -1.088117
     19          1           0       -4.035362   -1.955402   -0.225125
     20          1           0       -3.020150   -1.208306   -1.488555
     21          1           0       -1.223870    0.297504    2.210616
     22          1           0        0.890646   -0.905505    2.298033
     23          1           0       -0.253077   -1.866781    1.351507
     24          1           0        0.715323   -0.890704   -0.754494
     25          1           0        2.583012    0.464574    1.211969
     26          1           0        2.904861    0.580450   -1.806017
     27          1           0        4.167744    0.598612   -0.577634
     28          1           0        2.991404   -1.764457   -1.906017
     29          1           0        4.260425   -1.813581   -0.684005
     30          1           0        2.747128   -2.045322    0.972683
     31          1           0       -0.575014    2.441496    0.910319
     32          1           0        0.593902    1.860794    2.107525
 ---------------------------------------------------------------------

 SCF Done:  E(UB3LYP) =  -710.092563589     A.U. after   32 cycles

 The electronic state is 2-A.
 Alpha  occ. eigenvalues --  -19.07004 -19.00983 -18.99205 -14.19948 -10.19574
 Alpha  occ. eigenvalues --  -10.13688 -10.13642 -10.09670 -10.09608 -10.09219
 Alpha  occ. eigenvalues --  -10.07614 -10.07453 -10.06974 -10.06823 -10.06637
 Alpha  occ. eigenvalues --   -1.00876  -0.92627  -0.92109  -0.82567  -0.72830
 Alpha  occ. eigenvalues --   -0.68312  -0.66646  -0.63593  -0.61040  -0.57139
 Alpha  occ. eigenvalues --   -0.52068  -0.50021  -0.49564  -0.45882  -0.43261
 Alpha  occ. eigenvalues --   -0.40814  -0.39491  -0.38161  -0.37535  -0.36313
 Alpha  occ. eigenvalues --   -0.35603  -0.34567  -0.34263  -0.33707  -0.31790
 Alpha  occ. eigenvalues --   -0.31012  -0.30293  -0.29631  -0.29173  -0.28248
 Alpha  occ. eigenvalues --   -0.27047  -0.25596  -0.25142  -0.24668  -0.24302
 Alpha  occ. eigenvalues --   -0.23854  -0.22635  -0.21936  -0.20971  -0.17620
 Alpha  occ. eigenvalues --   -0.14830  -0.12640   0.04099
 Alpha virt. eigenvalues --    0.05853   0.07184   0.08306   0.08500   0.08879
 Alpha virt. eigenvalues --    0.09214   0.09422   0.10252   0.10672   0.10855
 Alpha virt. eigenvalues --    0.11299   0.11748   0.12538   0.12757   0.13447

  Beta  occ. eigenvalues --  -19.07003 -19.00945 -18.99093 -14.19926 -10.19522
  Beta  occ. eigenvalues --  -10.13629 -10.13575 -10.09664 -10.09599 -10.09211
  Beta  occ. eigenvalues --  -10.07586 -10.07413 -10.06968 -10.06818 -10.06632
  Beta  occ. eigenvalues --   -1.00832  -0.92427  -0.92038  -0.82532  -0.72752
  Beta  occ. eigenvalues --   -0.68259  -0.66600  -0.63551  -0.60933  -0.57072
  Beta  occ. eigenvalues --   -0.52001  -0.49932  -0.49496  -0.45832  -0.43127
  Beta  occ. eigenvalues --   -0.40740  -0.39433  -0.38062  -0.37453  -0.36228
  Beta  occ. eigenvalues --   -0.35518  -0.34474  -0.34224  -0.33612  -0.31733
  Beta  occ. eigenvalues --   -0.30943  -0.30165  -0.29583  -0.29101  -0.28125
  Beta  occ. eigenvalues --   -0.26933  -0.25544  -0.25034  -0.24504  -0.24183
  Beta  occ. eigenvalues --   -0.23796  -0.22570  -0.21786  -0.20885  -0.17563
  Beta  occ. eigenvalues --   -0.14770  -0.12569
  Beta virt. eigenvalues --    0.06371   0.07073   0.07854   0.08515   0.09067
  Beta virt. eigenvalues --    0.09273   0.09537   0.09913   0.10724   0.11041
  Beta virt. eigenvalues --    0.11167   0.11721   0.11912   0.12705   0.13056

 Mulliken charges and spin densities:
               1          2
     1  C    0.323838  -0.713404
     2  C    0.020311  -0.107062
     3  O    0.038731   0.021403
     4  C   -0.608069  -0.355137
     5  O   -0.178847   0.001768
     6  C    0.141693   0.707495
     7  C    0.753300  -1.506586
     8  C    0.065622  -0.590218
     9  C    0.228022   0.291180
    10  C   -0.342196  -0.211145
    11  C   -0.200265  -0.077152
    12  N   -0.055765   0.127861
    13  C   -0.167875   0.057738
    14  O   -0.295179   0.040725
    15  C    0.248143  -0.849643
    16  H   -0.052554   0.190469
    17  H   -0.226078   0.365211
    18  H    0.060956   0.115054
    19  H   -0.239530   0.399912
    20  H    0.199336  -0.046967
    21  H   -0.481269   0.774692
    22  H   -0.526876   0.721711
    23  H    0.191534  -0.006174
    24  H    0.140771   0.141011
    25  H   -0.339148   0.580151
    26  H    0.166398   0.002458
    27  H    0.050010   0.078583
    28  H    0.191601  -0.047553
    29  H   -0.080115   0.231722
    30  H    0.087016   0.158727
    31  H    0.185304   0.009843
    32  H   -0.298821   0.493327
 Sum of Mulliken charges =  -1.00000   1.00000

 Dipole moment (field-independent basis, Debye):
    X=              0.1713    Y=             -1.5457    Z=             -3.7521  Tot=              4.0616
 Quadrupole moment (field-independent basis, Debye-Ang):
   XX=           -151.2303   YY=           -128.2402   ZZ=           -132.6221
   XY=             -4.1134   XZ=             -7.5929   YZ=              4.9737

 Summary of Natural Population Analysis:

                                       Natural Population
                Natural  -----------------------------------------------
    Atom  No    Charge         Core      Valence    Rydberg      Total
 -----------------------------------------------------------------------
      C    1   -0.30036      0.99966     2.29594    0.00476     3.30036
      C    2   -0.01735      0.99958     2.00614    0.01163     3.01735
      O    3   -0.28220      0.99986     3.27369    0.00866     4.28220
      C    4    0.41856      0.99965     1.55488    0.02692     2.58144
      O    5   -0.30689      0.99987     3.30210    0.00493     4.30689
      C    6   -0.14893      0.99955     2.13687    0.01252     3.14893
      C    7   -0.18561      0.99958     2.17597    0.01006     3.18561
      C    8   -0.00862      0.99956     1.99642    0.01265     3.00862
      C    9   -0.16322      0.99951     2.15189    0.01182     3.16322
      C   10   -0.19997      0.99963     2.19115    0.00919     3.19997
      C   11   -0.09123      0.99965     2.08117    0.01040     3.09123
      N   12   -0.33317      0.99975     2.82191    0.01151     3.83317
      C   13    0.31539      0.99962     1.66297    0.02203     2.68461
      O   14   -0.27906      0.99987     3.27301    0.00618     4.27906
      C   15   -0.23234      0.99958     2.22270    0.01006     3.23234
      H   16    0.10107      0.00000     0.39789    0.00104     0.39893
      H   17    0.10130      0.00000     0.39760    0.00110     0.39870
      H   18    0.10702      0.00000     0.39206    0.00093     0.39298
      H   19    0.09038      0.00000     0.40843    0.00119     0.40962
      H   20    0.09386      0.00000     0.40500    0.00113     0.40614
      H   21    0.11773      0.00000     0.37995    0.00231     0.38227
      H   22    0.10704      0.00000     0.38889    0.00408     0.39296
      H   23    0.10674      0.00000     0.39193    0.00132     0.39326
      H   24    0.09585      0.00000     0.40219    0.00197     0.40415
      H   25    0.11161      0.00000     0.38439    0.00400     0.38839
      H   26    0.10530      0.00000     0.39361    0.00109     0.39470
      H   27    0.10020      0.00000     0.39896    0.00084     0.39980
      H   28    0.08757      0.00000     0.41138    0.00105     0.41243
      H   29    0.09249      0.00000     0.40664    0.00088     0.40751
      H   30    0.17019      0.00000     0.32681    0.00300     0.32981
      H   31    0.11138      0.00000     0.38761    0.00101     0.38862
      H   32    0.11528      0.00000     0.38227    0.00245     0.38472
 =======================================================================
   * Total *    0.00000     14.99491    41.80239    0.20270    57.00000

 Normal termination of Gaussian 16 at Thu Dec 10 17:35:22 2020.
