 Gaussian 16, Revision A.03,

 -----------------------------------------------------------
 # opt freq B3LYP/6-31G(d) empiricaldispersion=gd3bj scf=xqc
 -----------------------------------------------------------

 ------------------------------
 CID_54879562_JID_9811_neutraal
 ------------------------------
 Symbolic Z-matrix:
 Charge =  0 Multiplicity = 1

 SCF Done:  E(RB3LYP) =  -1161.80042677     A.U. after   15 cycles
 SCF Done:  E(RB3LYP) =  -1161.80922383     A.U. after   14 cycles
 SCF Done:  E(RB3LYP) =  -1161.81145239     A.U. after   14 cycles
 SCF Done:  E(RB3LYP) =  -1161.81177046     A.U. after   14 cycles
 SCF Done:  E(RB3LYP) =  -1161.81266237     A.U. after   13 cycles
 SCF Done:  E(RB3LYP) =  -1161.81279231     A.U. after   13 cycles
 SCF Done:  E(RB3LYP) =  -1161.81289144     A.U. after   12 cycles
 SCF Done:  E(RB3LYP) =  -1161.81290876     A.U. after   12 cycles
 SCF Done:  E(RB3LYP) =  -1161.81291074     A.U. after    8 cycles
 SCF Done:  E(RB3LYP) =  -1161.81291135     A.U. after    8 cycles
 SCF Done:  E(RB3LYP) =  -1161.81291151     A.U. after    8 cycles
 SCF Done:  E(RB3LYP) =  -1161.81291157     A.U. after    7 cycles
 Optimization completed.
    -- Stationary point found.
 Normal termination of Gaussian 16 at Sun Dec 13 20:39:46 2020.

 --------------------------------------------------------------------
 #N Geom=AllCheck Guess=TCheck SCRF=Check GenChk RB3LYP/6-31G(d) Freq
 --------------------------------------------------------------------

 Structure from the checkpoint file:  "JID_9811.chk"
 ------------------------------
 CID_54879562_JID_9811_neutraal
 ------------------------------
 Charge =  0 Multiplicity = 1

 SCF Done:  E(RB3LYP) =  -1161.81291157     A.U. after    1 cycles

  Exact polarizability: 371.759  15.002 184.695   7.661   2.660  83.065
 Approx polarizability: 525.420  21.668 374.759  16.648  12.406 135.374

                      1                      2                      3
                      A                      A                      A
 Frequencies --     28.6114                37.3857                53.3081
 Red. masses --      4.7494                 4.9432                 4.1843
 Frc consts  --      0.0023                 0.0041                 0.0070
 IR Inten    --      1.3873                 0.0214                 0.6565

                      4                      5                      6
                      A                      A                      A
 Frequencies --     70.3441                77.9755               113.6743
 Red. masses --      3.7644                 5.8651                 9.2496
 Frc consts  --      0.0110                 0.0210                 0.0704
 IR Inten    --      0.6442                 0.0390                 1.3076

                      7                      8                      9
                      A                      A                      A
 Frequencies --    160.9795               181.6376               196.5526
 Red. masses --      3.5545                 4.0699                 4.2944
 Frc consts  --      0.0543                 0.0791                 0.0977
 IR Inten    --      4.1520                 1.3844                 1.0997

                     10                     11                     12
                      A                      A                      A
 Frequencies --    209.7546               234.4511               254.3328
 Red. masses --      2.5539                 1.6909                 5.1356
 Frc consts  --      0.0662                 0.0548                 0.1957
 IR Inten    --      0.4660                 3.2811                 1.1237

                     13                     14                     15
                      A                      A                      A
 Frequencies --    319.0799               330.0992               384.9440
 Red. masses --      6.3798                 6.1014                 3.5859
 Frc consts  --      0.3827                 0.3917                 0.3131
 IR Inten    --      1.8885                 3.7694                 2.0703

                     16                     17                     18
                      A                      A                      A
 Frequencies --    420.8290               450.9500               477.2888
 Red. masses --      4.4048                 5.2153                 6.0375
 Frc consts  --      0.4596                 0.6249                 0.8103
 IR Inten    --      9.2987                 2.1152                 3.6125

                     19                     20                     21
                      A                      A                      A
 Frequencies --    497.5887               503.8241               551.9186
 Red. masses --      4.0557                 5.5998                 3.8954
 Frc consts  --      0.5916                 0.8375                 0.6991
 IR Inten    --      0.9416                 6.6875                 0.2933

                     22                     23                     24
                      A                      A                      A
 Frequencies --    553.9576               578.9154               604.7941
 Red. masses --      6.4122                 4.1013                 3.8855
 Frc consts  --      1.1593                 0.8099                 0.8374
 IR Inten    --      0.6036                12.7088                 3.0106

                     25                     26                     27
                      A                      A                      A
 Frequencies --    621.4381               642.7399               680.6848
 Red. masses --      7.0762                 5.8324                 3.4073
 Frc consts  --      1.6101                 1.4196                 0.9301
 IR Inten    --      5.5939                 1.7584                 1.7445

                     28                     29                     30
                      A                      A                      A
 Frequencies --    706.6064               736.9813               757.2762
 Red. masses --      6.9626                 4.0606                 5.7212
 Frc consts  --      2.0482                 1.2994                 1.9331
 IR Inten    --      2.3394                 9.5040                 5.4393

                     31                     32                     33
                      A                      A                      A
 Frequencies --    793.0857               805.4713               815.1074
 Red. masses --      5.8280                 2.4278                 1.3111
 Frc consts  --      2.1598                 0.9280                 0.5132
 IR Inten    --      3.0097                 8.3996                13.8275

                     34                     35                     36
                      A                      A                      A
 Frequencies --    823.6383               851.8344               883.1350
 Red. masses --      1.3542                 1.7453                 5.1015
 Frc consts  --      0.5413                 0.7462                 2.3442
 IR Inten    --     17.0072                 5.7920                 3.3566

                     37                     38                     39
                      A                      A                      A
 Frequencies --    885.3504               906.9205               913.4649
 Red. masses --      1.4008                 1.4218                 2.7496
 Frc consts  --      0.6469                 0.6890                 1.3518
 IR Inten    --     13.4371                 0.4778                56.2158

                     40                     41                     42
                      A                      A                      A
 Frequencies --    923.7167               965.8211               984.0516
 Red. masses --      1.5367                 6.4109                 1.3135
 Frc consts  --      0.7725                 3.5234                 0.7494
 IR Inten    --     20.5047                11.8335                 0.5663

                     43                     44                     45
                      A                      A                      A
 Frequencies --    985.1892              1004.0260              1017.5725
 Red. masses --      1.4494                 2.7624                 3.0873
 Frc consts  --      0.8288                 1.6407                 1.8835
 IR Inten    --      0.0178                 5.6318                 4.5808

                     46                     47                     48
                      A                      A                      A
 Frequencies --   1060.5568              1083.4348              1094.0664
 Red. masses --      2.5633                 1.7215                 1.4981
 Frc consts  --      1.6987                 1.1906                 1.0565
 IR Inten    --     30.9143                66.4702                23.4748

                     49                     50                     51
                      A                      A                      A
 Frequencies --   1125.1529              1169.3469              1201.8370
 Red. masses --      1.7061                 1.5028                 2.1875
 Frc consts  --      1.2726                 1.2107                 1.8616
 IR Inten    --      4.4654                10.9418                 0.0348

                     52                     53                     54
                      A                      A                      A
 Frequencies --   1245.9474              1254.3511              1265.3897
 Red. masses --      1.8299                 2.3583                 1.7532
 Frc consts  --      1.6737                 2.1861                 1.6539
 IR Inten    --     13.6532                33.5765                92.1201

                     55                     56                     57
                      A                      A                      A
 Frequencies --   1280.1827              1305.8074              1319.9920
 Red. masses --      2.3947                 1.7275                 1.7599
 Frc consts  --      2.3123                 1.7355                 1.8067
 IR Inten    --     18.7610                 1.5544               140.9064

                     58                     59                     60
                      A                      A                      A
 Frequencies --   1341.6467              1356.7497              1372.7293
 Red. masses --      2.6542                 1.7855                 3.4126
 Frc consts  --      2.8149                 1.9365                 3.7888
 IR Inten    --     31.9421                66.5155                 4.9978

                     61                     62                     63
                      A                      A                      A
 Frequencies --   1400.3340              1417.3071              1435.3747
 Red. masses --      3.0647                 2.3167                 1.2190
 Frc consts  --      3.5408                 2.7418                 1.4797
 IR Inten    --      6.8573                 9.1293                 4.7223

                     64                     65                     66
                      A                      A                      A
 Frequencies --   1474.7362              1482.2264              1508.0083
 Red. masses --      2.8605                 3.8278                 2.7051
 Frc consts  --      3.6654                 4.9549                 3.6245
 IR Inten    --     16.0239                13.6757               103.8326

                     67                     68                     69
                      A                      A                      A
 Frequencies --   1515.1579              1528.0194              1538.8441
 Red. masses --      1.3830                 1.0434                 1.0718
 Frc consts  --      1.8707                 1.4353                 1.4954
 IR Inten    --     70.4734                 7.2023                16.3734

                     70                     71                     72
                      A                      A                      A
 Frequencies --   1549.9199              1586.7569              1610.8612
 Red. masses --      3.3747                 5.0083                 6.7850
 Frc consts  --      4.7764                 7.4295                10.3733
 IR Inten    --      8.6404                15.8294                 1.7282

                     73                     74                     75
                      A                      A                      A
 Frequencies --   1619.0592              1673.2411              1751.9297
 Red. masses --      6.8064                 6.1953                11.3840
 Frc consts  --     10.5122                10.2195                20.5863
 IR Inten    --      3.4736                29.1090               234.8346

                     76                     77                     78
                      A                      A                      A
 Frequencies --   3059.1718              3067.0394              3117.0850
 Red. masses --      1.0344                 1.0625                 1.1016
 Frc consts  --      5.7036                 5.8888                 6.3061
 IR Inten    --     25.2645                16.5769                 0.5162

                     79                     80                     81
                      A                      A                      A
 Frequencies --   3131.7102              3139.1071              3167.6912
 Red. masses --      1.1025                 1.1040                 1.0879
 Frc consts  --      6.3708                 6.4094                 6.4318
 IR Inten    --     37.3071                36.5410                 6.5932

                     82                     83                     84
                      A                      A                      A
 Frequencies --   3185.3166              3208.0084              3214.9759
 Red. masses --      1.0952                 1.0873                 1.0911
 Frc consts  --      6.5473                 6.5929                 6.6446
 IR Inten    --     63.3192                 3.2446                 3.1493

                     85                     86                     87
                      A                      A                      A
 Frequencies --   3222.3033              3225.8530              3237.9411
 Red. masses --      1.0913                 1.0930                 1.0969
 Frc consts  --      6.6761                 6.7012                 6.7755
 IR Inten    --      7.7693                10.9400                 6.5576

 - Thermochemistry -
 -------------------
 Temperature   298.150 Kelvin.  Pressure   1.00000 Atm.
 Atom     1 has atomic number  6 and mass  12.00000

 Molecular mass:   268.06703 amu.
 Principal axes and moments of inertia in atomic units:
                           1         2         3
     Eigenvalues --  1469.51940********************
           X            0.99996   0.00892  -0.00162
           Y           -0.00893   0.99995  -0.00398
           Z            0.00158   0.00400   0.99999
 This molecule is an asymmetric top.
 Rotational symmetry number  1.
 Warning -- assumption of classical behavior for rotation
           may cause significant error
 Rotational temperatures (Kelvin)      0.05894     0.00668     0.00610
 Rotational constants (GHZ):           1.22812     0.13910     0.12712
 Zero-point vibrational energy     625302.9 (Joules/Mol)
                                  149.45098 (Kcal/Mol)
 Warning -- explicit consideration of  24 degrees of freedom as
           vibrations may cause significant error
 Vibrational temperatures:     41.17    53.79    76.70   101.21   112.19
          (Kelvin)            163.55   231.61   261.34   282.80   301.79
                              337.32   365.93   459.08   474.94   553.85
                              605.48   648.82   686.71   715.92   724.89
                              794.09   797.02   832.93   870.16   894.11
                              924.76   979.35  1016.65  1060.35  1089.55
                             1141.07  1158.89  1172.76  1185.03  1225.60
                             1270.63  1273.82  1304.86  1314.27  1329.02
                             1389.60  1415.83  1417.47  1444.57  1464.06
                             1525.90  1558.82  1574.12  1618.84  1682.43
                             1729.18  1792.64  1804.73  1820.61  1841.90
                             1878.77  1899.17  1930.33  1952.06  1975.05
                             2014.77  2039.19  2065.18  2121.82  2132.59
                             2169.69  2179.97  2198.48  2214.05  2229.99
                             2282.99  2317.67  2329.47  2407.42  2520.64
                             4401.47  4412.79  4484.79  4505.83  4516.48
                             4557.60  4582.96  4615.61  4625.63  4636.18
                             4641.28  4658.68

 Zero-point correction=                           0.238165 (Hartree/Particle)
 Thermal correction to Energy=                    0.254055
 Thermal correction to Enthalpy=                  0.254999
 Thermal correction to Gibbs Free Energy=         0.192916
 Sum of electronic and zero-point Energies=          -1161.574746
 Sum of electronic and thermal Energies=             -1161.558857
 Sum of electronic and thermal Enthalpies=           -1161.557913
 Sum of electronic and thermal Free Energies=        -1161.619996

                     E (Thermal)             CV                S
                      KCal/Mol        Cal/Mol-Kelvin    Cal/Mol-Kelvin
 Total                  159.422             61.008            130.665
 Electronic               0.000              0.000              0.000
 Translational            0.889              2.981             42.657
 Rotational               0.889              2.981             33.959
 Vibrational            157.644             55.046             54.049
 Vibration     1          0.593              1.984              5.923
 Vibration     2          0.594              1.982              5.393
 Vibration     3          0.596              1.976              4.691
 Vibration     4          0.598              1.968              4.144
 Vibration     5          0.599              1.964              3.941
 Vibration     6          0.607              1.938              3.205
 Vibration     7          0.622              1.890              2.538
 Vibration     8          0.630              1.865              2.312
 Vibration     9          0.636              1.845              2.165
 Vibration    10          0.642              1.826              2.046
 Vibration    11          0.654              1.788              1.845
 Vibration    12          0.665              1.755              1.700
 Vibration    13          0.705              1.637              1.315
 Vibration    14          0.713              1.615              1.260
 Vibration    15          0.754              1.502              1.020
 Vibration    16          0.783              1.425              0.889
 Vibration    17          0.810              1.359              0.793
 Vibration    18          0.834              1.300              0.717
 Vibration    19          0.853              1.255              0.664
 Vibration    20          0.859              1.242              0.649
 Vibration    21          0.907              1.135              0.540
 Vibration    22          0.909              1.131              0.536
 Vibration    23          0.935              1.077              0.487
 Vibration    24          0.963              1.022              0.441

 Optimization completed.
    -- Stationary point found.
 Normal termination of Gaussian 16 at Sun Dec 13 20:51:29 2020.

 ----------------------------------------------------------------------
 # B3LYP/6-311++G(d,p) empiricaldispersion=gd3bj scf=xqc pop=npa geom=c
 heck
 ----------------------------------------------------------------------

 --------------------------------------
 CID_54879562_JID_9811_Energie_neutraal
 --------------------------------------
 Structure from the checkpoint file:  "JID_9811.chk"
 Charge =  0 Multiplicity = 1

 SCF Done:  E(RB3LYP) =  -1162.03338776     A.U. after   17 cycles
 Normal termination of Gaussian 16 at Sun Dec 13 20:57:18 2020.

 ----------------------------------------------------------------------
 # B3LYP/6-311++G(d,p) empiricaldispersion=gd3bj scf=xqc pop=npa geom=c
 heck
 ----------------------------------------------------------------------

 ------------------------------------
 CID_54879562_JID_9811_Energie_kation
 ------------------------------------
 Structure from the checkpoint file:  "JID_9811.chk"
 Charge =  1 Multiplicity = 2

 SCF Done:  E(UB3LYP) =  -1161.73918937     A.U. after   31 cycles
 Normal termination of Gaussian 16 at Sun Dec 13 21:12:26 2020.
 Gaussian 16:  ES64L-G16RevA.03 25-Dec-2016

 ----------------------------------------------------------------------
 # B3LYP/6-311++G(d,p) empiricaldispersion=gd3bj scf=xqc pop=npa geom=c
 heck
 ----------------------------------------------------------------------

 -----------------------------------
 CID_54879562_JID_9811_Energie_anion
 -----------------------------------
 Structure from the checkpoint file:  "JID_9811.chk"
 Charge = -1 Multiplicity = 2

                         Standard orientation:
 ---------------------------------------------------------------------
 Center     Atomic      Atomic             Coordinates (Angstroms)
 Number     Number       Type             X           Y           Z
 ---------------------------------------------------------------------
      1          6           0        5.938197    0.667274   -0.912866
      2          6           0        5.504997   -0.089288    0.355466
      3          6           0        4.200572   -0.837288    0.123967
      4          8           0        4.190320   -2.020644   -0.192780
      5          6           0        2.945343   -0.081215    0.236345
      6          6           0        2.722190    1.234582    0.589809
      7          6           0        1.354532    1.592627    0.563812
      8          6           0        0.525715    0.547852    0.193921
      9         16           0        1.447728   -0.894639   -0.139528
     10          6           0       -0.933405    0.566610    0.077398
     11          6           0       -1.686319   -0.592741    0.181587
     12          6           0       -3.093996   -0.554251    0.067416
     13          7           0       -3.804574   -1.715394    0.178098
     14          6           0       -5.111120   -1.608434    0.066151
     15          6           0       -5.764099   -0.365211   -0.156332
     16          7           0       -5.107987    0.771478   -0.264654
     17          6           0       -3.752226    0.695072   -0.151873
     18          6           0       -2.970299    1.873256   -0.256763
     19          6           0       -1.604071    1.808252   -0.148956
     20          1           0        6.050737   -0.027208   -1.751462
     21          1           0        6.898073    1.168461   -0.752033
     22          1           0        5.200167    1.424445   -1.197306
     23          1           0        6.256302   -0.837935    0.621762
     24          1           0        5.406124    0.607744    1.195495
     25          1           0        3.516430    1.918439    0.866227
     26          1           0        0.985678    2.573948    0.838673
     27          1           0       -1.225371   -1.556453    0.372533
     28          1           0       -5.696423   -2.522642    0.150621
     29          1           0       -6.848622   -0.327369   -0.243403
     30          1           0       -3.484809    2.811912   -0.434753
     31          1           0       -1.012631    2.710865   -0.260262
 ---------------------------------------------------------------------

 SCF Done:  E(UB3LYP) =  -1162.08511649     A.U. after   25 cycles

 The electronic state is 2-A.
 Alpha  occ. eigenvalues --  -88.75091 -18.97931 -14.19339 -14.18869 -10.13322
 Alpha  occ. eigenvalues --  -10.09457 -10.09088 -10.09084 -10.08966 -10.08536
 Alpha  occ. eigenvalues --  -10.08042 -10.07923 -10.07770 -10.07153 -10.07042
 Alpha  occ. eigenvalues --  -10.07003 -10.06249 -10.06008 -10.04640  -7.83728
 Alpha  occ. eigenvalues --   -5.80018  -5.79650  -5.79337  -0.91655  -0.85503
 Alpha  occ. eigenvalues --   -0.78533  -0.77161  -0.73453  -0.68829  -0.65920
 Alpha  occ. eigenvalues --   -0.63922  -0.62308  -0.61008  -0.56203  -0.54388
 Alpha  occ. eigenvalues --   -0.52814  -0.49886  -0.47858  -0.45201  -0.41963
 Alpha  occ. eigenvalues --   -0.41808  -0.40088  -0.38599  -0.38220  -0.35636
 Alpha  occ. eigenvalues --   -0.34258  -0.33128  -0.32473  -0.31975  -0.31662
 Alpha  occ. eigenvalues --   -0.31383  -0.30240  -0.29441  -0.29038  -0.27735
 Alpha  occ. eigenvalues --   -0.27067  -0.26124  -0.25091  -0.24883  -0.24311
 Alpha  occ. eigenvalues --   -0.22969  -0.22332  -0.22284  -0.18679  -0.16240
 Alpha  occ. eigenvalues --   -0.14514  -0.13648  -0.13631  -0.12699  -0.10716
 Alpha  occ. eigenvalues --   -0.00179
 Alpha virt. eigenvalues --    0.04270   0.06558   0.07960   0.08336   0.08566
 Alpha virt. eigenvalues --    0.09013   0.09546   0.10267   0.10665   0.10941
 Alpha virt. eigenvalues --    0.11602   0.12009   0.12300   0.13208   0.13431

  Beta  occ. eigenvalues --  -88.75051 -18.97683 -14.19129 -14.18496 -10.13210
  Beta  occ. eigenvalues --  -10.09490 -10.09135 -10.09109 -10.08835 -10.08368
  Beta  occ. eigenvalues --  -10.08030 -10.07934 -10.07654 -10.07093 -10.07034
  Beta  occ. eigenvalues --  -10.07000 -10.06247 -10.05921 -10.04400  -7.83691
  Beta  occ. eigenvalues --   -5.79997  -5.79631  -5.79206  -0.91214  -0.85109
  Beta  occ. eigenvalues --   -0.77988  -0.76960  -0.73250  -0.68718  -0.65679
  Beta  occ. eigenvalues --   -0.63698  -0.62106  -0.60706  -0.55901  -0.54149
  Beta  occ. eigenvalues --   -0.52691  -0.49614  -0.47621  -0.44968  -0.41831
  Beta  occ. eigenvalues --   -0.41645  -0.39935  -0.38467  -0.38100  -0.35581
  Beta  occ. eigenvalues --   -0.34061  -0.33002  -0.32370  -0.31778  -0.31375
  Beta  occ. eigenvalues --   -0.30679  -0.30083  -0.29266  -0.28847  -0.27320
  Beta  occ. eigenvalues --   -0.26940  -0.26021  -0.24768  -0.24605  -0.23823
  Beta  occ. eigenvalues --   -0.22290  -0.22077  -0.20977  -0.18306  -0.15353
  Beta  occ. eigenvalues --   -0.13908  -0.13407  -0.12891  -0.12387  -0.09621
  Beta virt. eigenvalues --    0.04272   0.05977   0.06619   0.07937   0.08316
  Beta virt. eigenvalues --    0.08831   0.09205   0.09537   0.10267   0.10777
  Beta virt. eigenvalues --    0.11578   0.11636   0.12128   0.12303   0.13267

 Mulliken charges and spin densities:
               1          2
     1  C   -0.545849  -0.003331
     2  C   -0.013032   0.003228
     3  C   -0.452310   0.056639
     4  O   -0.344847   0.087719
     5  C    0.544662   0.048494
     6  C    0.053416   0.061870
     7  C    0.003182   0.031868
     8  C   -0.048574   0.055388
     9  S   -0.718302   0.066904
    10  C    0.881858   0.036185
    11  C   -0.542414   0.184274
    12  C    0.125276  -0.039614
    13  N   -0.044898   0.169058
    14  C    0.042592   0.002625
    15  C   -0.075733   0.137739
    16  N   -0.066549   0.084491
    17  C   -0.042296  -0.004109
    18  C   -0.634093   0.065872
    19  C   -0.795536  -0.033928
    20  H    0.155128  -0.001842
    21  H    0.104986   0.009893
    22  H    0.135127  -0.001750
    23  H    0.181995   0.005282
    24  H    0.110471   0.002854
    25  H    0.151077   0.000769
    26  H    0.099291  -0.000542
    27  H    0.172317  -0.012429
    28  H    0.154320  -0.000524
    29  H    0.147836  -0.011442
    30  H    0.158398  -0.004825
    31  H    0.102498   0.003183
 Sum of Mulliken charges =  -1.00000   1.00000

 Dipole moment (field-independent basis, Debye):
    X=              2.9704    Y=              4.2711    Z=              0.5593  Tot=              5.2324
 Quadrupole moment (field-independent basis, Debye-Ang):
   XX=           -191.4972   YY=           -137.6980   ZZ=           -127.5387
   XY=             17.3087   XZ=              1.8337   YZ=              0.3498

 Summary of Natural Population Analysis:

                                       Natural Population
                Natural  -----------------------------------------------
    Atom  No    Charge         Core      Valence    Rydberg      Total
 -----------------------------------------------------------------------
      C    1   -0.28154      0.99967     2.27797    0.00391     3.28154
      C    2   -0.22562      0.99961     2.21890    0.00710     3.22562
      C    3    0.26964      0.99957     1.70923    0.02156     2.73036
      O    4   -0.27523      0.99988     3.26825    0.00709     4.27523
      C    5   -0.13013      0.99945     2.11857    0.01210     3.13013
      C    6   -0.10278      0.99950     2.09466    0.00861     3.10278
      C    7   -0.13807      0.99952     2.12908    0.00947     3.13807
      C    8   -0.05524      0.99939     2.04388    0.01197     3.05524
      S    9    0.24629      4.99941     2.73334    0.02096     7.75371
      C   10   -0.03821      0.99949     2.02827    0.01045     3.03821
      C   11   -0.05500      0.99954     2.03806    0.01740     3.05500
      C   12    0.11020      0.99949     1.87877    0.01154     2.88980
      N   13   -0.17535      0.99971     2.65881    0.01683     3.67535
      C   14   -0.00228      0.99962     1.98737    0.01528     3.00228
      C   15    0.03584      0.99962     1.95028    0.01425     2.96416
      N   16   -0.19605      0.99969     2.68432    0.01204     3.69605
      C   17    0.04021      0.99952     1.93945    0.02082     2.95979
      C   18   -0.08582      0.99954     2.07683    0.00945     3.08582
      C   19   -0.09465      0.99954     2.08735    0.00775     3.09465
      H   20    0.09940      0.00000     0.39960    0.00100     0.40060
      H   21    0.09219      0.00000     0.40682    0.00099     0.40781
      H   22    0.09945      0.00000     0.39945    0.00110     0.40055
      H   23    0.10268      0.00000     0.39585    0.00147     0.39732
      H   24    0.09693      0.00000     0.40167    0.00139     0.40307
      H   25    0.09929      0.00000     0.39962    0.00109     0.40071
      H   26    0.10072      0.00000     0.39779    0.00150     0.39928
      H   27    0.10430      0.00000     0.39436    0.00134     0.39570
      H   28    0.08271      0.00000     0.41576    0.00153     0.41729
      H   29    0.08063      0.00000     0.41785    0.00152     0.41937
      H   30    0.09900      0.00000     0.39918    0.00182     0.40100
      H   31    0.09664      0.00000     0.40189    0.00147     0.40336
 =======================================================================
   * Total *    0.00016     22.99177    46.75324    0.25483    69.99984

 Normal termination of Gaussian 16 at Sun Dec 13 21:24:37 2020.
