 Gaussian 16, Revision A.03,

 -----------------------------------------------------------
 # opt freq B3LYP/6-31G(d) empiricaldispersion=gd3bj scf=xqc
 -----------------------------------------------------------

 -------------------------------
 CID_126511721_JID_1709_neutraal
 -------------------------------
 Symbolic Z-matrix:
 Charge =  0 Multiplicity = 1

 SCF Done:  E(RB3LYP) =  -500.373827212     A.U. after   14 cycles
 SCF Done:  E(RB3LYP) =  -500.378310291     A.U. after   12 cycles
 SCF Done:  E(RB3LYP) =  -500.379226885     A.U. after   13 cycles
 SCF Done:  E(RB3LYP) =  -500.379191642     A.U. after   12 cycles
 SCF Done:  E(RB3LYP) =  -500.380015244     A.U. after   11 cycles
 SCF Done:  E(RB3LYP) =  -500.380158396     A.U. after   11 cycles
 SCF Done:  E(RB3LYP) =  -500.380173909     A.U. after    9 cycles
 SCF Done:  E(RB3LYP) =  -500.380188175     A.U. after    9 cycles
 SCF Done:  E(RB3LYP) =  -500.380189863     A.U. after    8 cycles
 SCF Done:  E(RB3LYP) =  -500.380190120     A.U. after    7 cycles
 SCF Done:  E(RB3LYP) =  -500.380190229     A.U. after    6 cycles
 SCF Done:  E(RB3LYP) =  -500.380190281     A.U. after    6 cycles
 Optimization completed.
    -- Stationary point found.
 Normal termination of Gaussian 16 at Tue Dec  8 21:11:53 2020.

 --------------------------------------------------------------------
 #N Geom=AllCheck Guess=TCheck SCRF=Check GenChk RB3LYP/6-31G(d) Freq
 --------------------------------------------------------------------

 Structure from the checkpoint file:  "JID_1709.chk"
 -------------------------------
 CID_126511721_JID_1709_neutraal
 -------------------------------
 Charge =  0 Multiplicity = 1

 SCF Done:  E(RB3LYP) =  -500.380190281     A.U. after    1 cycles

  Exact polarizability: 120.433  -1.252 100.042   0.490  -0.619  88.920
 Approx polarizability: 141.583  -2.694 140.077   2.682  -4.276 135.009

                      1                      2                      3
                      A                      A                      A
 Frequencies --     69.0410                86.7976               100.2082
 Red. masses --      2.8631                 2.2968                 2.5110
 Frc consts  --      0.0080                 0.0102                 0.0149
 IR Inten    --      0.4121                 0.5963                 0.7132

                      4                      5                      6
                      A                      A                      A
 Frequencies --    119.8876               162.2806               181.0269
 Red. masses --      1.7060                 1.5876                 2.1569
 Frc consts  --      0.0144                 0.0246                 0.0416
 IR Inten    --      0.6816                 0.9387                 0.8824

                      7                      8                      9
                      A                      A                      A
 Frequencies --    239.9904               246.9710               274.9360
 Red. masses --      1.7577                 1.5267                 2.0094
 Frc consts  --      0.0596                 0.0549                 0.0895
 IR Inten    --      2.2399                 0.9081                 7.1410

                     10                     11                     12
                      A                      A                      A
 Frequencies --    310.2779               320.8698               363.7945
 Red. masses --      3.4045                 2.5605                 3.3759
 Frc consts  --      0.1931                 0.1553                 0.2632
 IR Inten    --      1.8967                 6.6096                 3.5759

                     13                     14                     15
                      A                      A                      A
 Frequencies --    382.6084               452.1828               474.0526
 Red. masses --      1.8352                 3.0196                 3.0847
 Frc consts  --      0.1583                 0.3638                 0.4084
 IR Inten    --      6.5774                 0.2791                 1.8266

                     16                     17                     18
                      A                      A                      A
 Frequencies --    509.2449               530.7960               678.3165
 Red. masses --      1.8113                 3.1439                 3.3630
 Frc consts  --      0.2768                 0.5219                 0.9117
 IR Inten    --      5.8106                 2.7565                 9.7457

                     19                     20                     21
                      A                      A                      A
 Frequencies --    719.9603               786.7279               827.5571
 Red. masses --      4.0988                 3.3435                 1.4788
 Frc consts  --      1.2518                 1.2193                 0.5967
 IR Inten    --     51.9321                12.3308                 0.0536

                     22                     23                     24
                      A                      A                      A
 Frequencies --    831.9357               858.1643               882.0554
 Red. masses --      1.2304                 2.7838                 1.3970
 Frc consts  --      0.5017                 1.2079                 0.6404
 IR Inten    --     15.4646                 5.0731                 6.4882

                     25                     26                     27
                      A                      A                      A
 Frequencies --    917.2856               932.9858               991.8004
 Red. masses --      2.4954                 2.1388                 1.2827
 Frc consts  --      1.2371                 1.0969                 0.7434
 IR Inten    --      7.8267                 5.0570                 0.7879

                     28                     29                     30
                      A                      A                      A
 Frequencies --   1018.7478              1053.9340              1065.9504
 Red. masses --      2.5396                 1.9712                 3.7359
 Frc consts  --      1.5529                 1.2900                 2.5010
 IR Inten    --     20.3410                 9.9401                81.7661

                     31                     32                     33
                      A                      A                      A
 Frequencies --   1084.3693              1086.7611              1119.8501
 Red. masses --      2.6895                 1.7063                 2.4217
 Frc consts  --      1.8633                 1.1874                 1.7893
 IR Inten    --      9.2499                 5.0878                 4.4215

                     34                     35                     36
                      A                      A                      A
 Frequencies --   1137.8453              1151.4446              1183.2138
 Red. masses --      2.7914                 2.0438                 1.5553
 Frc consts  --      2.1293                 1.5965                 1.2829
 IR Inten    --     14.6396                 3.7214                 0.1726

                     37                     38                     39
                      A                      A                      A
 Frequencies --   1184.4250              1192.9748              1212.7244
 Red. masses --      1.3041                 1.3108                 2.1949
 Frc consts  --      1.0779                 1.0991                 1.9019
 IR Inten    --      2.5542                 0.2162                11.0754

                     40                     41                     42
                      A                      A                      A
 Frequencies --   1226.8209              1278.0672              1305.2518
 Red. masses --      1.7249                 2.1064                 1.2563
 Frc consts  --      1.5296                 2.0272                 1.2610
 IR Inten    --      0.6146                 3.8160                 2.4718

                     43                     44                     45
                      A                      A                      A
 Frequencies --   1307.1431              1324.5214              1341.1100
 Red. masses --      1.2374                 1.1549                 1.4781
 Frc consts  --      1.2457                 1.1937                 1.5663
 IR Inten    --      7.9707                 2.7856                 3.5273

                     46                     47                     48
                      A                      A                      A
 Frequencies --   1367.5498              1398.0419              1399.9118
 Red. masses --      1.2870                 1.4099                 1.4488
 Frc consts  --      1.4182                 1.6236                 1.6729
 IR Inten    --      0.6293                 4.7423                 0.5872

                     49                     50                     51
                      A                      A                      A
 Frequencies --   1401.2758              1412.5947              1425.9799
 Red. masses --      1.4284                 1.3394                 1.4217
 Frc consts  --      1.6525                 1.5747                 1.7032
 IR Inten    --      4.7165                 2.1637                 4.3206

                     52                     53                     54
                      A                      A                      A
 Frequencies --   1437.3352              1484.8121              1505.0730
 Red. masses --      1.3468                 1.1420                 1.0562
 Frc consts  --      1.6394                 1.4835                 1.4096
 IR Inten    --     13.1448                 2.7281                 0.7158

                     55                     56                     57
                      A                      A                      A
 Frequencies --   1506.0132              1513.5107              1513.7508
 Red. masses --      1.0926                 1.0748                 1.0845
 Frc consts  --      1.4601                 1.4506                 1.4641
 IR Inten    --      1.5412                 5.1275                 3.0244

                     58                     59                     60
                      A                      A                      A
 Frequencies --   1519.5611              1523.4014              1528.1870
 Red. masses --      1.0498                 1.1002                 1.0831
 Frc consts  --      1.4283                 1.5043                 1.4903
 IR Inten    --      4.4483                 8.0023                 0.3302

                     61                     62                     63
                      A                      A                      A
 Frequencies --   1537.8089              1543.1731              1547.7794
 Red. masses --      1.0556                 1.0967                 1.0573
 Frc consts  --      1.4708                 1.5388                 1.4924
 IR Inten    --      2.9139                 4.6865                 4.8363

                     64                     65                     66
                      A                      A                      A
 Frequencies --   2956.7774              3004.1995              3021.4436
 Red. masses --      1.0721                 1.0712                 1.0684
 Frc consts  --      5.5226                 5.6961                 5.7469
 IR Inten    --     40.3274                26.7082                46.0856

                     67                     68                     69
                      A                      A                      A
 Frequencies --   3027.9532              3030.6768              3044.1273
 Red. masses --      1.0666                 1.0300                 1.0604
 Frc consts  --      5.7619                 5.5739                 5.7895
 IR Inten    --     28.5369                58.4786                27.1496

                     70                     71                     72
                      A                      A                      A
 Frequencies --   3045.8193              3059.7007              3079.4570
 Red. masses --      1.0614                 1.0357                 1.0943
 Frc consts  --      5.8013                 5.7130                 6.1139
 IR Inten    --     24.2984                25.5264                61.7939

                     73                     74                     75
                      A                      A                      A
 Frequencies --   3086.1937              3091.4830              3092.7163
 Red. masses --      1.1043                 1.1062                 1.1052
 Frc consts  --      6.1970                 6.2292                 6.2282
 IR Inten    --     32.9705                34.6972                86.5530

                     76                     77                     78
                      A                      A                      A
 Frequencies --   3110.1669              3115.6798              3122.0724
 Red. masses --      1.0932                 1.0900                 1.1035
 Frc consts  --      6.2306                 6.2341                 6.3375
 IR Inten    --      9.1440                22.7729                32.0870

                     79                     80                     81
                      A                      A                      A
 Frequencies --   3122.4169              3126.8170              3144.9016
 Red. masses --      1.0921                 1.1017                 1.1023
 Frc consts  --      6.2735                 6.3461                 6.4232
 IR Inten    --     19.4559                47.5827                30.6665

 - Thermochemistry -
 -------------------
 Temperature   298.150 Kelvin.  Pressure   1.00000 Atm.
 Atom     1 has atomic number  6 and mass  12.00000

 Molecular mass:   158.14191 amu.
 Principal axes and moments of inertia in atomic units:
                           1         2         3
     Eigenvalues --   916.767552708.007363018.95484
           X            0.99998   0.00287  -0.00561
           Y           -0.00281   0.99993   0.01168
           Z            0.00565  -0.01166   0.99992
 This molecule is an asymmetric top.
 Rotational symmetry number  1.
 Warning -- assumption of classical behavior for rotation
           may cause significant error
 Rotational temperatures (Kelvin)      0.09448     0.03198     0.02869
 Rotational constants (GHZ):           1.96859     0.66645     0.59780
 Zero-point vibrational energy     696078.7 (Joules/Mol)
                                  166.36680 (Kcal/Mol)
 Warning -- explicit consideration of  17 degrees of freedom as
           vibrations may cause significant error
 Vibrational temperatures:     99.33   124.88   144.18   172.49   233.49
          (Kelvin)            260.46   345.29   355.34   395.57   446.42
                              461.66   523.42   550.49   650.59   682.06
                              732.69   763.70   975.95  1035.86  1131.93
                             1190.67  1196.97  1234.71  1269.08  1319.77
                             1342.36  1426.98  1465.75  1516.38  1533.66
                             1560.17  1563.61  1611.21  1637.11  1656.67
                             1702.38  1704.12  1716.42  1744.84  1765.12
                             1838.85  1877.97  1880.69  1905.69  1929.56
                             1967.60  2011.47  2014.16  2016.12  2032.41
                             2051.67  2068.00  2136.31  2165.46  2166.82
                             2177.60  2177.95  2186.31  2191.83  2198.72
                             2212.56  2220.28  2226.91  4254.14  4322.37
                             4347.18  4356.55  4360.47  4379.82  4382.25
                             4402.23  4430.65  4440.34  4447.95  4449.73
                             4474.84  4482.77  4491.97  4492.46  4498.79
                             4524.81

 Zero-point correction=                           0.265122 (Hartree/Particle)
 Thermal correction to Energy=                    0.277156
 Thermal correction to Enthalpy=                  0.278100
 Thermal correction to Gibbs Free Energy=         0.227538
 Sum of electronic and zero-point Energies=           -500.115068
 Sum of electronic and thermal Energies=              -500.103035
 Sum of electronic and thermal Enthalpies=            -500.102091
 Sum of electronic and thermal Free Energies=         -500.152653

                     E (Thermal)             CV                S
                      KCal/Mol        Cal/Mol-Kelvin    Cal/Mol-Kelvin
 Total                  173.918             45.719            106.417
 Electronic               0.000              0.000              0.000
 Translational            0.889              2.981             41.084
 Rotational               0.889              2.981             30.395
 Vibrational            172.140             39.758             34.937
 Vibration     1          0.598              1.969              4.181
 Vibration     2          0.601              1.958              3.731
 Vibration     3          0.604              1.949              3.450
 Vibration     4          0.609              1.933              3.102
 Vibration     5          0.622              1.889              2.523
 Vibration     6          0.630              1.866              2.318
 Vibration     7          0.657              1.779              1.803
 Vibration     8          0.661              1.768              1.752
 Vibration     9          0.677              1.720              1.565
 Vibration    10          0.699              1.654              1.361
 Vibration    11          0.706              1.634              1.306
 Vibration    12          0.737              1.547              1.106
 Vibration    13          0.752              1.507              1.029
 Vibration    14          0.811              1.356              0.789
 Vibration    15          0.831              1.308              0.726
 Vibration    16          0.864              1.230              0.635
 Vibration    17          0.886              1.182              0.585

 Optimization completed.
    -- Stationary point found.
 Normal termination of Gaussian 16 at Tue Dec  8 21:21:28 2020.

 ----------------------------------------------------------------------
 # B3LYP/6-311++G(d,p) empiricaldispersion=gd3bj scf=xqc pop=npa geom=c
 heck
 ----------------------------------------------------------------------

 ---------------------------------------
 CID_126511721_JID_1709_Energie_neutraal
 ---------------------------------------
 Structure from the checkpoint file:  "JID_1709.chk"
 Charge =  0 Multiplicity = 1

 SCF Done:  E(RB3LYP) =  -500.521507597     A.U. after   14 cycles
 Normal termination of Gaussian 16 at Tue Dec  8 21:27:42 2020.

 ----------------------------------------------------------------------
 # B3LYP/6-311++G(d,p) empiricaldispersion=gd3bj scf=xqc pop=npa geom=c
 heck
 ----------------------------------------------------------------------

 -------------------------------------
 CID_126511721_JID_1709_Energie_kation
 -------------------------------------
 Structure from the checkpoint file:  "JID_1709.chk"
 Charge =  1 Multiplicity = 2

 SCF Done:  E(UB3LYP) =  -500.220548766     A.U. after   23 cycles
 Normal termination of Gaussian 16 at Tue Dec  8 21:46:49 2020.
 Gaussian 16:  ES64L-G16RevA.03 25-Dec-2016

 ----------------------------------------------------------------------
 # B3LYP/6-311++G(d,p) empiricaldispersion=gd3bj scf=xqc pop=npa geom=c
 heck
 ----------------------------------------------------------------------

 ------------------------------------
 CID_126511721_JID_1709_Energie_anion
 ------------------------------------
 Structure from the checkpoint file:  "JID_1709.chk"
 Charge = -1 Multiplicity = 2

                         Standard orientation:
 ---------------------------------------------------------------------
 Center     Atomic      Atomic             Coordinates (Angstroms)
 Number     Number       Type             X           Y           Z
 ---------------------------------------------------------------------
      1          6           0       -3.287064   -1.052250    0.595408
      2          6           0       -1.802164   -1.282121    0.341646
      3          7           0       -1.067932   -0.010959    0.327990
      4          7           0        0.317419   -0.216648    0.315312
      5          6           0        0.893924   -0.772675   -0.920396
      6          6           0        2.351700   -1.167882   -0.670761
      7          6           0        3.166604    0.030429   -0.170212
      8          6           0        2.486678    0.659295    1.051672
      9          6           0        1.025273    0.991698    0.743679
     10          8           0       -1.496618    0.669035   -0.910090
     11          6           0       -2.011918    1.948189   -0.581299
     12          1           0       -3.438772   -0.493536    1.524786
     13          1           0       -3.808438   -2.012185    0.677744
     14          1           0       -3.737040   -0.490279   -0.227635
     15          1           0       -1.354255   -1.867754    1.149627
     16          1           0       -1.668961   -1.837509   -0.598072
     17          1           0        0.832947   -0.039897   -1.740711
     18          1           0        0.313423   -1.648679   -1.218866
     19          1           0        2.782093   -1.571005   -1.595642
     20          1           0        2.376556   -1.968926    0.079240
     21          1           0        4.193100   -0.272012    0.069085
     22          1           0        3.233937    0.780467   -0.971547
     23          1           0        2.517440   -0.043412    1.894142
     24          1           0        3.011016    1.570675    1.363773
     25          1           0        0.507450    1.373335    1.627410
     26          1           0        0.985779    1.772900   -0.037555
     27          1           0       -2.876314    1.877944    0.090651
     28          1           0       -1.254971    2.590899   -0.115395
     29          1           0       -2.326655    2.391855   -1.531849
 ---------------------------------------------------------------------

 SCF Done:  E(UB3LYP) =  -500.501757554     A.U. after   27 cycles

 The electronic state is 2-A.
 Alpha  occ. eigenvalues --  -19.03719 -14.27343 -14.22900 -10.10460 -10.09190
 Alpha  occ. eigenvalues --  -10.08547 -10.08420 -10.06245 -10.06072 -10.06037
 Alpha  occ. eigenvalues --  -10.05768  -0.96598  -0.84934  -0.73771  -0.68058
 Alpha  occ. eigenvalues --   -0.65097  -0.62252  -0.56701  -0.53485  -0.51995
 Alpha  occ. eigenvalues --   -0.48362  -0.45313  -0.42115  -0.39114  -0.37066
 Alpha  occ. eigenvalues --   -0.36114  -0.35144  -0.33793  -0.32772  -0.31930
 Alpha  occ. eigenvalues --   -0.31582  -0.30558  -0.28814  -0.28155  -0.27159
 Alpha  occ. eigenvalues --   -0.25607  -0.24786  -0.24536  -0.22774  -0.21913
 Alpha  occ. eigenvalues --   -0.21561  -0.17175  -0.14356  -0.12754   0.04845
 Alpha virt. eigenvalues --    0.06615   0.07146   0.07911   0.08883   0.08925
 Alpha virt. eigenvalues --    0.09557   0.10218   0.10690   0.11502   0.11700
 Alpha virt. eigenvalues --    0.12169   0.12781   0.12851   0.13884   0.14089

  Beta  occ. eigenvalues --  -19.03711 -14.27326 -14.22896 -10.10434 -10.09179
  Beta  occ. eigenvalues --  -10.08538 -10.08407 -10.06226 -10.06050 -10.06017
  Beta  occ. eigenvalues --  -10.05739  -0.96577  -0.84917  -0.73745  -0.68024
  Beta  occ. eigenvalues --   -0.65066  -0.62209  -0.56643  -0.53432  -0.51944
  Beta  occ. eigenvalues --   -0.48307  -0.45260  -0.42081  -0.39078  -0.37036
  Beta  occ. eigenvalues --   -0.36081  -0.35119  -0.33764  -0.32720  -0.31892
  Beta  occ. eigenvalues --   -0.31549  -0.30527  -0.28778  -0.28115  -0.27117
  Beta  occ. eigenvalues --   -0.25568  -0.24759  -0.24502  -0.22737  -0.21873
  Beta  occ. eigenvalues --   -0.21520  -0.17157  -0.14286  -0.12725
  Beta virt. eigenvalues --    0.06981   0.07606   0.07925   0.08507   0.09392
  Beta virt. eigenvalues --    0.09578   0.10091   0.10703   0.11016   0.11979
  Beta virt. eigenvalues --    0.12146   0.12678   0.13082   0.13163   0.14111

 Mulliken charges and spin densities:
               1          2
     1  C    1.228090  -1.817510
     2  C   -0.756441   0.582502
     3  N   -0.233528   0.117061
     4  N    0.091779   0.043891
     5  C   -0.557499   0.198147
     6  C    0.627677  -1.002803
     7  C   -0.167201  -0.095735
     8  C    0.462444  -0.918425
     9  C    0.105695  -0.356330
    10  O    0.002092   0.019138
    11  C    0.608200  -0.855087
    12  H   -0.112797   0.266655
    13  H   -0.340103   0.469816
    14  H   -0.150409   0.305123
    15  H   -0.080702   0.237666
    16  H    0.111627   0.038914
    17  H   -0.045912   0.224306
    18  H   -0.076090   0.219179
    19  H   -0.219871   0.379945
    20  H   -0.098178   0.230647
    21  H   -0.398858   0.566750
    22  H   -0.094131   0.208038
    23  H    0.049141   0.085364
    24  H   -0.456025   0.625105
    25  H    0.003075   0.191081
    26  H    0.101581   0.024097
    27  H   -0.166282   0.302731
    28  H   -0.291111   0.425617
    29  H   -0.146263   0.284117
 Sum of Mulliken charges =  -1.00000   1.00000

 Dipole moment (field-independent basis, Debye):
    X=             -0.7618    Y=             -0.6350    Z=             -0.4298  Tot=              1.0809
 Quadrupole moment (field-independent basis, Debye-Ang):
   XX=           -145.7330   YY=           -111.7325   ZZ=           -103.3230
   XY=             -3.2767   XZ=              1.2989   YZ=             -1.9114

 Summary of Natural Population Analysis:

                                       Natural Population
                Natural  -----------------------------------------------
    Atom  No    Charge         Core      Valence    Rydberg      Total
 -----------------------------------------------------------------------
      C    1   -0.28991      0.99966     2.28498    0.00527     3.28991
      C    2   -0.09024      0.99961     2.07852    0.01211     3.09024
      N    3   -0.03479      0.99971     2.51922    0.01586     3.53479
      N    4   -0.17984      0.99969     2.66700    0.01315     3.67984
      C    5   -0.09359      0.99960     2.08319    0.01081     3.09359
      C    6   -0.19360      0.99963     2.18475    0.00922     3.19360
      C    7   -0.18951      0.99963     2.18159    0.00829     3.18951
      C    8   -0.19393      0.99962     2.18500    0.00931     3.19393
      C    9   -0.08613      0.99961     2.07395    0.01257     3.08613
      O   10   -0.24698      0.99991     3.23711    0.00996     4.24698
      C   11   -0.09549      0.99962     2.08572    0.01016     3.09549
      H   12    0.09909      0.00000     0.39946    0.00144     0.40091
      H   13    0.09933      0.00000     0.39951    0.00116     0.40067
      H   14    0.10134      0.00000     0.39713    0.00153     0.39866
      H   15    0.10051      0.00000     0.39784    0.00166     0.39949
      H   16    0.08623      0.00000     0.41200    0.00177     0.41377
      H   17    0.08956      0.00000     0.40861    0.00183     0.41044
      H   18    0.09870      0.00000     0.39972    0.00158     0.40130
      H   19    0.09946      0.00000     0.39940    0.00115     0.40054
      H   20    0.09517      0.00000     0.40323    0.00160     0.40483
      H   21    0.10005      0.00000     0.39838    0.00158     0.39995
      H   22    0.09329      0.00000     0.40511    0.00160     0.40671
      H   23    0.09535      0.00000     0.40315    0.00150     0.40465
      H   24    0.10102      0.00000     0.39754    0.00144     0.39898
      H   25    0.10321      0.00000     0.39494    0.00185     0.39679
      H   26    0.08167      0.00000     0.41650    0.00184     0.41833
      H   27    0.08140      0.00000     0.41679    0.00181     0.41860
      H   28    0.08180      0.00000     0.41645    0.00175     0.41820
      H   29    0.08684      0.00000     0.41206    0.00110     0.41316
 =======================================================================
   * Total *    0.00000     10.99627    32.85881    0.14491    44.00000

 Normal termination of Gaussian 16 at Tue Dec  8 21:56:45 2020.
