 Gaussian 16, Revision A.03,

 -----------------------------------------------------------
 # opt freq B3LYP/6-31G(d) empiricaldispersion=gd3bj scf=xqc
 -----------------------------------------------------------

 -------------------------------
 CID_152330006_JID_6260_neutraal
 -------------------------------
 Symbolic Z-matrix:
 Charge =  0 Multiplicity = 1

 SCF Done:  E(RB3LYP) =  -862.968781604     A.U. after   14 cycles
 SCF Done:  E(RB3LYP) =  -862.977054014     A.U. after   12 cycles
 SCF Done:  E(RB3LYP) =  -862.978178888     A.U. after   11 cycles
 SCF Done:  E(RB3LYP) =  -862.978469861     A.U. after   11 cycles
 SCF Done:  E(RB3LYP) =  -862.978586204     A.U. after   10 cycles
 SCF Done:  E(RB3LYP) =  -862.978631181     A.U. after   10 cycles
 SCF Done:  E(RB3LYP) =  -862.978695388     A.U. after   10 cycles
 SCF Done:  E(RB3LYP) =  -862.978706060     A.U. after    9 cycles
 SCF Done:  E(RB3LYP) =  -862.978710668     A.U. after    9 cycles
 SCF Done:  E(RB3LYP) =  -862.978711909     A.U. after    8 cycles
 SCF Done:  E(RB3LYP) =  -862.978712444     A.U. after    8 cycles
 SCF Done:  E(RB3LYP) =  -862.978712650     A.U. after    8 cycles
 Optimization completed.
    -- Stationary point found.
 Normal termination of Gaussian 16 at Thu Dec 10 21:48:31 2020.

 --------------------------------------------------------------------
 #N Geom=AllCheck Guess=TCheck SCRF=Check GenChk RB3LYP/6-31G(d) Freq
 --------------------------------------------------------------------

 Structure from the checkpoint file:  "JID_6260.chk"
 -------------------------------
 CID_152330006_JID_6260_neutraal
 -------------------------------
 Charge =  0 Multiplicity = 1

 SCF Done:  E(RB3LYP) =  -862.978712650     A.U. after    1 cycles

  Exact polarizability: 164.292   1.146 143.454   0.032   0.059  50.329
 Approx polarizability: 225.733  -3.720 219.591  -0.200  -0.396  76.304

                      1                      2                      3
                      A                      A                      A
 Frequencies --     31.7473                41.5001                60.0381
 Red. masses --      5.1566                 6.8128                 7.4869
 Frc consts  --      0.0031                 0.0069                 0.0159
 IR Inten    --      3.0571                 0.6815                 0.0316

                      4                      5                      6
                      A                      A                      A
 Frequencies --     75.3412                79.1513               134.0826
 Red. masses --      7.3166                 6.1589                 1.3047
 Frc consts  --      0.0245                 0.0227                 0.0138
 IR Inten    --      0.2192                 0.3425                 0.4395

                      7                      8                      9
                      A                      A                      A
 Frequencies --    150.5571               161.7977               182.2823
 Red. masses --      6.2420                 2.8751                 8.1670
 Frc consts  --      0.0834                 0.0443                 0.1599
 IR Inten    --      0.5613                 0.7572                43.7282

                     10                     11                     12
                      A                      A                      A
 Frequencies --    198.2684               211.1736               228.2079
 Red. masses --      1.3447                 4.4618                 5.3814
 Frc consts  --      0.0311                 0.1172                 0.1651
 IR Inten    --    189.0512                51.7215                 1.0900

                     13                     14                     15
                      A                      A                      A
 Frequencies --    242.0148               297.0462               336.7352
 Red. masses --      7.8071                 4.6488                 4.8478
 Frc consts  --      0.2694                 0.2417                 0.3239
 IR Inten    --      0.4577                 5.8447                11.1250

                     16                     17                     18
                      A                      A                      A
 Frequencies --    384.0696               423.7655               478.0091
 Red. masses --     12.5527                 9.8896                 3.6235
 Frc consts  --      1.0910                 1.0464                 0.4878
 IR Inten    --      4.2066                11.2416                17.1354

                     19                     20                     21
                      A                      A                      A
 Frequencies --    567.6840               585.6861               605.1623
 Red. masses --      1.0761                 1.1587                 7.3733
 Frc consts  --      0.2043                 0.2342                 1.5909
 IR Inten    --      1.1862                65.3601                 6.1754

                     22                     23                     24
                      A                      A                      A
 Frequencies --    635.2224               677.2124               691.1190
 Red. masses --      4.3731                 1.1619                 1.2190
 Frc consts  --      1.0397                 0.3140                 0.3430
 IR Inten    --     86.2975                43.2963                89.2503

                     25                     26                     27
                      A                      A                      A
 Frequencies --    719.9976               730.6771               735.7747
 Red. masses --      7.8559                 6.5100                 5.9777
 Frc consts  --      2.3994                 2.0478                 1.9067
 IR Inten    --     12.0551                 2.0466                 7.2280

                     28                     29                     30
                      A                      A                      A
 Frequencies --    737.0019               764.3090               771.2590
 Red. masses --      7.3388                 9.5140                 6.1439
 Frc consts  --      2.3486                 3.2746                 2.1532
 IR Inten    --      4.9392                40.7938               104.1453

                     31                     32                     33
                      A                      A                      A
 Frequencies --    826.9550               831.8927               903.6729
 Red. masses --     12.1300                 6.3656                 5.5677
 Frc consts  --      4.8874                 2.5955                 2.6788
 IR Inten    --     59.5119                12.3773                 1.9003

                     34                     35                     36
                      A                      A                      A
 Frequencies --    967.5561               998.5058              1063.7325
 Red. masses --      5.4070                11.9016                 2.0353
 Frc consts  --      2.9823                 6.9913                 1.3569
 IR Inten    --      6.7238                 0.3268                 4.7482

                     37                     38                     39
                      A                      A                      A
 Frequencies --   1079.7299              1142.8515              1179.6710
 Red. masses --      7.1131                 4.1625                 2.9083
 Frc consts  --      4.8858                 3.2032                 2.3846
 IR Inten    --     31.8338                65.6629                22.2969

                     40                     41                     42
                      A                      A                      A
 Frequencies --   1188.4649              1224.5055              1234.5722
 Red. masses --      1.2664                 1.5514                 1.7416
 Frc consts  --      1.0539                 1.3706                 1.5640
 IR Inten    --      0.9324               121.9389               414.4398

                     43                     44                     45
                      A                      A                      A
 Frequencies --   1297.6429              1361.4095              1386.3216
 Red. masses --      6.4503                 3.1634                 3.7974
 Frc consts  --      6.3994                 3.4545                 4.3000
 IR Inten    --     25.1763               917.1522               242.0816

                     46                     47                     48
                      A                      A                      A
 Frequencies --   1414.2937              1466.5636              1498.3402
 Red. masses --      2.2356                 3.3406                 1.2962
 Frc consts  --      2.6346                 4.2333                 1.7145
 IR Inten    --     35.3437               469.7009               109.9627

                     49                     50                     51
                      A                      A                      A
 Frequencies --   1513.3561              1513.4144              1524.9948
 Red. masses --      2.7951                 1.0485                 1.1689
 Frc consts  --      3.7717                 1.4149                 1.6016
 IR Inten    --    167.7544                 5.9027                39.6842

                     52                     53                     54
                      A                      A                      A
 Frequencies --   1531.3285              1580.2189              1623.6664
 Red. masses --      2.3308                 2.6720                 6.1099
 Frc consts  --      3.2203                 3.9312                 9.4903
 IR Inten    --    489.5133               197.5169               667.0660

                     55                     56                     57
                      A                      A                      A
 Frequencies --   1653.6426              1681.8392              1826.5837
 Red. masses --      5.1837                 2.3448                 8.5201
 Frc consts  --      8.3517                 3.9077                16.7484
 IR Inten    --    512.9960               552.4915               599.7110

                     58                     59                     60
                      A                      A                      A
 Frequencies --   1844.4490              3079.3692              3155.6057
 Red. masses --      7.6839                 1.0295                 1.1079
 Frc consts  --     15.4016                 5.7517                 6.5002
 IR Inten    --    470.5196                35.0414                20.2397

                     61                     62                     63
                      A                      A                      A
 Frequencies --   3187.5723              3619.3275              3624.4140
 Red. masses --      1.1072                 1.0449                 1.0764
 Frc consts  --      6.6279                 8.0645                 8.3309
 IR Inten    --     13.6408               108.1093                56.0184

                     64                     65                     66
                      A                      A                      A
 Frequencies --   3625.4275              3711.7214              3748.5586
 Red. masses --      1.0761                 1.0642                 1.1061
 Frc consts  --      8.3334                 8.6380                 9.1572
 IR Inten    --     71.9047                78.1851                55.7945

 - Thermochemistry -
 -------------------
 Temperature   298.150 Kelvin.  Pressure   1.00000 Atm.
 Atom     1 has atomic number  6 and mass  12.00000

 Molecular mass:   228.06070 amu.
 Principal axes and moments of inertia in atomic units:
                           1         2         3
     Eigenvalues --  2347.858025772.975208109.23774
           X            0.99948   0.03209   0.00021
           Y           -0.03209   0.99948   0.00103
           Z           -0.00017  -0.00104   1.00000
 This molecule is an asymmetric top.
 Rotational symmetry number  1.
 Warning -- assumption of classical behavior for rotation
           may cause significant error
 Rotational temperatures (Kelvin)      0.03689     0.01500     0.01068
 Rotational constants (GHZ):           0.76868     0.31262     0.22255
 Zero-point vibrational energy     460855.8 (Joules/Mol)
                                  110.14717 (Kcal/Mol)
 Warning -- explicit consideration of  21 degrees of freedom as
           vibrations may cause significant error
 Vibrational temperatures:     45.68    59.71    86.38   108.40   113.88
          (Kelvin)            192.91   216.62   232.79   262.26   285.26
                              303.83   328.34   348.21   427.38   484.49
                              552.59   609.70   687.75   816.77   842.67
                              870.69   913.94   974.36   994.37  1035.92
                             1051.28  1058.62  1060.38  1099.67  1109.67
                             1189.80  1196.91  1300.18  1392.10  1436.63
                             1530.47  1553.49  1644.31  1697.28  1709.94
                             1761.79  1776.27  1867.02  1958.76  1994.61
                             2034.85  2110.06  2155.78  2177.38  2177.47
                             2194.13  2203.24  2273.58  2336.09  2379.22
                             2419.79  2628.05  2653.75  4430.53  4540.21
                             4586.21  5207.41  5214.72  5216.18  5340.34
                             5393.34

 Zero-point correction=                           0.175531 (Hartree/Particle)
 Thermal correction to Energy=                    0.190719
 Thermal correction to Enthalpy=                  0.191664
 Thermal correction to Gibbs Free Energy=         0.131170
 Sum of electronic and zero-point Energies=           -862.803182
 Sum of electronic and thermal Energies=              -862.787993
 Sum of electronic and thermal Enthalpies=            -862.787049
 Sum of electronic and thermal Free Energies=         -862.847542

                     E (Thermal)             CV                S
                      KCal/Mol        Cal/Mol-Kelvin    Cal/Mol-Kelvin
 Total                  119.678             53.809            127.319
 Electronic               0.000              0.000              0.000
 Translational            0.889              2.981             42.176
 Rotational               0.889              2.981             33.063
 Vibrational            117.901             47.848             52.080
 Vibration     1          0.594              1.983              5.717
 Vibration     2          0.594              1.981              5.186
 Vibration     3          0.597              1.973              4.456
 Vibration     4          0.599              1.965              4.009
 Vibration     5          0.600              1.963              3.912
 Vibration     6          0.613              1.919              2.887
 Vibration     7          0.618              1.902              2.665
 Vibration     8          0.622              1.889              2.529
 Vibration     9          0.630              1.864              2.305
 Vibration    10          0.637              1.842              2.149
 Vibration    11          0.643              1.824              2.034
 Vibration    12          0.651              1.798              1.893
 Vibration    13          0.658              1.776              1.788
 Vibration    14          0.691              1.679              1.433
 Vibration    15          0.717              1.602              1.228
 Vibration    16          0.753              1.504              1.023
 Vibration    17          0.786              1.419              0.879
 Vibration    18          0.835              1.299              0.715
 Vibration    19          0.924              1.101              0.509
 Vibration    20          0.943              1.062              0.475
 Vibration    21          0.964              1.021              0.441

                           ! Non-Optimized Parameters !
 Normal termination of Gaussian 16 at Thu Dec 10 21:54:45 2020.

 ----------------------------------------------------------------------
 # B3LYP/6-311++G(d,p) empiricaldispersion=gd3bj scf=xqc pop=npa geom=c
 heck
 ----------------------------------------------------------------------

 ---------------------------------------
 CID_152330006_JID_6260_Energie_neutraal
 ---------------------------------------
 Structure from the checkpoint file:  "JID_6260.chk"
 Charge =  0 Multiplicity = 1

 SCF Done:  E(RB3LYP) =  -863.248508402     A.U. after   14 cycles
 Normal termination of Gaussian 16 at Thu Dec 10 21:57:02 2020.

 ----------------------------------------------------------------------
 # B3LYP/6-311++G(d,p) empiricaldispersion=gd3bj scf=xqc pop=npa geom=c
 heck
 ----------------------------------------------------------------------

 -------------------------------------
 CID_152330006_JID_6260_Energie_kation
 -------------------------------------
 Structure from the checkpoint file:  "JID_6260.chk"
 Charge =  1 Multiplicity = 2

 SCF Done:  E(UB3LYP) =  -862.910548644     A.U. after   33 cycles
 SCF Done:  E(UB3LYP) =  -862.910548691     a.u. after    2 cycles
 Normal termination of Gaussian 16 at Thu Dec 10 22:10:19 2020.
 Gaussian 16:  ES64L-G16RevA.03 25-Dec-2016

 ----------------------------------------------------------------------
 # B3LYP/6-311++G(d,p) empiricaldispersion=gd3bj scf=xqc pop=npa geom=c
 heck
 ----------------------------------------------------------------------

 ------------------------------------
 CID_152330006_JID_6260_Energie_anion
 ------------------------------------
 Structure from the checkpoint file:  "JID_6260.chk"
 Charge = -1 Multiplicity = 2

                         Standard orientation:
 ---------------------------------------------------------------------
 Center     Atomic      Atomic             Coordinates (Angstroms)
 Number     Number       Type             X           Y           Z
 ---------------------------------------------------------------------
      1          6           0       -3.717393   -2.320232    0.003965
      2          8           0       -2.723248   -1.283228    0.002877
      3          6           0       -3.224547   -0.043538   -0.000095
      4          8           0       -4.406661    0.237650   -0.001118
      5          7           0       -2.253766    0.951953   -0.001754
      6          6           0       -0.870265    0.936921   -0.002611
      7          7           0       -0.331037    2.166055    0.000467
      8          6           0        1.011785    2.167108   -0.002108
      9          7           0        1.806408    1.075465    0.000522
     10          6           0        1.131844   -0.065506   -0.001815
     11          7           0       -0.206408   -0.217391   -0.004876
     12          7           0        1.799216   -1.280343    0.000890
     13          6           0        3.137745   -1.629153    0.000225
     14          8           0        3.492459   -2.791436   -0.001708
     15          8           0        3.984754   -0.583769    0.002625
     16          7           0        1.633485    3.366468   -0.024218
     17          1           0       -3.153941   -3.253143    0.005372
     18          1           0       -4.346784   -2.249807   -0.886529
     19          1           0       -4.347323   -2.247447    0.893909
     20          1           0       -2.648401    1.883650   -0.003483
     21          1           0        1.178611   -2.079716   -0.000995
     22          1           0        4.869080   -0.992728    0.000223
     23          1           0        1.085703    4.203861    0.094896
     24          1           0        2.634329    3.392557    0.092618
 ---------------------------------------------------------------------

 SCF Done:  E(UB3LYP) =  -863.242143287     A.U. after   33 cycles
 SCF Done:  E(UB3LYP) =  -863.242143287     a.u. after    1 cycles

 The electronic state is 2-A.
 Alpha  occ. eigenvalues --  -19.07381 -19.06546 -19.00386 -18.99749 -14.25200
 Alpha  occ. eigenvalues --  -14.24944 -14.21958 -14.18771 -14.18153 -14.17817
 Alpha  occ. eigenvalues --  -10.22695 -10.22136 -10.16711 -10.16126 -10.15764
 Alpha  occ. eigenvalues --  -10.13860  -1.02321  -1.01499  -0.92901  -0.92156
 Alpha  occ. eigenvalues --   -0.91736  -0.85930  -0.85055  -0.79763  -0.75938
 Alpha  occ. eigenvalues --   -0.74818  -0.64492  -0.59491  -0.56869  -0.53695
 Alpha  occ. eigenvalues --   -0.49844  -0.48344  -0.46637  -0.43792  -0.41285
 Alpha  occ. eigenvalues --   -0.40173  -0.38685  -0.37846  -0.37329  -0.37219
 Alpha  occ. eigenvalues --   -0.36084  -0.35438  -0.34914  -0.33946  -0.32248
 Alpha  occ. eigenvalues --   -0.31171  -0.28177  -0.26764  -0.26143  -0.25820
 Alpha  occ. eigenvalues --   -0.22432  -0.21699  -0.19589  -0.18934  -0.17099
 Alpha  occ. eigenvalues --   -0.15733  -0.15192  -0.15057  -0.13883   0.04616
 Alpha virt. eigenvalues --    0.06171   0.06572   0.07276   0.09232   0.09414
 Alpha virt. eigenvalues --    0.09646   0.10209   0.10577   0.11886   0.13293
 Alpha virt. eigenvalues --    0.13903   0.13948   0.14192   0.15491   0.15928

  Beta  occ. eigenvalues --  -19.07368 -19.06506 -19.00319 -18.99661 -14.25230
  Beta  occ. eigenvalues --  -14.24982 -14.21914 -14.18863 -14.17996 -14.17687
  Beta  occ. eigenvalues --  -10.22620 -10.22022 -10.16726 -10.15884 -10.15489
  Beta  occ. eigenvalues --  -10.13847  -1.02247  -1.01364  -0.92804  -0.91957
  Beta  occ. eigenvalues --   -0.91571  -0.85758  -0.84955  -0.79718  -0.75674
  Beta  occ. eigenvalues --   -0.74721  -0.64429  -0.59132  -0.56712  -0.53549
  Beta  occ. eigenvalues --   -0.49756  -0.48240  -0.46548  -0.43732  -0.41229
  Beta  occ. eigenvalues --   -0.40001  -0.38564  -0.37731  -0.37202  -0.36733
  Beta  occ. eigenvalues --   -0.36011  -0.35350  -0.34423  -0.33898  -0.31934
  Beta  occ. eigenvalues --   -0.31080  -0.28122  -0.26383  -0.25669  -0.25490
  Beta  occ. eigenvalues --   -0.22059  -0.21503  -0.19531  -0.18853  -0.16999
  Beta  occ. eigenvalues --   -0.15635  -0.14941  -0.14511  -0.13671
  Beta virt. eigenvalues --    0.06340   0.07373   0.08176   0.08814   0.09546
  Beta virt. eigenvalues --    0.09754   0.09798   0.10268   0.11269   0.12159
  Beta virt. eigenvalues --    0.13332   0.13744   0.13882   0.14719   0.15603

 Mulliken charges and spin densities:
               1          2
     1  C    0.091246  -0.351647
     2  O   -0.100532   0.023687
     3  C    0.387110  -0.053670
     4  O   -0.317266   0.028456
     5  N   -0.423516  -0.039994
     6  C    0.344403  -0.314308
     7  N   -0.212429   0.028607
     8  C    0.023165   0.141658
     9  N   -0.221104  -0.057266
    10  C    0.489549  -0.286999
    11  N   -0.382399   0.002107
    12  N   -0.278509  -0.126216
    13  C    0.410651  -0.075174
    14  O   -0.333255   0.028347
    15  O   -0.183627   0.019296
    16  N   -0.563074   0.259497
    17  H   -0.008712   0.143832
    18  H    0.040420   0.129052
    19  H    0.039301   0.132146
    20  H    0.289749   0.055028
    21  H    0.378445  -0.040136
    22  H    0.117777   0.183723
    23  H   -0.369285   0.660231
    24  H   -0.218108   0.509744
 Sum of Mulliken charges =  -1.00000   1.00000

 Dipole moment (field-independent basis, Debye):
    X=             -2.6763    Y=             -4.0321    Z=             -0.2998  Tot=              4.8487
 Quadrupole moment (field-independent basis, Debye-Ang):
   XX=           -153.6710   YY=           -146.2723   ZZ=           -102.0634
   XY=              0.2038   XZ=             -0.1531   YZ=             -1.0515

 Summary of Natural Population Analysis:

                                       Natural Population
                Natural  -----------------------------------------------
    Atom  No    Charge         Core      Valence    Rydberg      Total
 -----------------------------------------------------------------------
      C    1   -0.10215      0.99960     2.09433    0.00821     3.10215
      O    2   -0.26514      0.99986     3.25718    0.00811     4.26514
      C    3    0.47493      0.99972     1.50157    0.02378     2.52507
      O    4   -0.32654      0.99987     3.32144    0.00523     4.32654
      N    5   -0.31785      0.99963     2.80935    0.00887     3.81785
      C    6    0.34599      0.99962     1.63746    0.01693     2.65401
      N    7   -0.29575      0.99964     2.78614    0.00997     3.79575
      C    8    0.30752      0.99963     1.67342    0.01943     2.69248
      N    9   -0.28152      0.99963     2.77278    0.00911     3.78152
      C   10    0.35014      0.99962     1.63266    0.01758     2.64986
      N   11   -0.31553      0.99964     2.80770    0.00818     3.81553
      N   12   -0.32092      0.99962     2.81231    0.00898     3.82092
      C   13    0.47410      0.99977     1.50225    0.02388     2.52590
      O   14   -0.33012      0.99987     3.32454    0.00570     4.33012
      O   15   -0.33012      0.99987     3.32390    0.00635     4.33012
      N   16   -0.38363      0.99969     2.87457    0.00937     3.88363
      H   17    0.09044      0.00000     0.40833    0.00123     0.40956
      H   18    0.08893      0.00000     0.40957    0.00150     0.41107
      H   19    0.08959      0.00000     0.40890    0.00151     0.41041
      H   20    0.20583      0.00000     0.29176    0.00241     0.29417
      H   21    0.20655      0.00000     0.29102    0.00243     0.29345
      H   22    0.23741      0.00000     0.25872    0.00386     0.26259
      H   23    0.19833      0.00000     0.29664    0.00502     0.30167
      H   24    0.19951      0.00000     0.29707    0.00343     0.30049
 =======================================================================
   * Total *    0.00000     15.99528    42.79361    0.21111    59.00000

 Normal termination of Gaussian 16 at Thu Dec 10 22:18:29 2020.
