 Gaussian 16, Revision A.03,

 -----------------------------------------------------------
 # opt freq B3LYP/6-31G(d) empiricaldispersion=gd3bj scf=xqc
 -----------------------------------------------------------

 ------------------------------
 CID_88446458_JID_5657_neutraal
 ------------------------------
 Symbolic Z-matrix:
 Charge =  0 Multiplicity = 1

 SCF Done:  E(RB3LYP) =  -1319.88817286     A.U. after   15 cycles
 SCF Done:  E(RB3LYP) =  -1319.89308903     A.U. after   13 cycles
 SCF Done:  E(RB3LYP) =  -1319.88431972     A.U. after   14 cycles
 SCF Done:  E(RB3LYP) =  -1319.89256402     A.U. after   13 cycles
 SCF Done:  E(RB3LYP) =  -1319.89491807     A.U. after   10 cycles
 SCF Done:  E(RB3LYP) =  -1319.89189999     A.U. after   13 cycles
 SCF Done:  E(RB3LYP) =  -1319.89538747     A.U. after   12 cycles
 SCF Done:  E(RB3LYP) =  -1319.89544544     A.U. after   13 cycles
 SCF Done:  E(RB3LYP) =  -1319.89594317     A.U. after   11 cycles
 SCF Done:  E(RB3LYP) =  -1319.89599770     A.U. after   11 cycles
 SCF Done:  E(RB3LYP) =  -1319.89605148     A.U. after   10 cycles
 SCF Done:  E(RB3LYP) =  -1319.89605602     A.U. after    9 cycles
 SCF Done:  E(RB3LYP) =  -1319.89605772     A.U. after    9 cycles
 SCF Done:  E(RB3LYP) =  -1319.89605799     A.U. after    8 cycles
 SCF Done:  E(RB3LYP) =  -1319.89605806     A.U. after    7 cycles
 Optimization completed.
    -- Stationary point found.
 Normal termination of Gaussian 16 at Thu Dec 10 16:55:52 2020.

 --------------------------------------------------------------------
 #N Geom=AllCheck Guess=TCheck SCRF=Check GenChk RB3LYP/6-31G(d) Freq
 --------------------------------------------------------------------

 Structure from the checkpoint file:  "JID_5657.chk"
 ------------------------------
 CID_88446458_JID_5657_neutraal
 ------------------------------
 Charge =  0 Multiplicity = 1

 SCF Done:  E(RB3LYP) =  -1319.89605806     A.U. after    1 cycles

  Exact polarizability: 200.295   6.364 154.847   2.082  12.505 143.805
 Approx polarizability: 286.338   4.425 233.095  -0.983  30.081 231.516

                      1                      2                      3
                      A                      A                      A
 Frequencies --     32.8379                47.2527                71.6435
 Red. masses --      4.2743                 3.8225                 3.4820
 Frc consts  --      0.0027                 0.0050                 0.0105
 IR Inten    --      0.2230                 0.5796                 0.9014

                      4                      5                      6
                      A                      A                      A
 Frequencies --     84.7627                89.0948               105.1425
 Red. masses --      4.0416                 2.5029                 2.9335
 Frc consts  --      0.0171                 0.0117                 0.0191
 IR Inten    --      0.3301                 0.2296                 0.1634

                      7                      8                      9
                      A                      A                      A
 Frequencies --    113.5559               125.6860               152.2501
 Red. masses --      3.1030                 2.6249                 3.1844
 Frc consts  --      0.0236                 0.0244                 0.0435
 IR Inten    --      0.4194                 0.1512                 0.3664

                     10                     11                     12
                      A                      A                      A
 Frequencies --    169.8403               187.6694               219.2591
 Red. masses --      2.5714                 1.9063                 2.5126
 Frc consts  --      0.0437                 0.0396                 0.0712
 IR Inten    --      2.2315                 1.9206                 0.6862

                     13                     14                     15
                      A                      A                      A
 Frequencies --    245.9732               250.9245               267.3711
 Red. masses --      1.5583                 1.5133                 1.3602
 Frc consts  --      0.0555                 0.0561                 0.0573
 IR Inten    --      0.2003                 0.3751                 0.0825

                     16                     17                     18
                      A                      A                      A
 Frequencies --    293.1432               329.3631               342.6084
 Red. masses --      2.0542                 3.2008                 3.6929
 Frc consts  --      0.1040                 0.2046                 0.2554
 IR Inten    --      1.0677                 0.9225                 0.8672

                     19                     20                     21
                      A                      A                      A
 Frequencies --    361.0272               369.6219               439.4609
 Red. masses --      3.3369                 3.5117                 3.4153
 Frc consts  --      0.2563                 0.2827                 0.3886
 IR Inten    --      0.6370                 0.0460                 0.5848

                     22                     23                     24
                      A                      A                      A
 Frequencies --    484.4794               526.0355               557.3885
 Red. masses --      4.4931                 4.1311                 4.5173
 Frc consts  --      0.6214                 0.6735                 0.8269
 IR Inten    --      4.8710                 9.3193                 1.6758

                     25                     26                     27
                      A                      A                      A
 Frequencies --    584.6702               635.4350               655.2121
 Red. masses --      4.2733                 6.6135                 4.1747
 Frc consts  --      0.8607                 1.5733                 1.0559
 IR Inten    --      1.1146                 1.3239                 1.7897

                     28                     29                     30
                      A                      A                      A
 Frequencies --    661.6749               728.5139               758.9825
 Red. masses --      4.6814                 4.5525                 1.8811
 Frc consts  --      1.2076                 1.4236                 0.6384
 IR Inten    --      1.5095                 0.4346                19.9527

                     31                     32                     33
                      A                      A                      A
 Frequencies --    767.9480               773.3534               784.2299
 Red. masses --      1.2536                 1.2748                 2.4261
 Frc consts  --      0.4356                 0.4492                 0.8791
 IR Inten    --      2.2390                 5.8500                12.2796

                     34                     35                     36
                      A                      A                      A
 Frequencies --    800.1450               822.5687               882.4952
 Red. masses --      1.2208                 2.7731                 4.9063
 Frc consts  --      0.4605                 1.1055                 2.2513
 IR Inten    --      4.1910                11.4864                 4.8150

                     37                     38                     39
                      A                      A                      A
 Frequencies --    886.4502               950.7046               980.2576
 Red. masses --      1.6330                 1.3764                 1.4605
 Frc consts  --      0.7560                 0.7329                 0.8269
 IR Inten    --      0.3635                 1.1558                 0.3281

                     40                     41                     42
                      A                      A                      A
 Frequencies --    982.5660               988.9401               991.9631
 Red. masses --      1.9264                 1.7657                 1.7954
 Frc consts  --      1.0958                 1.0174                 1.0409
 IR Inten    --      0.6458                 4.0963                 5.6264

                     43                     44                     45
                      A                      A                      A
 Frequencies --   1057.8132              1066.8056              1073.1915
 Red. masses --      1.8123                 1.3251                 1.3527
 Frc consts  --      1.1948                 0.8885                 0.9179
 IR Inten    --      2.2467                 1.1797                 0.5326

                     46                     47                     48
                      A                      A                      A
 Frequencies --   1082.7674              1084.9801              1086.7454
 Red. masses --      2.0292                 2.0104                 2.0161
 Frc consts  --      1.4016                 1.3944                 1.4028
 IR Inten    --      1.5069                 5.1555                 2.6829

                     49                     50                     51
                      A                      A                      A
 Frequencies --   1096.2647              1149.2264              1195.4486
 Red. masses --      1.8385                 1.8742                 1.0934
 Frc consts  --      1.3018                 1.4584                 0.9206
 IR Inten    --      5.5386                11.0613                 0.0019

                     52                     53                     54
                      A                      A                      A
 Frequencies --   1211.7632              1244.5711              1287.2238
 Red. masses --      2.2457                 2.7965                 1.4059
 Frc consts  --      1.9428                 2.5522                 1.3725
 IR Inten    --     17.0195                11.0252                 5.4026

                     55                     56                     57
                      A                      A                      A
 Frequencies --   1290.0754              1295.2024              1320.7829
 Red. masses --      1.2066                 1.1919                 1.6508
 Frc consts  --      1.1831                 1.1781                 1.6967
 IR Inten    --      1.5708                 1.1265                 2.8015

                     58                     59                     60
                      A                      A                      A
 Frequencies --   1323.0877              1324.8076              1360.7605
 Red. masses --      1.3382                 1.3112                 2.4925
 Frc consts  --      1.3803                 1.3559                 2.7192
 IR Inten    --     12.0760                15.4606                 0.4429

                     61                     62                     63
                      A                      A                      A
 Frequencies --   1375.3303              1430.7236              1434.5420
 Red. masses --      1.6199                 1.2332                 1.2288
 Frc consts  --      1.8053                 1.4873                 1.4900
 IR Inten    --      2.6162                 2.2513                 3.8261

                     64                     65                     66
                      A                      A                      A
 Frequencies --   1434.9919              1488.9645              1491.2383
 Red. masses --      1.2158                 1.0882                 1.0925
 Frc consts  --      1.4751                 1.4214                 1.4314
 IR Inten    --      2.5092                 4.7023                 7.2122

                     67                     68                     69
                      A                      A                      A
 Frequencies --   1494.1596              1510.3397              1515.3501
 Red. masses --      2.1930                 1.0818                 1.0429
 Frc consts  --      2.8846                 1.4540                 1.4110
 IR Inten    --     11.0319                 1.8050                 6.4383

                     70                     71                     72
                      A                      A                      A
 Frequencies --   1520.9118              1524.2193              1530.6095
 Red. masses --      1.0480                 1.0479                 1.0896
 Frc consts  --      1.4283                 1.4343                 1.5040
 IR Inten    --     14.0245                 1.5612                 7.0842

                     73                     74                     75
                      A                      A                      A
 Frequencies --   1534.1896              1536.2488              1544.2284
 Red. masses --      1.1240                 1.7713                 1.1339
 Frc consts  --      1.5588                 2.4630                 1.5931
 IR Inten    --      2.0378                23.6988                 4.3324

                     76                     77                     78
                      A                      A                      A
 Frequencies --   1634.5409              1659.3648              3050.0422
 Red. masses --      6.0893                 5.7586                 1.0417
 Frc consts  --      9.5854                 9.3423                 5.7096
 IR Inten    --      1.4477                 2.9047                26.3563

                     79                     80                     81
                      A                      A                      A
 Frequencies --   3051.8727              3053.3441              3054.7667
 Red. masses --      1.0618                 1.0411                 1.0445
 Frc consts  --      5.8266                 5.7189                 5.7429
 IR Inten    --     17.4009                10.8659                61.0635

                     82                     83                     84
                      A                      A                      A
 Frequencies --   3061.1425              3061.7645              3105.0538
 Red. masses --      1.0585                 1.0576                 1.1047
 Frc consts  --      5.8439                 5.8413                 6.2753
 IR Inten    --     21.4628                14.3208                 3.4927

                     85                     86                     87
                      A                      A                      A
 Frequencies --   3105.7512              3109.6266              3120.8077
 Red. masses --      1.1044                 1.1003                 1.0991
 Frc consts  --      6.2763                 6.2684                 6.3070
 IR Inten    --      2.8477                11.6680                23.4804

                     88                     89                     90
                      A                      A                      A
 Frequencies --   3123.5690              3127.2223              3140.4034
 Red. masses --      1.0970                 1.0950                 1.1017
 Frc consts  --      6.3063                 6.3096                 6.4018
 IR Inten    --     29.3961                30.4587                25.7444

                     91                     92                     93
                      A                      A                      A
 Frequencies --   3152.0025              3158.5007              3174.3980
 Red. masses --      1.1011                 1.0995                 1.0870
 Frc consts  --      6.4454                 6.4625                 6.4538
 IR Inten    --     31.7164                14.9250                 9.2780

                     94                     95                     96
                      A                      A                      A
 Frequencies --   3190.1522              3202.7959              3213.4720
 Red. masses --      1.0880                 1.0924                 1.0968
 Frc consts  --      6.5239                 6.6025                 6.6733
 IR Inten    --      9.7176                29.8975                14.8052

 - Thermochemistry -
 -------------------
 Temperature   298.150 Kelvin.  Pressure   1.00000 Atm.
 Atom     1 has atomic number  6 and mass  12.00000

 Molecular mass:   241.09589 amu.
 Principal axes and moments of inertia in atomic units:
                           1         2         3
     Eigenvalues --  3006.776454656.777425300.09589
           X            0.99973   0.01583   0.01722
           Y           -0.01609   0.99975   0.01522
           Z           -0.01698  -0.01549   0.99974
 This molecule is an asymmetric top.
 Rotational symmetry number  1.
 Warning -- assumption of classical behavior for rotation
           may cause significant error
 Rotational temperatures (Kelvin)      0.02881     0.01860     0.01634
 Rotational constants (GHZ):           0.60022     0.38755     0.34051
 Zero-point vibrational energy     759453.2 (Joules/Mol)
                                  181.51367 (Kcal/Mol)
 Warning -- explicit consideration of  25 degrees of freedom as
           vibrations may cause significant error
 Vibrational temperatures:     47.25    67.99   103.08   121.95   128.19
          (Kelvin)            151.28   163.38   180.83   219.05   244.36
                              270.01   315.46   353.90   361.02   384.69
                              421.77   473.88   492.94   519.44   531.80
                              632.29   697.06   756.85   801.96   841.21
                              914.25   942.70   952.00  1048.17  1092.01
                             1104.91  1112.68  1128.33  1151.23  1183.49
                             1269.71  1275.40  1367.85  1410.37  1413.69
                             1422.86  1427.21  1521.96  1534.90  1544.08
                             1557.86  1561.04  1563.58  1577.28  1653.48
                             1719.98  1743.46  1790.66  1852.03  1856.13
                             1863.51  1900.31  1903.63  1906.10  1957.83
                             1978.79  2058.49  2063.99  2064.63  2142.29
                             2145.56  2149.76  2173.04  2180.25  2188.25
                             2193.01  2202.21  2207.36  2210.32  2221.80
                             2351.74  2387.46  4388.33  4390.96  4393.08
                             4395.13  4404.30  4405.20  4467.48  4468.48
                             4474.06  4490.15  4494.12  4499.38  4518.34
                             4535.03  4544.38  4567.25  4589.92  4608.11
                             4623.47

 Zero-point correction=                           0.289260 (Hartree/Particle)
 Thermal correction to Energy=                    0.306710
 Thermal correction to Enthalpy=                  0.307654
 Thermal correction to Gibbs Free Energy=         0.243551
 Sum of electronic and zero-point Energies=          -1319.606798
 Sum of electronic and thermal Energies=             -1319.589348
 Sum of electronic and thermal Enthalpies=           -1319.588404
 Sum of electronic and thermal Free Energies=        -1319.652507

                     E (Thermal)             CV                S
                      KCal/Mol        Cal/Mol-Kelvin    Cal/Mol-Kelvin
 Total                  192.463             64.202            134.917
 Electronic               0.000              0.000              0.000
 Translational            0.889              2.981             42.341
 Rotational               0.889              2.981             32.673
 Vibrational            190.686             58.240             59.903
 Vibration     1          0.594              1.983              5.650
 Vibration     2          0.595              1.979              4.929
 Vibration     3          0.598              1.968              4.108
 Vibration     4          0.601              1.960              3.777
 Vibration     5          0.602              1.957              3.680
 Vibration     6          0.605              1.945              3.357
 Vibration     7          0.607              1.938              3.207
 Vibration     8          0.611              1.927              3.011
 Vibration     9          0.619              1.900              2.644
 Vibration    10          0.625              1.880              2.437
 Vibration    11          0.632              1.857              2.251
 Vibration    12          0.647              1.812              1.965
 Vibration    13          0.660              1.769              1.759
 Vibration    14          0.663              1.761              1.724
 Vibration    15          0.672              1.733              1.613
 Vibration    16          0.688              1.687              1.456
 Vibration    17          0.712              1.617              1.263
 Vibration    18          0.722              1.590              1.200
 Vibration    19          0.735              1.553              1.118
 Vibration    20          0.742              1.535              1.081
 Vibration    21          0.799              1.384              0.828
 Vibration    22          0.841              1.284              0.698
 Vibration    23          0.881              1.192              0.596
 Vibration    24          0.913              1.124              0.529
 Vibration    25          0.942              1.065              0.477

 Optimization completed.
    -- Stationary point found.
 Normal termination of Gaussian 16 at Thu Dec 10 17:09:50 2020.

 ----------------------------------------------------------------------
 # B3LYP/6-311++G(d,p) empiricaldispersion=gd3bj scf=xqc pop=npa geom=c
 heck
 ----------------------------------------------------------------------

 --------------------------------------
 CID_88446458_JID_5657_Energie_neutraal
 --------------------------------------
 Structure from the checkpoint file:  "JID_5657.chk"
 Charge =  0 Multiplicity = 1

 SCF Done:  E(RB3LYP) =  -1320.09098426     A.U. after   15 cycles
 Normal termination of Gaussian 16 at Thu Dec 10 17:17:30 2020.

 ----------------------------------------------------------------------
 # B3LYP/6-311++G(d,p) empiricaldispersion=gd3bj scf=xqc pop=npa geom=c
 heck
 ----------------------------------------------------------------------

 ------------------------------------
 CID_88446458_JID_5657_Energie_kation
 ------------------------------------
 Structure from the checkpoint file:  "JID_5657.chk"
 Charge =  1 Multiplicity = 2

 SCF Done:  E(UB3LYP) =  -1319.82500198     A.U. after   25 cycles
 Normal termination of Gaussian 16 at Thu Dec 10 17:35:20 2020.
 Gaussian 16:  ES64L-G16RevA.03 25-Dec-2016

 ----------------------------------------------------------------------
 # B3LYP/6-311++G(d,p) empiricaldispersion=gd3bj scf=xqc pop=npa geom=c
 heck
 ----------------------------------------------------------------------

 -----------------------------------
 CID_88446458_JID_5657_Energie_anion
 -----------------------------------
 Structure from the checkpoint file:  "JID_5657.chk"
 Charge = -1 Multiplicity = 2

                         Standard orientation:
 ---------------------------------------------------------------------
 Center     Atomic      Atomic             Coordinates (Angstroms)
 Number     Number       Type             X           Y           Z
 ---------------------------------------------------------------------
      1          6           0       -0.698035    2.914797    0.824942
      2          6           0       -0.791073    1.526918    1.480740
      3          6           0       -1.628421    0.576796    0.660571
      4          6           0       -3.026483    0.618457    0.762836
      5          6           0       -3.842490   -0.200261   -0.012049
      6          6           0       -3.265623   -1.092240   -0.918882
      7          6           0       -1.881060   -1.153996   -1.033047
      8          6           0       -1.061164   -0.329033   -0.252551
      9          7           0        0.381313   -0.403034   -0.362294
     10         16           0        1.041641   -2.029670   -0.148532
     11          6           0        1.347562   -1.957625    1.653704
     12          6           0        2.492938   -1.041280    2.066561
     13         16           0        0.964678    0.405224   -1.817273
     14          6           0        2.619841    0.922379   -1.246335
     15          6           0        2.644953    2.111934   -0.293844
     16          1           0       -0.281999    2.835340   -0.183572
     17          1           0       -0.060232    3.586105    1.411378
     18          1           0       -1.690630    3.371562    0.743082
     19          1           0        0.210942    1.109869    1.605952
     20          1           0       -1.232044    1.627484    2.480390
     21          1           0       -3.474492    1.310176    1.472688
     22          1           0       -4.922433   -0.147988    0.093742
     23          1           0       -3.889894   -1.737403   -1.530253
     24          1           0       -1.416487   -1.854288   -1.720293
     25          1           0        0.408220   -1.673505    2.139557
     26          1           0        1.551479   -2.999605    1.928878
     27          1           0        2.298905   -0.015455    1.743714
     28          1           0        2.608197   -1.038381    3.157411
     29          1           0        3.437581   -1.367827    1.620123
     30          1           0        3.092380    0.037524   -0.806246
     31          1           0        3.159042    1.146288   -2.174638
     32          1           0        2.062306    1.904160    0.606319
     33          1           0        3.675738    2.331164    0.011074
     34          1           0        2.227458    3.006083   -0.766242
 ---------------------------------------------------------------------

 SCF Done:  E(UB3LYP) =  -1320.07677126     A.U. after   33 cycles
 SCF Done:  E(UB3LYP) =  -1320.07677126     a.u. after    1 cycles

 The electronic state is 2-A.
 Alpha  occ. eigenvalues --  -88.76911 -88.76142 -14.25681 -10.11070 -10.10360
 Alpha  occ. eigenvalues --  -10.10113 -10.08258 -10.07954 -10.07898 -10.07805
 Alpha  occ. eigenvalues --  -10.07638 -10.06861 -10.06717 -10.06446 -10.05829
 Alpha  occ. eigenvalues --   -7.85306  -7.84577  -5.81842  -5.81314  -5.81095
 Alpha  occ. eigenvalues --   -5.80595  -5.80573  -5.79845  -0.84117  -0.75738
 Alpha  occ. eigenvalues --   -0.70317  -0.69170  -0.68813  -0.64313  -0.62535
 Alpha  occ. eigenvalues --   -0.60692  -0.57312  -0.53563  -0.51779  -0.50894
 Alpha  occ. eigenvalues --   -0.48611  -0.46263  -0.41042  -0.38644  -0.37876
 Alpha  occ. eigenvalues --   -0.37339  -0.35859  -0.34069  -0.33872  -0.33314
 Alpha  occ. eigenvalues --   -0.32940  -0.32533  -0.31731  -0.30021  -0.28948
 Alpha  occ. eigenvalues --   -0.28598  -0.27955  -0.26956  -0.26590  -0.26313
 Alpha  occ. eigenvalues --   -0.25721  -0.25116  -0.23847  -0.23694  -0.22802
 Alpha  occ. eigenvalues --   -0.17376  -0.16336  -0.15315  -0.14482  -0.10721
 Alpha  occ. eigenvalues --    0.04413
 Alpha virt. eigenvalues --    0.06278   0.06642   0.06917   0.07034   0.07647
 Alpha virt. eigenvalues --    0.08095   0.08357   0.08964   0.09315   0.09444
 Alpha virt. eigenvalues --    0.09897   0.10629   0.11113   0.11835   0.11910

  Beta  occ. eigenvalues --  -88.76910 -88.76127 -14.25656 -10.11016 -10.10349
  Beta  occ. eigenvalues --  -10.10095 -10.08215 -10.07951 -10.07880 -10.07760
  Beta  occ. eigenvalues --  -10.07638 -10.06852 -10.06686 -10.06410 -10.05801
  Beta  occ. eigenvalues --   -7.85304  -7.84560  -5.81840  -5.81310  -5.81059
  Beta  occ. eigenvalues --   -5.80584  -5.80572  -5.79834  -0.84025  -0.75672
  Beta  occ. eigenvalues --   -0.70281  -0.69103  -0.68761  -0.64254  -0.62472
  Beta  occ. eigenvalues --   -0.60632  -0.57237  -0.53511  -0.51697  -0.50824
  Beta  occ. eigenvalues --   -0.48556  -0.46195  -0.40997  -0.38604  -0.37834
  Beta  occ. eigenvalues --   -0.37281  -0.35809  -0.34009  -0.33829  -0.33284
  Beta  occ. eigenvalues --   -0.32897  -0.32495  -0.31669  -0.29957  -0.28890
  Beta  occ. eigenvalues --   -0.28536  -0.27898  -0.26920  -0.26558  -0.26252
  Beta  occ. eigenvalues --   -0.25653  -0.25043  -0.23803  -0.23667  -0.22766
  Beta  occ. eigenvalues --   -0.17320  -0.16190  -0.15085  -0.14434  -0.10656
  Beta virt. eigenvalues --    0.06444   0.06867   0.06960   0.07414   0.07487
  Beta virt. eigenvalues --    0.07989   0.08404   0.08699   0.09282   0.09676
  Beta virt. eigenvalues --    0.09796   0.10288   0.10798   0.11479   0.12036

 Mulliken charges and spin densities:
               1          2
     1  C    0.704826  -1.355994
     2  C   -0.476239  -0.091996
     3  C   -0.609610   1.222099
     4  C    0.369982  -0.672438
     5  C    0.336108  -0.577641
     6  C    0.029639  -0.504988
     7  C   -0.232897   0.086253
     8  C   -0.427041   0.543722
     9  N    0.226395  -0.017414
    10  S    0.471638  -0.286298
    11  C   -0.798461   0.288397
    12  C    0.816347  -1.233605
    13  S    0.198559  -0.081012
    14  C   -0.250880  -0.242748
    15  C    0.149031  -0.456993
    16  H    0.119345   0.012123
    17  H   -0.328692   0.476643
    18  H    0.075007   0.057028
    19  H    0.416572  -0.306250
    20  H   -0.389273   0.572352
    21  H   -0.252381   0.419266
    22  H   -0.169486   0.313119
    23  H    0.072912   0.071459
    24  H    0.103254   0.008281
    25  H    0.133032   0.028667
    26  H   -0.292226   0.498333
    27  H   -0.103511   0.292097
    28  H   -0.308299   0.443394
    29  H   -0.264160   0.396527
    30  H    0.200985  -0.058981
    31  H   -0.091933   0.302595
    32  H   -0.047158   0.184604
    33  H   -0.464241   0.618479
    34  H    0.082858   0.050921
 Sum of Mulliken charges =  -1.00000   1.00000

 Dipole moment (field-independent basis, Debye):
    X=             -2.9063    Y=             -2.2770    Z=             -4.5354  Tot=              5.8482
 Quadrupole moment (field-independent basis, Debye-Ang):
   XX=           -173.6836   YY=           -156.0248   ZZ=           -151.0666
   XY=              1.7080   XZ=             -3.4669   YZ=             -3.2979

 Summary of Natural Population Analysis:

                                       Natural Population
                Natural  -----------------------------------------------
    Atom  No    Charge         Core      Valence    Rydberg      Total
 -----------------------------------------------------------------------
      C    1   -0.28082      0.99965     2.27610    0.00506     3.28082
      C    2   -0.20242      0.99960     2.19313    0.00968     3.20242
      C    3   -0.00419      0.99945     1.99389    0.01084     3.00419
      C    4   -0.10077      0.99952     2.09164    0.00961     3.10077
      C    5   -0.09610      0.99957     2.08639    0.01014     3.09610
      C    6   -0.10428      0.99957     2.09540    0.00932     3.10428
      C    7   -0.10354      0.99950     2.09612    0.00791     3.10354
      C    8    0.08321      0.99939     1.90490    0.01250     2.91679
      N    9   -0.40032      0.99974     2.88650    0.01408     3.90032
      S   10    0.18666      4.99956     2.79440    0.01938     7.81334
      C   11   -0.25597      0.99960     2.24509    0.01127     3.25597
      C   12   -0.29113      0.99964     2.28449    0.00699     3.29113
      S   13    0.19265      4.99955     2.78907    0.01874     7.80735
      C   14   -0.26168      0.99960     2.25077    0.01131     3.26168
      C   15   -0.29048      0.99964     2.28384    0.00699     3.29048
      H   16    0.10128      0.00000     0.39748    0.00124     0.39872
      H   17    0.09905      0.00000     0.39973    0.00122     0.40095
      H   18    0.09496      0.00000     0.40405    0.00099     0.40504
      H   19    0.10648      0.00000     0.39097    0.00255     0.39352
      H   20    0.09969      0.00000     0.39873    0.00158     0.40031
      H   21    0.10092      0.00000     0.39796    0.00112     0.39908
      H   22    0.09837      0.00000     0.40084    0.00079     0.40163
      H   23    0.09760      0.00000     0.40162    0.00078     0.40240
      H   24    0.10533      0.00000     0.39331    0.00136     0.39467
      H   25    0.10341      0.00000     0.39505    0.00154     0.39659
      H   26    0.10401      0.00000     0.39469    0.00130     0.39599
      H   27    0.10122      0.00000     0.39663    0.00215     0.39878
      H   28    0.10129      0.00000     0.39725    0.00146     0.39871
      H   29    0.09980      0.00000     0.39853    0.00166     0.40020
      H   30    0.10986      0.00000     0.38835    0.00179     0.39014
      H   31    0.10292      0.00000     0.39599    0.00109     0.39708
      H   32    0.10220      0.00000     0.39581    0.00199     0.39780
      H   33    0.10170      0.00000     0.39681    0.00148     0.39830
      H   34    0.09908      0.00000     0.39983    0.00110     0.40092
 =======================================================================
   * Total *    0.00000     22.99359    41.81538    0.19104    65.00000

 Normal termination of Gaussian 16 at Thu Dec 10 17:57:34 2020.
