 Gaussian 16, Revision A.03,

 -----------------------------------------------------------
 # opt freq B3LYP/6-31G(d) empiricaldispersion=gd3bj scf=xqc
 -----------------------------------------------------------

 ------------------------------
 CID_19426581_JID_2107_neutraal
 ------------------------------
 Symbolic Z-matrix:
 Charge =  0 Multiplicity = 1

 SCF Done:  E(RB3LYP) =  -505.038705409     A.U. after   13 cycles
 SCF Done:  E(RB3LYP) =  -505.042229280     A.U. after   11 cycles
 SCF Done:  E(RB3LYP) =  -505.041807348     A.U. after   11 cycles
 SCF Done:  E(RB3LYP) =  -505.043032645     A.U. after   10 cycles
 SCF Done:  E(RB3LYP) =  -505.043244826     A.U. after   10 cycles
 SCF Done:  E(RB3LYP) =  -505.043518916     A.U. after   10 cycles
 SCF Done:  E(RB3LYP) =  -505.043556056     A.U. after    9 cycles
 SCF Done:  E(RB3LYP) =  -505.043577549     A.U. after    9 cycles
 SCF Done:  E(RB3LYP) =  -505.043586959     A.U. after    8 cycles
 SCF Done:  E(RB3LYP) =  -505.043591569     A.U. after    7 cycles
 SCF Done:  E(RB3LYP) =  -505.043593100     A.U. after    7 cycles
 SCF Done:  E(RB3LYP) =  -505.043593541     A.U. after    7 cycles
 SCF Done:  E(RB3LYP) =  -505.043593758     A.U. after    6 cycles
 SCF Done:  E(RB3LYP) =  -505.043593933     A.U. after    6 cycles
 Optimization completed.
    -- Stationary point found.
 Normal termination of Gaussian 16 at Wed Dec  9 16:53:41 2020.

 --------------------------------------------------------------------
 #N Geom=AllCheck Guess=TCheck SCRF=Check GenChk RB3LYP/6-31G(d) Freq
 --------------------------------------------------------------------

 Structure from the checkpoint file:  "JID_2107.chk"
 ------------------------------
 CID_19426581_JID_2107_neutraal
 ------------------------------
 Charge =  0 Multiplicity = 1

 SCF Done:  E(RB3LYP) =  -505.043593933     A.U. after    1 cycles

  Exact polarizability: 129.184  -1.356 119.621   0.865   0.087 113.412
 Approx polarizability: 162.928   0.136 165.328   1.560   0.317 163.132

                      1                      2                      3
                      A                      A                      A
 Frequencies --     34.4318                49.4823                66.3492
 Red. masses --      2.9918                 2.5581                 2.7064
 Frc consts  --      0.0021                 0.0037                 0.0070
 IR Inten    --      0.0667                 0.1516                 0.4455

                      4                      5                      6
                      A                      A                      A
 Frequencies --     99.0550               122.5919               172.9149
 Red. masses --      2.5838                 1.9504                 2.2889
 Frc consts  --      0.0149                 0.0173                 0.0403
 IR Inten    --      0.2193                 0.0654                 0.5083

                      7                      8                      9
                      A                      A                      A
 Frequencies --    196.1503               214.3741               224.4126
 Red. masses --      2.1789                 1.2953                 1.8464
 Frc consts  --      0.0494                 0.0351                 0.0548
 IR Inten    --      1.3879                 0.7234                 1.1692

                     10                     11                     12
                      A                      A                      A
 Frequencies --    241.6680               260.2665               267.7665
 Red. masses --      1.3690                 1.5238                 1.6047
 Frc consts  --      0.0471                 0.0608                 0.0678
 IR Inten    --      0.0699                 1.9254                 0.3912

                     13                     14                     15
                      A                      A                      A
 Frequencies --    272.0495               285.6042               303.0261
 Red. masses --      1.5153                 1.1289                 1.3223
 Frc consts  --      0.0661                 0.0543                 0.0715
 IR Inten    --      1.7848                 0.5748                 1.4354

                     16                     17                     18
                      A                      A                      A
 Frequencies --    313.1090               324.0596               344.1086
 Red. masses --      1.7498                 2.1243                 2.4718
 Frc consts  --      0.1011                 0.1314                 0.1724
 IR Inten    --      1.3271                 1.7095                 4.7371

                     19                     20                     21
                      A                      A                      A
 Frequencies --    367.0064               385.9407               424.0742
 Red. masses --      2.1977                 1.8934                 2.8137
 Frc consts  --      0.1744                 0.1662                 0.2981
 IR Inten    --      0.7960                 1.4983                 1.7988

                     22                     23                     24
                      A                      A                      A
 Frequencies --    460.7036               488.2917               540.0146
 Red. masses --      2.4931                 2.3753                 2.5560
 Frc consts  --      0.3118                 0.3337                 0.4392
 IR Inten    --      2.4131                 0.4111                 2.3966

                     25                     26                     27
                      A                      A                      A
 Frequencies --    644.5986               732.3755               831.5988
 Red. masses --      2.5608                 2.0633                 1.5127
 Frc consts  --      0.6269                 0.6520                 0.6163
 IR Inten    --      3.4329                 2.1371                 0.2110

                     28                     29                     30
                      A                      A                      A
 Frequencies --    854.6137               880.3639               916.9951
 Red. masses --      3.3356                 2.3251                 1.9772
 Frc consts  --      1.4354                 1.0617                 0.9796
 IR Inten    --     18.3309                 8.7365                 1.5222

                     31                     32                     33
                      A                      A                      A
 Frequencies --    956.2995               980.4806              1040.1400
 Red. masses --      1.6916                 1.7886                 1.6320
 Frc consts  --      0.9115                 1.0131                 1.0403
 IR Inten    --     12.9830                 1.3774                 5.7746

                     34                     35                     36
                      A                      A                      A
 Frequencies --   1050.0873              1058.1317              1072.0470
 Red. masses --      1.9215                 2.6161                 1.8962
 Frc consts  --      1.2483                 1.7257                 1.2840
 IR Inten    --     38.1587                19.3466                15.7274

                     37                     38                     39
                      A                      A                      A
 Frequencies --   1083.2888              1098.0551              1110.8190
 Red. masses --      1.8291                 1.4613                 1.7742
 Frc consts  --      1.2647                 1.0381                 1.2898
 IR Inten    --     14.0690                 8.3784                19.5233

                     40                     41                     42
                      A                      A                      A
 Frequencies --   1128.7839              1135.6183              1138.5094
 Red. masses --      1.5943                 1.4917                 1.2861
 Frc consts  --      1.1969                 1.1334                 0.9822
 IR Inten    --      1.1615                 9.6361                10.9410

                     43                     44                     45
                      A                      A                      A
 Frequencies --   1159.9576              1166.9080              1186.1093
 Red. masses --      1.9355                 1.8891                 1.3748
 Frc consts  --      1.5344                 1.5156                 1.1396
 IR Inten    --     13.2430                 2.7049                 7.1941

                     46                     47                     48
                      A                      A                      A
 Frequencies --   1200.4066              1247.0674              1256.1629
 Red. masses --      1.6231                 2.0304                 2.4488
 Frc consts  --      1.3780                 1.8605                 2.2766
 IR Inten    --     17.3432                 6.9286                11.7125

                     49                     50                     51
                      A                      A                      A
 Frequencies --   1296.4125              1296.7067              1316.1635
 Red. masses --      1.4409                 1.4409                 2.0043
 Frc consts  --      1.4268                 1.4275                 2.0456
 IR Inten    --     11.2402                 7.5002                 6.8120

                     52                     53                     54
                      A                      A                      A
 Frequencies --   1344.6791              1351.2017              1368.2591
 Red. masses --      2.3416                 1.3056                 1.3694
 Frc consts  --      2.4946                 1.4044                 1.5105
 IR Inten    --     23.3753                 3.0071                 8.4296

                     55                     56                     57
                      A                      A                      A
 Frequencies --   1381.3210              1388.6081              1432.7625
 Red. masses --      1.4417                 1.3907                 1.3004
 Frc consts  --      1.6208                 1.5800                 1.5729
 IR Inten    --      6.1581                 1.7538                 9.3105

                     58                     59                     60
                      A                      A                      A
 Frequencies --   1440.2491              1443.3798              1448.0572
 Red. masses --      1.2916                 1.2741                 1.2833
 Frc consts  --      1.5785                 1.5639                 1.5855
 IR Inten    --      4.2437                 5.2394                23.1939

                     61                     62                     63
                      A                      A                      A
 Frequencies --   1467.1366              1474.9562              1498.3356
 Red. masses --      1.1618                 1.1433                 1.1158
 Frc consts  --      1.4734                 1.4655                 1.4759
 IR Inten    --      2.7566                 0.2781                 7.5312

                     64                     65                     66
                      A                      A                      A
 Frequencies --   1499.5370              1507.6758              1513.5727
 Red. masses --      1.1708                 1.0730                 1.0512
 Frc consts  --      1.5511                 1.4370                 1.4188
 IR Inten    --      3.4905                 7.9170                10.0898

                     67                     68                     69
                      A                      A                      A
 Frequencies --   1519.7707              1521.2998              1523.0986
 Red. masses --      1.0746                 1.0751                 1.0797
 Frc consts  --      1.4623                 1.4660                 1.4758
 IR Inten    --      1.4403                 1.0505                18.6269

                     70                     71                     72
                      A                      A                      A
 Frequencies --   1528.6253              1530.7836              1534.9808
 Red. masses --      1.0474                 1.0459                 1.0636
 Frc consts  --      1.4420                 1.4440                 1.4765
 IR Inten    --      4.8041                10.7057                 9.0134

                     73                     74                     75
                      A                      A                      A
 Frequencies --   1535.6625              1540.4960              1542.5600
 Red. masses --      1.0446                 1.0595                 1.0620
 Frc consts  --      1.4514                 1.4813                 1.4889
 IR Inten    --      2.4586                 7.0948                 4.1327

                     76                     77                     78
                      A                      A                      A
 Frequencies --   1544.5621              1550.5644              1560.1698
 Red. masses --      1.0538                 1.0655                 1.0614
 Frc consts  --      1.4812                 1.5094                 1.5222
 IR Inten    --      0.3798                 5.9005                 6.9528

                     79                     80                     81
                      A                      A                      A
 Frequencies --   2923.5035              2931.8492              2934.9916
 Red. masses --      1.0618                 1.0615                 1.0629
 Frc consts  --      5.3468                 5.3761                 5.3945
 IR Inten    --     47.0546                30.8132               124.7436

                     82                     83                     84
                      A                      A                      A
 Frequencies --   2941.6862              2990.0990              3038.7978
 Red. masses --      1.0650                 1.0676                 1.0754
 Frc consts  --      5.4301                 5.6237                 5.8511
 IR Inten    --    128.3775                84.5285                64.1765

                     85                     86                     87
                      A                      A                      A
 Frequencies --   3042.0146              3045.5609              3048.4200
 Red. masses --      1.0570                 1.0637                 1.0687
 Frc consts  --      5.7630                 5.8130                 5.8511
 IR Inten    --      0.8390                38.0233                 5.2251

                     88                     89                     90
                      A                      A                      A
 Frequencies --   3052.6954              3059.1009              3061.2215
 Red. masses --      1.0710                 1.0511                 1.0784
 Frc consts  --      5.8806                 5.7952                 5.9543
 IR Inten    --     77.1328                16.0706                17.2583

                     91                     92                     93
                      A                      A                      A
 Frequencies --   3065.8805              3074.9052              3086.7793
 Red. masses --      1.0805                 1.0692                 1.0879
 Frc consts  --      5.9840                 5.9561                 6.1074
 IR Inten    --     32.3986                46.0229                18.6434

                     94                     95                     96
                      A                      A                      A
 Frequencies --   3088.2744              3106.7464              3114.0631
 Red. masses --      1.0825                 1.1010                 1.0964
 Frc consts  --      6.0828                 6.2612                 6.2644
 IR Inten    --     36.6995                40.2140                32.0863

                     97                     98                     99
                      A                      A                      A
 Frequencies --   3119.2493              3119.7670              3121.4299
 Red. masses --      1.1013                 1.1018                 1.1008
 Frc consts  --      6.3133                 6.3180                 6.3194
 IR Inten    --     56.9931                45.4449                36.4454

                    100                    101                    102
                      A                      A                      A
 Frequencies --   3129.3736              3135.1106              3141.4635
 Red. masses --      1.0959                 1.1000                 1.1005
 Frc consts  --      6.3232                 6.3699                 6.3987
 IR Inten    --     43.3934                34.3823                22.9163

 - Thermochemistry -
 -------------------
 Temperature   298.150 Kelvin.  Pressure   1.00000 Atm.
 Atom     1 has atomic number  6 and mass  12.00000

 Molecular mass:   172.19395 amu.
 Principal axes and moments of inertia in atomic units:
                           1         2         3
     Eigenvalues --  1728.365502962.562563405.74334
           X            0.99968  -0.02383   0.00862
           Y            0.02371   0.99962   0.01396
           Z           -0.00895  -0.01375   0.99987
 This molecule is an asymmetric top.
 Rotational symmetry number  1.
 Warning -- assumption of classical behavior for rotation
           may cause significant error
 Rotational temperatures (Kelvin)      0.05011     0.02924     0.02543
 Rotational constants (GHZ):           1.04419     0.60918     0.52991
 Zero-point vibrational energy     889192.9 (Joules/Mol)
                                  212.52220 (Kcal/Mol)
 Warning -- explicit consideration of  24 degrees of freedom as
           vibrations may cause significant error
 Vibrational temperatures:     49.54    71.19    95.46   142.52   176.38
          (Kelvin)            248.79   282.22   308.44   322.88   347.71
                              374.47   385.26   391.42   410.92   435.99
                              450.49   466.25   495.10   528.04   555.28
                              610.15   662.85   702.54   776.96   927.43
                             1053.72  1196.49  1229.60  1266.65  1319.35
                             1375.90  1410.69  1496.53  1510.84  1522.42
                             1542.44  1558.61  1579.86  1598.22  1624.07
                             1633.90  1638.06  1668.92  1678.92  1706.55
                             1727.12  1794.25  1807.34  1865.25  1865.67
                             1893.67  1934.69  1944.08  1968.62  1987.41
                             1997.90  2061.43  2072.20  2076.70  2083.43
                             2110.88  2122.13  2155.77  2157.50  2169.21
                             2177.69  2186.61  2188.81  2191.40  2199.35
                             2202.46  2208.50  2209.48  2216.43  2219.40
                             2222.28  2230.92  2244.74  4206.27  4218.28
                             4222.80  4232.43  4302.09  4372.15  4376.78
                             4381.88  4386.00  4392.15  4401.36  4404.41
                             4411.12  4424.10  4441.19  4443.34  4469.92
                             4480.44  4487.90  4488.65  4491.04  4502.47
                             4510.72  4519.87

 Zero-point correction=                           0.338676 (Hartree/Particle)
 Thermal correction to Energy=                    0.354324
 Thermal correction to Enthalpy=                  0.355268
 Thermal correction to Gibbs Free Energy=         0.296605
 Sum of electronic and zero-point Energies=           -504.704918
 Sum of electronic and thermal Energies=              -504.689270
 Sum of electronic and thermal Enthalpies=            -504.688325
 Sum of electronic and thermal Free Energies=         -504.746989

                     E (Thermal)             CV                S
                      KCal/Mol        Cal/Mol-Kelvin    Cal/Mol-Kelvin
 Total                  222.342             58.033            123.467
 Electronic               0.000              0.000              0.000
 Translational            0.889              2.981             41.338
 Rotational               0.889              2.981             31.234
 Vibrational            220.564             52.072             50.895
 Vibration     1          0.594              1.983              5.556
 Vibration     2          0.595              1.978              4.838
 Vibration     3          0.598              1.970              4.259
 Vibration     4          0.604              1.950              3.473
 Vibration     5          0.610              1.930              3.059
 Vibration     6          0.626              1.876              2.404
 Vibration     7          0.636              1.845              2.169
 Vibration     8          0.644              1.819              2.006
 Vibration     9          0.649              1.804              1.923
 Vibration    10          0.658              1.777              1.791
 Vibration    11          0.668              1.745              1.660
 Vibration    12          0.673              1.732              1.611
 Vibration    13          0.675              1.725              1.583
 Vibration    14          0.683              1.700              1.500
 Vibration    15          0.694              1.668              1.400
 Vibration    16          0.701              1.649              1.346
 Vibration    17          0.709              1.627              1.290
 Vibration    18          0.723              1.587              1.193
 Vibration    19          0.740              1.540              1.092
 Vibration    20          0.755              1.500              1.016
 Vibration    21          0.786              1.418              0.878
 Vibration    22          0.819              1.337              0.764
 Vibration    23          0.844              1.276              0.688
 Vibration    24          0.895              1.162              0.565

 Optimization completed.
    -- Stationary point found.
 Normal termination of Gaussian 16 at Wed Dec  9 17:03:48 2020.

 ----------------------------------------------------------------------
 # B3LYP/6-311++G(d,p) empiricaldispersion=gd3bj scf=xqc pop=npa geom=c
 heck
 ----------------------------------------------------------------------

 --------------------------------------
 CID_19426581_JID_2107_Energie_neutraal
 --------------------------------------
 Structure from the checkpoint file:  "JID_2107.chk"
 Charge =  0 Multiplicity = 1

 SCF Done:  E(RB3LYP) =  -505.186858482     A.U. after   14 cycles
 Normal termination of Gaussian 16 at Wed Dec  9 17:08:24 2020.

 ----------------------------------------------------------------------
 # B3LYP/6-311++G(d,p) empiricaldispersion=gd3bj scf=xqc pop=npa geom=c
 heck
 ----------------------------------------------------------------------

 ------------------------------------
 CID_19426581_JID_2107_Energie_kation
 ------------------------------------
 Structure from the checkpoint file:  "JID_2107.chk"
 Charge =  1 Multiplicity = 2

 SCF Done:  E(UB3LYP) =  -504.918169619     A.U. after   25 cycles
 Normal termination of Gaussian 16 at Wed Dec  9 17:18:37 2020.
 Gaussian 16:  ES64L-G16RevA.03 25-Dec-2016

 ----------------------------------------------------------------------
 # B3LYP/6-311++G(d,p) empiricaldispersion=gd3bj scf=xqc pop=npa geom=c
 heck
 ----------------------------------------------------------------------

 -----------------------------------
 CID_19426581_JID_2107_Energie_anion
 -----------------------------------
 Structure from the checkpoint file:  "JID_2107.chk"
 Charge = -1 Multiplicity = 2

                         Standard orientation:
 ---------------------------------------------------------------------
 Center     Atomic      Atomic             Coordinates (Angstroms)
 Number     Number       Type             X           Y           Z
 ---------------------------------------------------------------------
      1          6           0        2.159154   -2.354430   -0.807239
      2          6           0        2.338367   -0.860819   -0.520018
      3          6           0        1.022094   -0.059704   -0.422021
      4          6           0        0.023419   -0.674053    0.612375
      5          6           0        0.606493   -0.914459    2.016862
      6          6           0       -1.316145    0.091299    0.726382
      7          7           0       -2.424070   -0.538755    0.002694
      8          6           0       -3.685842    0.098653    0.347836
      9          6           0       -2.234094   -0.542392   -1.439827
     10          7           0        1.346740    1.369879   -0.324843
     11          6           0        0.591256    2.305197   -1.131378
     12          6           0        1.741090    1.914292    0.954900
     13          1           0        1.693079   -2.885942    0.029044
     14          1           0        3.126211   -2.831306   -1.001601
     15          1           0        1.528788   -2.512950   -1.691610
     16          1           0        2.928164   -0.730079    0.395851
     17          1           0        2.924369   -0.398763   -1.322029
     18          1           0        0.537472   -0.162819   -1.399412
     19          1           0       -0.233896   -1.665939    0.220004
     20          1           0        0.752063    0.017281    2.570282
     21          1           0       -0.086978   -1.534332    2.596452
     22          1           0        1.566684   -1.438063    1.985465
     23          1           0       -1.616108    0.118580    1.780295
     24          1           0       -1.188208    1.144423    0.421345
     25          1           0       -3.728484    1.168408    0.059042
     26          1           0       -4.510528   -0.418968   -0.154022
     27          1           0       -3.849215    0.034454    1.429023
     28          1           0       -2.122447    0.474322   -1.867521
     29          1           0       -1.347989   -1.123952   -1.706757
     30          1           0       -3.097585   -1.017151   -1.917735
     31          1           0       -0.357178    2.652104   -0.679073
     32          1           0        1.202467    3.198737   -1.320554
     33          1           0        0.351219    1.853578   -2.099063
     34          1           0        0.894887    2.135057    1.634025
     35          1           0        2.417592    1.227577    1.470526
     36          1           0        2.282186    2.856373    0.795829
 ---------------------------------------------------------------------

 SCF Done:  E(UB3LYP) =  -505.170614749     A.U. after   26 cycles

 The electronic state is 2-A.
 Alpha  occ. eigenvalues --  -14.20407 -14.19697 -10.09581 -10.08532 -10.08492
 Alpha  occ. eigenvalues --  -10.08488 -10.08415 -10.08295 -10.07009 -10.06041
 Alpha  occ. eigenvalues --  -10.05960 -10.05720  -0.82463  -0.81599  -0.70145
 Alpha  occ. eigenvalues --   -0.65983  -0.60879  -0.60489  -0.59418  -0.58916
 Alpha  occ. eigenvalues --   -0.51944  -0.51027  -0.48110  -0.44431  -0.39620
 Alpha  occ. eigenvalues --   -0.37940  -0.37303  -0.36808  -0.34935  -0.34505
 Alpha  occ. eigenvalues --   -0.33649  -0.32390  -0.31171  -0.30334  -0.29617
 Alpha  occ. eigenvalues --   -0.28894  -0.28634  -0.27818  -0.27314  -0.27016
 Alpha  occ. eigenvalues --   -0.26396  -0.25910  -0.25087  -0.24640  -0.22724
 Alpha  occ. eigenvalues --   -0.21572  -0.21133  -0.11800  -0.10058   0.04495
 Alpha virt. eigenvalues --    0.06616   0.06991   0.07258   0.08614   0.08874
 Alpha virt. eigenvalues --    0.09488   0.09600   0.09716   0.10930   0.11629
 Alpha virt. eigenvalues --    0.11750   0.12155   0.12574   0.12645   0.13228

  Beta  occ. eigenvalues --  -14.20394 -14.19694 -10.09575 -10.08521 -10.08466
  Beta  occ. eigenvalues --  -10.08462 -10.08389 -10.08267 -10.07004 -10.06027
  Beta  occ. eigenvalues --  -10.05934 -10.05697  -0.82437  -0.81580  -0.70124
  Beta  occ. eigenvalues --   -0.65954  -0.60837  -0.60443  -0.59378  -0.58875
  Beta  occ. eigenvalues --   -0.51891  -0.50966  -0.48053  -0.44391  -0.39592
  Beta  occ. eigenvalues --   -0.37916  -0.37272  -0.36771  -0.34907  -0.34473
  Beta  occ. eigenvalues --   -0.33619  -0.32364  -0.31138  -0.30305  -0.29587
  Beta  occ. eigenvalues --   -0.28863  -0.28604  -0.27789  -0.27281  -0.26983
  Beta  occ. eigenvalues --   -0.26362  -0.25885  -0.25055  -0.24612  -0.22696
  Beta  occ. eigenvalues --   -0.21545  -0.21109  -0.11740  -0.10037
  Beta virt. eigenvalues --    0.06510   0.07355   0.07633   0.07913   0.09117
  Beta virt. eigenvalues --    0.09384   0.09955   0.09973   0.10123   0.11388
  Beta virt. eigenvalues --    0.11971   0.12105   0.12520   0.12802   0.12986

 Mulliken charges and spin densities:
               1          2
     1  C    0.424959  -1.081962
     2  C   -0.067937   0.229205
     3  C   -0.855348   0.117203
     4  C   -0.505573   1.077312
     5  C    0.452733  -1.270037
     6  C   -0.918966  -0.187688
     7  N    0.075881   0.132995
     8  C    0.627071  -0.889953
     9  C    0.097474  -0.547148
    10  N    0.084480   0.140000
    11  C    0.613940  -0.844919
    12  C    0.405284  -0.741734
    13  H   -0.151536   0.291286
    14  H   -0.276962   0.425788
    15  H   -0.129576   0.270304
    16  H    0.082764   0.043112
    17  H   -0.068837   0.242605
    18  H    0.469706  -0.328749
    19  H    0.468235  -0.205384
    20  H    0.044662   0.104107
    21  H   -0.075871   0.235686
    22  H   -0.060228   0.199776
    23  H   -0.045613   0.222389
    24  H    0.678972  -0.587587
    25  H   -0.267877   0.374853
    26  H   -0.109748   0.238015
    27  H   -0.244788   0.365385
    28  H    0.155776  -0.030155
    29  H   -0.288344   0.419073
    30  H   -0.375837   0.538529
    31  H   -0.249682   0.368148
    32  H   -0.038421   0.180956
    33  H   -0.419408   0.545538
    34  H   -0.232232   0.371498
    35  H   -0.137325   0.280879
    36  H   -0.161824   0.300674
 Sum of Mulliken charges =  -1.00000   1.00000

 Dipole moment (field-independent basis, Debye):
    X=              1.1120    Y=             -0.0794    Z=              0.8849  Tot=              1.4234
 Quadrupole moment (field-independent basis, Debye-Ang):
   XX=           -144.6956   YY=           -129.8434   ZZ=           -124.1194
   XY=              1.2605   XZ=             -0.7557   YZ=             -1.8327

 Summary of Natural Population Analysis:

                                       Natural Population
                Natural  -----------------------------------------------
    Atom  No    Charge         Core      Valence    Rydberg      Total
 -----------------------------------------------------------------------
      C    1   -0.28851      0.99966     2.28385    0.00500     3.28851
      C    2   -0.19326      0.99961     2.18378    0.00986     3.19326
      C    3    0.00600      0.99954     1.98012    0.01434     2.99400
      C    4   -0.13043      0.99957     2.11953    0.01132     3.13043
      C    5   -0.28656      0.99965     2.28061    0.00631     3.28656
      C    6   -0.08135      0.99958     2.06970    0.01207     3.08135
      N    7   -0.27472      0.99973     2.76265    0.01234     3.77472
      C    8   -0.17597      0.99965     2.16774    0.00858     3.17597
      C    9   -0.17874      0.99964     2.17009    0.00901     3.17874
      N   10   -0.28975      0.99971     2.77581    0.01422     3.78975
      C   11   -0.16915      0.99963     2.16140    0.00812     3.16915
      C   12   -0.17510      0.99964     2.16687    0.00860     3.17510
      H   13    0.09648      0.00000     0.40246    0.00105     0.40352
      H   14    0.09914      0.00000     0.40000    0.00087     0.40086
      H   15    0.09669      0.00000     0.40215    0.00116     0.40331
      H   16    0.09405      0.00000     0.40469    0.00126     0.40595
      H   17    0.10060      0.00000     0.39795    0.00146     0.39940
      H   18    0.09683      0.00000     0.40064    0.00253     0.40317
      H   19    0.10327      0.00000     0.39409    0.00265     0.39673
      H   20    0.09837      0.00000     0.40048    0.00115     0.40163
      H   21    0.09986      0.00000     0.39932    0.00082     0.40014
      H   22    0.09932      0.00000     0.39973    0.00095     0.40068
      H   23    0.09416      0.00000     0.40408    0.00175     0.40584
      H   24    0.08355      0.00000     0.41374    0.00271     0.41645
      H   25    0.08001      0.00000     0.41849    0.00150     0.41999
      H   26    0.09448      0.00000     0.40433    0.00120     0.40552
      H   27    0.09468      0.00000     0.40409    0.00123     0.40532
      H   28    0.08106      0.00000     0.41754    0.00140     0.41894
      H   29    0.09486      0.00000     0.40331    0.00183     0.40514
      H   30    0.09564      0.00000     0.40320    0.00116     0.40436
      H   31    0.07864      0.00000     0.41971    0.00165     0.42136
      H   32    0.09085      0.00000     0.40805    0.00110     0.40915
      H   33    0.09641      0.00000     0.40230    0.00129     0.40359
      H   34    0.07942      0.00000     0.41924    0.00134     0.42058
      H   35    0.09627      0.00000     0.40254    0.00119     0.40373
      H   36    0.09291      0.00000     0.40608    0.00101     0.40709
 =======================================================================
   * Total *   -0.00000     11.99561    36.85036    0.15403    49.00000

 Normal termination of Gaussian 16 at Wed Dec  9 17:28:58 2020.
