 Gaussian 16, Revision A.03,

 -----------------------------------------------------------
 # opt freq B3LYP/6-31G(d) empiricaldispersion=gd3bj scf=xqc
 -----------------------------------------------------------

 -------------------------------
 CID_144316642_JID_2555_neutraal
 -------------------------------
 Symbolic Z-matrix:
 Charge =  0 Multiplicity = 1

 SCF Done:  E(RB3LYP) =  -487.481831326     A.U. after   16 cycles
 SCF Done:  E(RB3LYP) =  -487.548466884     A.U. after   13 cycles
 SCF Done:  E(RB3LYP) =  -487.615773106     A.U. after   13 cycles
 SCF Done:  E(RB3LYP) =  -487.672191642     A.U. after   13 cycles
 SCF Done:  E(RB3LYP) =  -487.710109776     A.U. after   13 cycles
 SCF Done:  E(RB3LYP) =  -487.758099498     A.U. after   12 cycles
 SCF Done:  E(RB3LYP) =  -487.783374330     A.U. after   12 cycles
 SCF Done:  E(RB3LYP) =  -487.796074774     A.U. after   12 cycles
 SCF Done:  E(RB3LYP) =  -487.800043653     A.U. after   12 cycles
 SCF Done:  E(RB3LYP) =  -487.804378335     A.U. after   12 cycles
 SCF Done:  E(RB3LYP) =  -487.833657084     A.U. after    8 cycles
 SCF Done:  E(RB3LYP) =  -487.833659340     A.U. after    9 cycles
 SCF Done:  E(RB3LYP) =  -487.833659717     A.U. after    8 cycles
 SCF Done:  E(RB3LYP) =  -487.833659792     A.U. after    7 cycles
 SCF Done:  E(RB3LYP) =  -487.833659787     A.U. after    6 cycles
 Optimization completed.
    -- Stationary point found.
 Normal termination of Gaussian 16 at Wed Dec  9 18:26:59 2020.

 --------------------------------------------------------------------
 #N Geom=AllCheck Guess=TCheck SCRF=Check GenChk RB3LYP/6-31G(d) Freq
 --------------------------------------------------------------------

 Structure from the checkpoint file:  "JID_2555.chk"
 -------------------------------
 CID_144316642_JID_2555_neutraal
 -------------------------------
 Charge =  0 Multiplicity = 1

 SCF Done:  E(RB3LYP) =  -487.833659787     A.U. after    1 cycles

  Exact polarizability: 128.332   1.729 118.117  -5.144   3.517 113.385
 Approx polarizability: 165.720  -3.737 156.174 -15.090   7.011 171.837

                      1                      2                      3
                      A                      A                      A
 Frequencies --     20.0438                24.1995                33.7750
 Red. masses --      2.7859                 2.2520                 2.6599
 Frc consts  --      0.0007                 0.0008                 0.0018
 IR Inten    --      0.0876                 0.5502                 0.0288

                      4                      5                      6
                      A                      A                      A
 Frequencies --     37.5538                55.1515                61.1704
 Red. masses --      4.0669                 2.4769                 1.4215
 Frc consts  --      0.0034                 0.0044                 0.0031
 IR Inten    --      3.2525                 0.0451                 0.8733

                      7                      8                      9
                      A                      A                      A
 Frequencies --     71.8279                75.5980               119.6062
 Red. masses --      2.3423                 3.0532                 2.3961
 Frc consts  --      0.0071                 0.0103                 0.0202
 IR Inten    --      1.2804                 2.1508                 1.7566

                     10                     11                     12
                      A                      A                      A
 Frequencies --    139.3766               176.0824               218.7890
 Red. masses --      2.8189                 3.1743                 1.7619
 Frc consts  --      0.0323                 0.0580                 0.0497
 IR Inten    --      0.6566                 1.6489                 1.6796

                     13                     14                     15
                      A                      A                      A
 Frequencies --    234.9017               246.9613               273.0646
 Red. masses --      1.0770                 1.7237                 1.0747
 Frc consts  --      0.0350                 0.0619                 0.0472
 IR Inten    --      0.0540                 1.2409                 0.1825

                     16                     17                     18
                      A                      A                      A
 Frequencies --    280.3965               294.7017               320.2571
 Red. masses --      1.0686                 2.4029                 1.0082
 Frc consts  --      0.0495                 0.1230                 0.0609
 IR Inten    --      0.0248                 1.8090                 0.0142

                     19                     20                     21
                      A                      A                      A
 Frequencies --    336.9314               344.0886               379.2075
 Red. masses --      2.0567                 2.3562                 2.7183
 Frc consts  --      0.1376                 0.1644                 0.2303
 IR Inten    --      0.1183                 0.1420                 0.5597

                     22                     23                     24
                      A                      A                      A
 Frequencies --    420.0348               433.8750               483.2596
 Red. masses --      2.1319                 2.6616                 2.6204
 Frc consts  --      0.2216                 0.2952                 0.3606
 IR Inten    --      0.0487                 0.3114                 0.3166

                     25                     26                     27
                      A                      A                      A
 Frequencies --    570.8240               630.4751               765.3764
 Red. masses --      4.8841                 3.8624                 2.7151
 Frc consts  --      0.9376                 0.9046                 0.9371
 IR Inten    --      0.8059                 0.6362                 0.3598

                     28                     29                     30
                      A                      A                      A
 Frequencies --    771.8296               793.6395               835.9119
 Red. masses --      1.7268                 2.0403                 1.0576
 Frc consts  --      0.6061                 0.7572                 0.4354
 IR Inten    --      1.0394                 2.6906                 4.1616

                     31                     32                     33
                      A                      A                      A
 Frequencies --    842.4137               926.6852               931.7630
 Red. masses --      1.0583                 2.1496                 2.3966
 Frc consts  --      0.4425                 1.0876                 1.2259
 IR Inten    --      3.9763                 1.8703                 0.9337

                     34                     35                     36
                      A                      A                      A
 Frequencies --    946.3826               951.0784               971.5789
 Red. masses --      1.8677                 1.6270                 1.3992
 Frc consts  --      0.9856                 0.8671                 0.7782
 IR Inten    --      0.4834                 0.5896                 0.2835

                     37                     38                     39
                      A                      A                      A
 Frequencies --    974.1816              1013.3866              1014.2608
 Red. masses --      1.3125                 1.8004                 3.2616
 Frc consts  --      0.7339                 1.0894                 1.9769
 IR Inten    --      0.0991                 0.3626                 0.0460

                     40                     41                     42
                      A                      A                      A
 Frequencies --   1047.6033              1055.7938              1104.6259
 Red. masses --      1.5774                 1.3612                 1.8380
 Frc consts  --      1.0200                 0.8940                 1.3214
 IR Inten    --      0.9148                 0.1136                 1.1419

                     43                     44                     45
                      A                      A                      A
 Frequencies --   1125.1523              1152.4744              1219.7503
 Red. masses --      1.8321                 1.8085                 1.4957
 Frc consts  --      1.3665                 1.4153                 1.3111
 IR Inten    --      0.6047                 3.1207                 0.0459

                     46                     47                     48
                      A                      A                      A
 Frequencies --   1236.4037              1238.7781              1240.3666
 Red. masses --      1.4671                 1.4630                 2.0419
 Frc consts  --      1.3214                 1.3227                 1.8509
 IR Inten    --      0.1374                 0.3157                 2.0324

                     49                     50                     51
                      A                      A                      A
 Frequencies --   1287.3719              1296.3553              1308.8348
 Red. masses --      2.4316                 1.7139                 1.6296
 Frc consts  --      2.3744                 1.6970                 1.6447
 IR Inten    --     14.8703                 3.4913                 1.9009

                     52                     53                     54
                      A                      A                      A
 Frequencies --   1355.3295              1368.2007              1387.5153
 Red. masses --      1.3585                 1.3393                 1.2902
 Frc consts  --      1.4703                 1.4772                 1.4634
 IR Inten    --      1.6750                 1.3870                 0.9740

                     55                     56                     57
                      A                      A                      A
 Frequencies --   1427.1775              1429.5832              1430.7197
 Red. masses --      1.3773                 1.2622                 1.2510
 Frc consts  --      1.6529                 1.5199                 1.5087
 IR Inten    --      2.7837                 7.9969                 3.8783

                     58                     59                     60
                      A                      A                      A
 Frequencies --   1433.4110              1440.8045              1453.7655
 Red. masses --      1.1986                 1.2334                 1.2518
 Frc consts  --      1.4510                 1.5085                 1.5588
 IR Inten    --      0.6030                 4.1723                 2.2040

                     61                     62                     63
                      A                      A                      A
 Frequencies --   1460.8682              1507.3444              1512.9173
 Red. masses --      1.2376                 1.0778                 1.0486
 Frc consts  --      1.5562                 1.4429                 1.4141
 IR Inten    --      2.7593                 0.2219                 0.0555

                     64                     65                     66
                      A                      A                      A
 Frequencies --   1516.9705              1518.4496              1523.1637
 Red. masses --      1.0498                 1.0450                 1.0490
 Frc consts  --      1.4233                 1.4197                 1.4339
 IR Inten    --      0.5020                 1.2029                 2.8631

                     67                     68                     69
                      A                      A                      A
 Frequencies --   1526.4035              1531.7074              1532.8139
 Red. masses --      1.0780                 1.0261                 1.0278
 Frc consts  --      1.4798                 1.4184                 1.4228
 IR Inten    --      0.3652                 2.9147                 1.5570

                     70                     71                     72
                      A                      A                      A
 Frequencies --   1535.7984              1538.0258              1539.9396
 Red. masses --      1.0521                 1.0577                 1.0602
 Frc consts  --      1.4620                 1.4741                 1.4813
 IR Inten    --      6.7798                 5.9677                 5.7745

                     73                     74                     75
                      A                      A                      A
 Frequencies --   1540.9883              1542.1351              1549.3320
 Red. masses --      1.0592                 1.0546                 1.0589
 Frc consts  --      1.4820                 1.4776                 1.4976
 IR Inten    --      5.0636                 2.7004                18.5375

                     76                     77                     78
                      A                      A                      A
 Frequencies --   2359.8625              3037.0218              3038.4357
 Red. masses --     12.6489                 1.0368                 1.0494
 Frc consts  --     41.5028                 5.6342                 5.7082
 IR Inten    --      8.8439                15.2180                40.4341

                     79                     80                     81
                      A                      A                      A
 Frequencies --   3040.1485              3043.7258              3045.1649
 Red. masses --      1.0395                 1.0689                 1.0461
 Frc consts  --      5.6604                 5.8344                 5.7151
 IR Inten    --     39.2997                20.8166                13.5527

                     82                     83                     84
                      A                      A                      A
 Frequencies --   3048.3858              3049.9342              3062.0034
 Red. masses --      1.0356                 1.0429                 1.0629
 Frc consts  --      5.6701                 5.7156                 5.8713
 IR Inten    --     43.2647                 4.3312                26.8216

                     85                     86                     87
                      A                      A                      A
 Frequencies --   3067.7468              3078.1280              3094.1001
 Red. masses --      1.0383                 1.0986                 1.0998
 Frc consts  --      5.7574                 6.1327                 6.2036
 IR Inten    --     14.3893                 4.1074                 3.8298

                     88                     89                     90
                      A                      A                      A
 Frequencies --   3102.8676              3103.3715              3104.6274
 Red. masses --      1.1037                 1.1027                 1.1015
 Frc consts  --      6.2608                 6.2573                 6.2553
 IR Inten    --      5.8820                 2.9890                13.4060

                     91                     92                     93
                      A                      A                      A
 Frequencies --   3105.9861              3109.1141              3112.1704
 Red. masses --      1.1027                 1.1015                 1.1021
 Frc consts  --      6.2676                 6.2733                 6.2894
 IR Inten    --      1.8897                72.5692                48.4412

                     94                     95                     96
                      A                      A                      A
 Frequencies --   3113.7869              3116.2038              3121.4641
 Red. masses --      1.1017                 1.1005                 1.1026
 Frc consts  --      6.2937                 6.2964                 6.3295
 IR Inten    --     62.3678                57.5547                68.4973

                     97                     98                     99
                      A                      A                      A
 Frequencies --   3133.0277              3137.7626              3155.8477
 Red. masses --      1.1022                 1.1029                 1.1021
 Frc consts  --      6.3742                 6.3975                 6.4668
 IR Inten    --     33.0342                20.6248                15.1984

 - Thermochemistry -
 -------------------
 Temperature   298.150 Kelvin.  Pressure   1.00000 Atm.
 Atom     1 has atomic number  6 and mass  12.00000

 Molecular mass:   169.18305 amu.
 Principal axes and moments of inertia in atomic units:
                           1         2         3
     Eigenvalues --  2321.217083425.798234612.67991
           X            0.99821  -0.05732   0.01731
           Y            0.05679   0.99796   0.02925
           Z           -0.01896  -0.02822   0.99942
 This molecule is an asymmetric top.
 Rotational symmetry number  1.
 Warning -- assumption of classical behavior for rotation
           may cause significant error
 Rotational temperatures (Kelvin)      0.03731     0.02528     0.01878
 Rotational constants (GHZ):           0.77750     0.52681     0.39126
 Zero-point vibrational energy     845271.8 (Joules/Mol)
                                  202.02480 (Kcal/Mol)
 Warning -- explicit consideration of  25 degrees of freedom as
           vibrations may cause significant error
 Vibrational temperatures:     28.84    34.82    48.59    54.03    79.35
          (Kelvin)             88.01   103.34   108.77   172.09   200.53
                              253.34   314.79   337.97   355.32   392.88
                              403.43   424.01   460.78   484.77   495.07
                              545.59   604.34   624.25   695.30   821.29
                              907.11  1101.21  1110.49  1141.87  1202.69
                             1212.05  1333.29  1340.60  1361.63  1368.39
                             1397.89  1401.63  1458.04  1459.30  1507.27
                             1519.05  1589.31  1618.84  1658.15  1754.95
                             1778.91  1782.33  1784.61  1852.24  1865.17
                             1883.12  1950.02  1968.54  1996.33  2053.39
                             2056.85  2058.49  2062.36  2073.00  2091.64
                             2101.86  2168.73  2176.75  2182.58  2184.71
                             2191.49  2196.15  2203.79  2205.38  2209.67
                             2212.88  2215.63  2217.14  2218.79  2229.14
                             3395.32  4369.60  4371.63  4374.10  4379.24
                             4381.31  4385.95  4388.18  4405.54  4413.80
                             4428.74  4451.72  4464.33  4465.06  4466.87
                             4468.82  4473.32  4477.72  4480.04  4483.52
                             4491.09  4507.73  4514.54  4540.56

 Zero-point correction=                           0.321947 (Hartree/Particle)
 Thermal correction to Energy=                    0.340000
 Thermal correction to Enthalpy=                  0.340944
 Thermal correction to Gibbs Free Energy=         0.272739
 Sum of electronic and zero-point Energies=           -487.511713
 Sum of electronic and thermal Energies=              -487.493660
 Sum of electronic and thermal Enthalpies=            -487.492716
 Sum of electronic and thermal Free Energies=         -487.560921

                     E (Thermal)             CV                S
                      KCal/Mol        Cal/Mol-Kelvin    Cal/Mol-Kelvin
 Total                  213.353             61.629            143.549
 Electronic               0.000              0.000              0.000
 Translational            0.889              2.981             41.285
 Rotational               0.889              2.981             31.973
 Vibrational            211.576             55.668             70.291
 Vibration     1          0.593              1.986              6.630
 Vibration     2          0.593              1.985              6.256
 Vibration     3          0.594              1.983              5.594
 Vibration     4          0.594              1.982              5.384
 Vibration     5          0.596              1.976              4.624
 Vibration     6          0.597              1.973              4.419
 Vibration     7          0.598              1.967              4.103
 Vibration     8          0.599              1.965              4.002
 Vibration     9          0.609              1.933              3.107
 Vibration    10          0.615              1.914              2.812
 Vibration    11          0.628              1.872              2.370
 Vibration    12          0.647              1.812              1.969
 Vibration    13          0.655              1.787              1.841
 Vibration    14          0.661              1.768              1.752
 Vibration    15          0.676              1.723              1.577
 Vibration    16          0.680              1.710              1.531
 Vibration    17          0.689              1.684              1.447
 Vibration    18          0.706              1.635              1.309
 Vibration    19          0.718              1.602              1.227
 Vibration    20          0.723              1.587              1.193
 Vibration    21          0.749              1.514              1.042
 Vibration    22          0.783              1.427              0.892
 Vibration    23          0.795              1.396              0.846
 Vibration    24          0.839              1.287              0.701
 Vibration    25          0.927              1.094              0.503

 Optimization completed.
    -- Stationary point found.
 Normal termination of Gaussian 16 at Wed Dec  9 18:35:37 2020.

 ----------------------------------------------------------------------
 # B3LYP/6-311++G(d,p) empiricaldispersion=gd3bj scf=xqc pop=npa geom=c
 heck
 ----------------------------------------------------------------------

 ---------------------------------------
 CID_144316642_JID_2555_Energie_neutraal
 ---------------------------------------
 Structure from the checkpoint file:  "JID_2555.chk"
 Charge =  0 Multiplicity = 1

 SCF Done:  E(RB3LYP) =  -487.973686018     A.U. after   13 cycles
 Normal termination of Gaussian 16 at Wed Dec  9 18:39:36 2020.

 ----------------------------------------------------------------------
 # B3LYP/6-311++G(d,p) empiricaldispersion=gd3bj scf=xqc pop=npa geom=c
 heck
 ----------------------------------------------------------------------

 -------------------------------------
 CID_144316642_JID_2555_Energie_kation
 -------------------------------------
 Structure from the checkpoint file:  "JID_2555.chk"
 Charge =  1 Multiplicity = 2

 SCF Done:  E(UB3LYP) =  -487.596699940     A.U. after   33 cycles
 SCF Done:  E(UB3LYP) =  -487.596699940     a.u. after    1 cycles
 Normal termination of Gaussian 16 at Wed Dec  9 18:53:23 2020.
 Gaussian 16:  ES64L-G16RevA.03 25-Dec-2016

 ----------------------------------------------------------------------
 # B3LYP/6-311++G(d,p) empiricaldispersion=gd3bj scf=xqc pop=npa geom=c
 heck
 ----------------------------------------------------------------------

 ------------------------------------
 CID_144316642_JID_2555_Energie_anion
 ------------------------------------
 Structure from the checkpoint file:  "JID_2555.chk"
 Charge = -1 Multiplicity = 2

                         Standard orientation:
 ---------------------------------------------------------------------
 Center     Atomic      Atomic             Coordinates (Angstroms)
 Number     Number       Type             X           Y           Z
 ---------------------------------------------------------------------
      1          6           0       -2.454741    1.730383   -0.187534
      2          6           0       -3.762756    2.522150   -0.144728
      3          6           0       -1.259582   -2.006692   -1.560752
      4          6           0       -0.522722   -2.282346   -0.235667
      5          6           0        0.846164   -1.564488   -0.127608
      6          6           0        0.747438   -0.036299   -0.130860
      7          6           0        2.076693    0.733052    0.057983
      8          6           0        2.708744    0.408921    1.422693
      9          6           0        3.070041    0.394237   -1.066581
     10          6           0        1.753864    2.236850    0.004679
     11          6           0       -1.381345   -1.928778    0.904865
     12          7           0       -2.056537   -1.621503    1.798252
     13          1           0       -2.232388    1.387083   -1.205665
     14          1           0       -2.501160    0.848935    0.460197
     15          1           0       -1.606309    2.341137    0.142117
     16          1           0       -3.719169    3.405733   -0.792084
     17          1           0       -4.608978    1.909322   -0.475603
     18          1           0       -3.983437    2.866061    0.872029
     19          1           0       -1.543110   -0.955009   -1.645963
     20          1           0       -0.605494   -2.261034   -2.401328
     21          1           0       -2.169100   -2.609814   -1.633196
     22          1           0       -0.336892   -3.362411   -0.166332
     23          1           0        1.338506   -1.908939    0.788112
     24          1           0        1.456643   -1.914717   -0.968192
     25          1           0        0.295934    0.295197   -1.074562
     26          1           0        0.056630    0.271893    0.664100
     27          1           0        3.019922   -0.639112    1.492304
     28          1           0        3.599408    1.025804    1.590123
     29          1           0        2.004536    0.606867    2.239595
     30          1           0        2.631277    0.590182   -2.052810
     31          1           0        3.976979    1.003618   -0.977371
     32          1           0        3.377510   -0.656977   -1.036331
     33          1           0        1.302298    2.510213   -0.956595
     34          1           0        1.049719    2.516499    0.797384
     35          1           0        2.661649    2.838053    0.133368
 ---------------------------------------------------------------------

 SCF Done:  E(UB3LYP) =  -487.963380375     A.U. after   28 cycles

 The electronic state is 2-A.
 Alpha  occ. eigenvalues --  -14.21257 -10.11988 -10.11138 -10.08824 -10.07946
 Alpha  occ. eigenvalues --  -10.07473 -10.07237 -10.06749 -10.06394 -10.06246
 Alpha  occ. eigenvalues --  -10.06204 -10.05824  -0.81143  -0.74119  -0.71530
 Alpha  occ. eigenvalues --   -0.66338  -0.63073  -0.59193  -0.58951  -0.57054
 Alpha  occ. eigenvalues --   -0.52711  -0.51942  -0.44247  -0.40598  -0.38289
 Alpha  occ. eigenvalues --   -0.36683  -0.34724  -0.34600  -0.34481  -0.34420
 Alpha  occ. eigenvalues --   -0.33119  -0.31654  -0.30466  -0.29171  -0.28738
 Alpha  occ. eigenvalues --   -0.28040  -0.27370  -0.26987  -0.26855  -0.26191
 Alpha  occ. eigenvalues --   -0.25468  -0.25344  -0.24843  -0.23440  -0.23112
 Alpha  occ. eigenvalues --   -0.22490  -0.21874  -0.21438   0.04129
 Alpha virt. eigenvalues --    0.06265   0.06550   0.07704   0.08438   0.08841
 Alpha virt. eigenvalues --    0.09140   0.09555   0.10029   0.10839   0.10848
 Alpha virt. eigenvalues --    0.11685   0.11849   0.12192   0.12415   0.12658

  Beta  occ. eigenvalues --  -14.21244 -10.11968 -10.11136 -10.08820 -10.07920
  Beta  occ. eigenvalues --  -10.07428 -10.07225 -10.06740 -10.06380 -10.06227
  Beta  occ. eigenvalues --  -10.06181 -10.05792  -0.81121  -0.74091  -0.71493
  Beta  occ. eigenvalues --   -0.66318  -0.63028  -0.59153  -0.58897  -0.56975
  Beta  occ. eigenvalues --   -0.52669  -0.51876  -0.44193  -0.40553  -0.38237
  Beta  occ. eigenvalues --   -0.36652  -0.34699  -0.34586  -0.34449  -0.34384
  Beta  occ. eigenvalues --   -0.33080  -0.31606  -0.30424  -0.29134  -0.28701
  Beta  occ. eigenvalues --   -0.28009  -0.27338  -0.26958  -0.26824  -0.26155
  Beta  occ. eigenvalues --   -0.25451  -0.25321  -0.24814  -0.23414  -0.23076
  Beta  occ. eigenvalues --   -0.22465  -0.21844  -0.21398
  Beta virt. eigenvalues --    0.06142   0.06858   0.07423   0.08267   0.08893
  Beta virt. eigenvalues --    0.09198   0.09510   0.09783   0.10430   0.11069
  Beta virt. eigenvalues --    0.11276   0.11871   0.11993   0.12405   0.12629

 Mulliken charges and spin densities:
               1          2
     1  C   -0.194874   0.048622
     2  C   -0.301604  -0.376179
     3  C    0.934477  -1.648518
     4  C   -0.144797   0.874161
     5  C   -0.008383  -0.617780
     6  C   -0.386603   0.123643
     7  C   -0.119646   0.938828
     8  C    0.343021  -0.994446
     9  C    0.443173  -1.081382
    10  C   -0.246159  -0.393412
    11  C    0.813099  -1.114448
    12  N   -0.363311   0.045738
    13  H   -0.030108   0.179859
    14  H    0.186478  -0.046769
    15  H    0.214663  -0.075783
    16  H   -0.054528   0.178058
    17  H    0.021782   0.111015
    18  H    0.063037   0.062123
    19  H   -0.060543   0.183461
    20  H   -0.434484   0.604429
    21  H   -0.249377   0.423199
    22  H   -0.737581   1.006275
    23  H    0.129700   0.004855
    24  H   -0.224470   0.426368
    25  H    0.306708  -0.183147
    26  H   -0.085731   0.179778
    27  H   -0.158578   0.303688
    28  H   -0.079635   0.229842
    29  H    0.142633   0.011705
    30  H   -0.124864   0.280752
    31  H   -0.141654   0.287599
    32  H   -0.306155   0.454443
    33  H   -0.116200   0.258733
    34  H   -0.018659   0.148593
    35  H   -0.010828   0.166098
 Sum of Mulliken charges =  -1.00000   1.00000

 Dipole moment (field-independent basis, Debye):
    X=             -0.9002    Y=              4.1540    Z=              2.1513  Tot=              4.7638
 Quadrupole moment (field-independent basis, Debye-Ang):
   XX=           -140.7786   YY=           -137.1637   ZZ=           -123.6619
   XY=             -2.3053   XZ=              5.6507   YZ=             -3.2269

 Summary of Natural Population Analysis:

                                       Natural Population
                Natural  -----------------------------------------------
    Atom  No    Charge         Core      Valence    Rydberg      Total
 -----------------------------------------------------------------------
      C    1   -0.28920      0.99967     2.28528    0.00424     3.28920
      C    2   -0.28456      0.99969     2.28134    0.00353     3.28456
      C    3   -0.27695      0.99964     2.27069    0.00662     3.27695
      C    4   -0.16315      0.99952     2.15092    0.01270     3.16315
      C    5   -0.18125      0.99961     2.17187    0.00977     3.18125
      C    6   -0.19316      0.99958     2.18330    0.01027     3.19316
      C    7   -0.04774      0.99959     2.03713    0.01102     3.04774
      C    8   -0.28563      0.99962     2.27901    0.00700     3.28563
      C    9   -0.28585      0.99962     2.27884    0.00738     3.28585
      C   10   -0.28210      0.99963     2.27497    0.00750     3.28210
      C   11    0.16975      0.99964     1.81207    0.01854     2.83025
      N   12   -0.19277      0.99979     2.68188    0.01110     3.69277
      H   13    0.09464      0.00000     0.40396    0.00140     0.40536
      H   14    0.10472      0.00000     0.39396    0.00131     0.39528
      H   15    0.09568      0.00000     0.40313    0.00119     0.40432
      H   16    0.09278      0.00000     0.40614    0.00109     0.40722
      H   17    0.09467      0.00000     0.40430    0.00103     0.40533
      H   18    0.09334      0.00000     0.40564    0.00102     0.40666
      H   19    0.10177      0.00000     0.39646    0.00177     0.39823
      H   20    0.10681      0.00000     0.39104    0.00215     0.39319
      H   21    0.10384      0.00000     0.39477    0.00139     0.39616
      H   22    0.12199      0.00000     0.37481    0.00320     0.37801
      H   23    0.10074      0.00000     0.39733    0.00192     0.39926
      H   24    0.10549      0.00000     0.39227    0.00224     0.39451
      H   25    0.09832      0.00000     0.39890    0.00278     0.40168
      H   26    0.10055      0.00000     0.39699    0.00246     0.39945
      H   27    0.10061      0.00000     0.39847    0.00092     0.39939
      H   28    0.09912      0.00000     0.40008    0.00080     0.40088
      H   29    0.09918      0.00000     0.39998    0.00084     0.40082
      H   30    0.10111      0.00000     0.39771    0.00117     0.39889
      H   31    0.09876      0.00000     0.40020    0.00104     0.40124
      H   32    0.10158      0.00000     0.39716    0.00125     0.39842
      H   33    0.10053      0.00000     0.39850    0.00097     0.39947
      H   34    0.09826      0.00000     0.40080    0.00094     0.40174
      H   35    0.09810      0.00000     0.40108    0.00081     0.40190
 =======================================================================
   * Total *   -0.00000     11.99561    35.86101    0.14338    48.00000

 Normal termination of Gaussian 16 at Wed Dec  9 19:04:25 2020.
