 Gaussian 16, Revision A.03,

 -----------------------------------------------------------
 # opt freq B3LYP/6-31G(d) empiricaldispersion=gd3bj scf=xqc
 -----------------------------------------------------------

 ------------------------------
 CID_61833029_JID_9918_neutraal
 ------------------------------
 Symbolic Z-matrix:
 Charge =  0 Multiplicity = 1

 SCF Done:  E(RB3LYP) =  -862.223833040     A.U. after   15 cycles
 SCF Done:  E(RB3LYP) =  -862.246077439     A.U. after   14 cycles
 SCF Done:  E(RB3LYP) =  -862.246538067     A.U. after   14 cycles
 SCF Done:  E(RB3LYP) =  -862.239715410     A.U. after   15 cycles
 SCF Done:  E(RB3LYP) =  -862.247399145     A.U. after   14 cycles
 SCF Done:  E(RB3LYP) =  -862.247850773     A.U. after   14 cycles
 SCF Done:  E(RB3LYP) =  -862.248030749     A.U. after   14 cycles
 SCF Done:  E(RB3LYP) =  -862.249187502     A.U. after   14 cycles
 SCF Done:  E(RB3LYP) =  -862.249616577     A.U. after   12 cycles
 SCF Done:  E(RB3LYP) =  -862.249467407     A.U. after   12 cycles
 SCF Done:  E(RB3LYP) =  -862.249712759     A.U. after    8 cycles
 SCF Done:  E(RB3LYP) =  -862.249713203     A.U. after    8 cycles
 SCF Done:  E(RB3LYP) =  -862.249713421     A.U. after    8 cycles
 SCF Done:  E(RB3LYP) =  -862.249713479     A.U. after    7 cycles
 SCF Done:  E(RB3LYP) =  -862.249713488     A.U. after    6 cycles
 Optimization completed.
    -- Stationary point found.
 Normal termination of Gaussian 16 at Sat Dec 12 10:23:46 2020.

 --------------------------------------------------------------------
 #N Geom=AllCheck Guess=TCheck SCRF=Check GenChk RB3LYP/6-31G(d) Freq
 --------------------------------------------------------------------

 Structure from the checkpoint file:  "JID_9918.chk"
 ------------------------------
 CID_61833029_JID_9918_neutraal
 ------------------------------
 Charge =  0 Multiplicity = 1

 SCF Done:  E(RB3LYP) =  -862.249713488     A.U. after    1 cycles

  Exact polarizability: 196.376  -5.756 163.421  18.573   2.196 119.103
 Approx polarizability: 278.593 -17.206 272.976  38.700   4.005 182.930

                      1                      2                      3
                      A                      A                      A
 Frequencies --     17.9972                33.5897                56.2739
 Red. masses --      5.5470                 5.4832                 4.5022
 Frc consts  --      0.0011                 0.0036                 0.0084
 IR Inten    --      1.0475                 0.3535                 2.5839

                      4                      5                      6
                      A                      A                      A
 Frequencies --     59.0694                74.1995                91.6222
 Red. masses --      4.5818                 5.9272                 3.5265
 Frc consts  --      0.0094                 0.0192                 0.0174
 IR Inten    --      0.1472                 1.5050                 0.5603

                      7                      8                      9
                      A                      A                      A
 Frequencies --     99.7896               171.3339               196.8745
 Red. masses --      5.2221                 4.1758                 3.4649
 Frc consts  --      0.0306                 0.0722                 0.0791
 IR Inten    --      0.8182                 2.3740                 0.5054

                     10                     11                     12
                      A                      A                      A
 Frequencies --    221.6244               230.0537               260.6460
 Red. masses --      4.6795                 5.0111                 3.8158
 Frc consts  --      0.1354                 0.1563                 0.1527
 IR Inten    --      1.2954                 1.2325                 2.0422

                     13                     14                     15
                      A                      A                      A
 Frequencies --    273.1430               291.5748               332.8551
 Red. masses --      2.7974                 2.2496                 2.8002
 Frc consts  --      0.1230                 0.1127                 0.1828
 IR Inten    --      1.9686                 5.5813                 2.2458

                     16                     17                     18
                      A                      A                      A
 Frequencies --    337.1698               347.3096               403.4051
 Red. masses --      3.4039                 1.2518                 5.1008
 Frc consts  --      0.2280                 0.0890                 0.4891
 IR Inten    --      8.0116               110.4561                13.4176

                     19                     20                     21
                      A                      A                      A
 Frequencies --    413.2901               434.9429               461.9527
 Red. masses --      3.7780                 3.6148                 3.7191
 Frc consts  --      0.3802                 0.4029                 0.4676
 IR Inten    --      9.1736                11.5924                 4.5114

                     22                     23                     24
                      A                      A                      A
 Frequencies --    463.0796               481.2566               499.7426
 Red. masses --      4.1511                 2.2394                 4.4553
 Frc consts  --      0.5245                 0.3056                 0.6556
 IR Inten    --     15.6975                13.5428                 2.7000

                     25                     26                     27
                      A                      A                      A
 Frequencies --    511.6765               553.3313               579.0406
 Red. masses --      3.6549                 3.6349                 3.3692
 Frc consts  --      0.5638                 0.6557                 0.6656
 IR Inten    --      3.4837                 7.4026                 4.8617

                     28                     29                     30
                      A                      A                      A
 Frequencies --    593.8737               599.1998               639.8645
 Red. masses --      3.6060                 1.2297                 1.8374
 Frc consts  --      0.7493                 0.2601                 0.4432
 IR Inten    --     29.2298                49.2769                39.1498

                     31                     32                     33
                      A                      A                      A
 Frequencies --    648.6067               651.1733               701.1498
 Red. masses --      1.4727                 1.7925                 3.9202
 Frc consts  --      0.3650                 0.4478                 1.1355
 IR Inten    --     30.5372                61.2411                27.3249

                     34                     35                     36
                      A                      A                      A
 Frequencies --    713.9873               737.2849               767.3878
 Red. masses --      4.1284                 5.1465                 3.4727
 Frc consts  --      1.2400                 1.6483                 1.2049
 IR Inten    --     31.7418                17.4313                 8.0623

                     37                     38                     39
                      A                      A                      A
 Frequencies --    827.8525               842.5739               868.6931
 Red. masses --      3.6704                 1.4525                 1.5535
 Frc consts  --      1.4821                 0.6075                 0.6907
 IR Inten    --     13.7123                15.8479                 6.6350

                     40                     41                     42
                      A                      A                      A
 Frequencies --    897.3539               908.1581               928.2941
 Red. masses --      1.6766                 2.2953                 1.8989
 Frc consts  --      0.7954                 1.1154                 0.9641
 IR Inten    --     23.7136                 8.2246                 3.0769

                     43                     44                     45
                      A                      A                      A
 Frequencies --    946.0861               950.8425               971.2351
 Red. masses --      2.8222                 4.1450                 1.2948
 Frc consts  --      1.4883                 2.2080                 0.7196
 IR Inten    --     11.1280                 6.4957                 0.2935

                     46                     47                     48
                      A                      A                      A
 Frequencies --    981.0423              1021.6125              1053.6938
 Red. masses --      2.0154                 2.5361                 2.1481
 Frc consts  --      1.1429                 1.5595                 1.4052
 IR Inten    --      9.4331                 6.5390                 9.8192

                     49                     50                     51
                      A                      A                      A
 Frequencies --   1068.9869              1079.2388              1091.4408
 Red. masses --      2.9509                 1.8819                 4.1350
 Frc consts  --      1.9868                 1.2914                 2.9022
 IR Inten    --     89.5888                15.8034                48.7707

                     52                     53                     54
                      A                      A                      A
 Frequencies --   1115.2432              1128.5286              1144.2103
 Red. masses --      2.3389                 3.2355                 1.6697
 Frc consts  --      1.7139                 2.4278                 1.2879
 IR Inten    --     18.7546                10.9292                41.7549

                     55                     56                     57
                      A                      A                      A
 Frequencies --   1167.3614              1199.0798              1215.2495
 Red. masses --      1.2965                 1.6243                 1.6231
 Frc consts  --      1.0409                 1.3760                 1.4123
 IR Inten    --      3.9427                19.7722                 7.3686

                     58                     59                     60
                      A                      A                      A
 Frequencies --   1242.3414              1267.3479              1279.6707
 Red. masses --      1.6968                 2.2007                 1.4034
 Frc consts  --      1.5430                 2.0826                 1.3540
 IR Inten    --      2.4277                94.1393                 6.3691

                     61                     62                     63
                      A                      A                      A
 Frequencies --   1286.6985              1288.4508              1305.0849
 Red. masses --      1.4620                 1.3804                 1.3617
 Frc consts  --      1.4261                 1.3502                 1.3665
 IR Inten    --     38.5448                40.1781                76.9139

                     64                     65                     66
                      A                      A                      A
 Frequencies --   1321.8264              1360.3772              1367.8210
 Red. masses --      1.3487                 1.6711                 1.7066
 Frc consts  --      1.3884                 1.8221                 1.8812
 IR Inten    --      9.8437                32.4320                20.9018

                     67                     68                     69
                      A                      A                      A
 Frequencies --   1379.9008              1385.7056              1396.7708
 Red. masses --      1.9937                 1.5263                 1.5218
 Frc consts  --      2.2367                 1.7268                 1.7493
 IR Inten    --     88.4845                 3.4506                21.4755

                     70                     71                     72
                      A                      A                      A
 Frequencies --   1399.0390              1402.4251              1425.0987
 Red. masses --      1.5461                 1.4699                 1.8148
 Frc consts  --      1.7830                 1.7033                 2.1716
 IR Inten    --      6.1598                 4.6909                49.6838

                     73                     74                     75
                      A                      A                      A
 Frequencies --   1439.3966              1473.0198              1497.3327
 Red. masses --      1.2334                 3.4368                 1.1574
 Frc consts  --      1.5057                 4.3937                 1.5288
 IR Inten    --     76.2233                 9.6427                14.6942

                     76                     77                     78
                      A                      A                      A
 Frequencies --   1506.6242              1507.9759              1517.5767
 Red. masses --      1.1483                 1.5813                 1.1109
 Frc consts  --      1.5358                 2.1186                 1.5074
 IR Inten    --     13.4431                59.4779                 8.6395

                     79                     80                     81
                      A                      A                      A
 Frequencies --   1520.2917              1528.7810              1554.3199
 Red. masses --      1.0910                 1.0994                 2.6080
 Frc consts  --      1.4857                 1.5139                 3.7123
 IR Inten    --      4.2342                 2.2703                82.2079

                     82                     83                     84
                      A                      A                      A
 Frequencies --   1640.8835              1668.8307              1784.6705
 Red. masses --      7.7350                 5.7170                 8.0701
 Frc consts  --     12.2707                 9.3808                15.1442
 IR Inten    --     16.9675                95.6572               296.1927

                     85                     86                     87
                      A                      A                      A
 Frequencies --   2249.5351              3016.6016              3018.9759
 Red. masses --      5.9179                 1.0702                 1.0718
 Frc consts  --     17.6442                 5.7379                 5.7553
 IR Inten    --      1.2959                17.8522                17.2691

                     88                     89                     90
                      A                      A                      A
 Frequencies --   3033.7767              3040.7082              3059.1758
 Red. masses --      1.0759                 1.0693                 1.0705
 Frc consts  --      5.8343                 5.8250                 5.9026
 IR Inten    --      4.1996                64.0750                31.0788

                     91                     92                     93
                      A                      A                      A
 Frequencies --   3073.4618              3074.1482              3088.1034
 Red. masses --      1.0915                 1.0577                 1.1006
 Frc consts  --      6.0749                 5.8893                 6.1839
 IR Inten    --     29.9915                32.7198                51.6384

                     94                     95                     96
                      A                      A                      A
 Frequencies --   3097.9885              3126.2955              3139.1576
 Red. masses --      1.0953                 1.1086                 1.0924
 Frc consts  --      6.1937                 6.3837                 6.3424
 IR Inten    --     53.8584                10.7380                 2.3150

                     97                     98                     99
                      A                      A                      A
 Frequencies --   3203.9680              3219.0946              3221.0819
 Red. masses --      1.0873                 1.0904                 1.0945
 Frc consts  --      6.5760                 6.6571                 6.6908
 IR Inten    --      3.2414                 0.5216                 9.5084

                    100                    101                    102
                      A                      A                      A
 Frequencies --   3497.7164              3587.4112              3717.1110
 Red. masses --      1.1618                 1.0758                 1.0657
 Frc consts  --      8.3743                 8.1576                 8.6756
 IR Inten    --     41.2343                24.4622                 7.9712

 - Thermochemistry -
 -------------------
 Temperature   298.150 Kelvin.  Pressure   1.00000 Atm.
 Atom     1 has atomic number  6 and mass  12.00000

 Molecular mass:   259.12084 amu.
 Principal axes and moments of inertia in atomic units:
                           1         2         3
     Eigenvalues --  2673.040577812.130698751.55796
           X            0.99985   0.01622   0.00590
           Y           -0.01627   0.99982   0.00986
           Z           -0.00574  -0.00995   0.99993
 This molecule is an asymmetric top.
 Rotational symmetry number  1.
 Warning -- assumption of classical behavior for rotation
           may cause significant error
 Rotational temperatures (Kelvin)      0.03240     0.01109     0.00990
 Rotational constants (GHZ):           0.67516     0.23102     0.20622
 Zero-point vibrational energy     780974.4 (Joules/Mol)
                                  186.65736 (Kcal/Mol)
 Warning -- explicit consideration of  29 degrees of freedom as
           vibrations may cause significant error
 Vibrational temperatures:     25.89    48.33    80.97    84.99   106.76
          (Kelvin)            131.82   143.57   246.51   283.26   318.87
                              331.00   375.01   392.99   419.51   478.90
                              485.11   499.70   580.41   594.63   625.79
                              664.65   666.27   692.42   719.02   736.19
                              796.12   833.11   854.45   862.11   920.62
                              933.20   936.89  1008.80  1027.27  1060.79
                             1104.10  1191.10  1212.28  1249.86  1291.09
                             1306.64  1335.61  1361.21  1368.05  1397.39
                             1411.50  1469.87  1516.03  1538.03  1552.78
                             1570.34  1604.59  1623.70  1646.26  1679.57
                             1725.21  1748.47  1787.45  1823.43  1841.16
                             1851.27  1853.79  1877.73  1901.81  1957.28
                             1967.99  1985.37  1993.72  2009.64  2012.91
                             2017.78  2050.40  2070.97  2119.35  2154.33
                             2167.70  2169.64  2183.45  2187.36  2199.57
                             2236.32  2360.87  2401.08  2567.74  3236.58
                             4340.22  4343.63  4364.93  4374.90  4401.47
                             4422.03  4423.01  4443.09  4457.31  4498.04
                             4516.55  4609.80  4631.56  4634.42  5032.43
                             5161.48  5348.09

 Zero-point correction=                           0.297457 (Hartree/Particle)
 Thermal correction to Energy=                    0.315212
 Thermal correction to Enthalpy=                  0.316156
 Thermal correction to Gibbs Free Energy=         0.250401
 Sum of electronic and zero-point Energies=           -861.952256
 Sum of electronic and thermal Energies=              -861.934501
 Sum of electronic and thermal Enthalpies=            -861.933557
 Sum of electronic and thermal Free Energies=         -861.999313

                     E (Thermal)             CV                S
                      KCal/Mol        Cal/Mol-Kelvin    Cal/Mol-Kelvin
 Total                  197.799             68.537            138.394
 Electronic               0.000              0.000              0.000
 Translational            0.889              2.981             42.556
 Rotational               0.889              2.981             33.568
 Vibrational            196.021             62.575             62.270
 Vibration     1          0.593              1.986              6.844
 Vibration     2          0.594              1.983              5.605
 Vibration     3          0.596              1.975              4.584
 Vibration     4          0.596              1.974              4.488
 Vibration     5          0.599              1.966              4.039
 Vibration     6          0.602              1.955              3.625
 Vibration     7          0.604              1.949              3.458
 Vibration     8          0.626              1.878              2.421
 Vibration     9          0.636              1.844              2.162
 Vibration    10          0.648              1.808              1.946
 Vibration    11          0.652              1.795              1.879
 Vibration    12          0.669              1.745              1.657
 Vibration    13          0.676              1.723              1.576
 Vibration    14          0.687              1.689              1.465
 Vibration    15          0.715              1.610              1.246
 Vibration    16          0.718              1.601              1.226
 Vibration    17          0.725              1.581              1.178
 Vibration    18          0.769              1.463              0.950
 Vibration    19          0.777              1.441              0.915
 Vibration    20          0.796              1.394              0.843
 Vibration    21          0.820              1.334              0.760
 Vibration    22          0.821              1.332              0.757
 Vibration    23          0.838              1.292              0.707
 Vibration    24          0.855              1.251              0.659
 Vibration    25          0.867              1.224              0.630
 Vibration    26          0.909              1.132              0.537
 Vibration    27          0.936              1.077              0.487
 Vibration    28          0.951              1.045              0.460
 Vibration    29          0.957              1.033              0.451

                           ! Non-Optimized Parameters !
 Normal termination of Gaussian 16 at Sat Dec 12 10:43:47 2020.

 ----------------------------------------------------------------------
 # B3LYP/6-311++G(d,p) empiricaldispersion=gd3bj scf=xqc pop=npa geom=c
 heck
 ----------------------------------------------------------------------

 --------------------------------------
 CID_61833029_JID_9918_Energie_neutraal
 --------------------------------------
 Structure from the checkpoint file:  "JID_9918.chk"
 Charge =  0 Multiplicity = 1

 SCF Done:  E(RB3LYP) =  -862.501096569     A.U. after   16 cycles
 Normal termination of Gaussian 16 at Sat Dec 12 10:53:04 2020.

 ----------------------------------------------------------------------
 # B3LYP/6-311++G(d,p) empiricaldispersion=gd3bj scf=xqc pop=npa geom=c
 heck
 ----------------------------------------------------------------------

 ------------------------------------
 CID_61833029_JID_9918_Energie_kation
 ------------------------------------
 Structure from the checkpoint file:  "JID_9918.chk"
 Charge =  1 Multiplicity = 2

 SCF Done:  E(UB3LYP) =  -862.213801295     A.U. after   24 cycles
 Normal termination of Gaussian 16 at Sat Dec 12 11:12:55 2020.
 Gaussian 16:  ES64L-G16RevA.03 25-Dec-2016

 ----------------------------------------------------------------------
 # B3LYP/6-311++G(d,p) empiricaldispersion=gd3bj scf=xqc pop=npa geom=c
 heck
 ----------------------------------------------------------------------

 -----------------------------------
 CID_61833029_JID_9918_Energie_anion
 -----------------------------------
 Structure from the checkpoint file:  "JID_9918.chk"
 Charge = -1 Multiplicity = 2

                         Standard orientation:
 ---------------------------------------------------------------------
 Center     Atomic      Atomic             Coordinates (Angstroms)
 Number     Number       Type             X           Y           Z
 ---------------------------------------------------------------------
      1          6           0       -1.607038   -2.191487    1.967049
      2          6           0       -2.557479   -1.670845    1.437925
      3          6           0       -3.702058   -1.013032    0.798926
      4          7           0       -3.607923    0.445766    0.804993
      5          6           0       -3.068339    1.268449   -0.143076
      6          8           0       -2.940453    2.471317    0.049676
      7          6           0       -2.693925    0.662591   -1.504418
      8          8           0       -1.925519   -0.528958   -1.455505
      9          6           0       -0.621017   -0.441887   -1.027244
     10          6           0       -0.022745    0.724209   -0.556353
     11          6           0        1.313023    0.710685   -0.125716
     12          6           0        2.047101   -0.482846   -0.168338
     13          6           0        1.423890   -1.645985   -0.648805
     14          6           0        0.107296   -1.635828   -1.079338
     15          6           0        3.488597   -0.561559    0.313618
     16          6           0        4.143678    0.818370    0.387748
     17          6           0        3.234607    1.796728    1.134989
     18          6           0        1.933259    2.009016    0.354876
     19          8           0        4.263219   -1.477623   -0.464485
     20          1           0       -0.745345   -2.639154    2.407268
     21          1           0       -3.794388   -1.357444   -0.232691
     22          1           0       -4.630416   -1.289803    1.313110
     23          1           0       -3.734238    0.906732    1.698743
     24          1           0       -3.607731    0.391611   -2.043484
     25          1           0       -2.180085    1.450508   -2.063184
     26          1           0       -0.576988    1.654041   -0.495148
     27          1           0        2.000451   -2.565054   -0.686880
     28          1           0       -0.380968   -2.533441   -1.443508
     29          1           0        3.503653   -1.003111    1.319358
     30          1           0        4.316286    1.185412   -0.635371
     31          1           0        5.124175    0.724222    0.866255
     32          1           0        3.007468    1.391720    2.130983
     33          1           0        3.739305    2.756566    1.292204
     34          1           0        1.204520    2.562617    0.959176
     35          1           0        2.141337    2.643432   -0.519877
     36          1           0        4.177337   -1.196583   -1.390445
 ---------------------------------------------------------------------

 SCF Done:  E(UB3LYP) =  -862.490527638     A.U. after   33 cycles
 SCF Done:  E(UB3LYP) =  -862.490527638     a.u. after    1 cycles

 The electronic state is 2-A.
 Alpha  occ. eigenvalues --  -19.07214 -19.03802 -19.00775 -14.25653 -10.19281
 Alpha  occ. eigenvalues --  -10.14976 -10.14476 -10.14459 -10.13817 -10.09437
 Alpha  occ. eigenvalues --  -10.08682 -10.08628 -10.08605 -10.08448 -10.08326
 Alpha  occ. eigenvalues --  -10.08147 -10.07933 -10.07933 -10.07766  -0.98930
 Alpha  occ. eigenvalues --   -0.95628  -0.94039  -0.84406  -0.77658  -0.72790
 Alpha  occ. eigenvalues --   -0.68950  -0.67655  -0.67311  -0.63429  -0.62666
 Alpha  occ. eigenvalues --   -0.61791  -0.54985  -0.53019  -0.52318  -0.50305
 Alpha  occ. eigenvalues --   -0.48076  -0.45873  -0.44493  -0.43140  -0.41943
 Alpha  occ. eigenvalues --   -0.41262  -0.39449  -0.38952  -0.38301  -0.37089
 Alpha  occ. eigenvalues --   -0.35995  -0.35220  -0.34389  -0.34274  -0.33738
 Alpha  occ. eigenvalues --   -0.33375  -0.31560  -0.30900  -0.30332  -0.29235
 Alpha  occ. eigenvalues --   -0.28015  -0.27237  -0.27074  -0.25787  -0.24304
 Alpha  occ. eigenvalues --   -0.23488  -0.22870  -0.20180  -0.19355  -0.18854
 Alpha  occ. eigenvalues --   -0.17709  -0.17568  -0.16016  -0.13326   0.03971
 Alpha virt. eigenvalues --    0.05244   0.06474   0.06668   0.06908   0.07617
 Alpha virt. eigenvalues --    0.08044   0.08208   0.08509   0.08836   0.09342
 Alpha virt. eigenvalues --    0.09693   0.10051   0.10332   0.10848   0.11261

  Beta  occ. eigenvalues --  -19.07210 -19.03786 -19.00772 -14.25632 -10.19280
  Beta  occ. eigenvalues --  -10.14949 -10.14442 -10.14424 -10.13813 -10.09407
  Beta  occ. eigenvalues --  -10.08679 -10.08619 -10.08594 -10.08447 -10.08316
  Beta  occ. eigenvalues --  -10.08126 -10.07936 -10.07921 -10.07747  -0.98918
  Beta  occ. eigenvalues --   -0.95620  -0.94003  -0.84370  -0.77624  -0.72763
  Beta  occ. eigenvalues --   -0.68898  -0.67623  -0.67268  -0.63389  -0.62634
  Beta  occ. eigenvalues --   -0.61730  -0.54955  -0.52967  -0.52288  -0.50260
  Beta  occ. eigenvalues --   -0.48035  -0.45833  -0.44463  -0.43107  -0.41872
  Beta  occ. eigenvalues --   -0.41229  -0.39403  -0.38918  -0.38255  -0.37055
  Beta  occ. eigenvalues --   -0.35963  -0.35182  -0.34358  -0.34243  -0.33711
  Beta  occ. eigenvalues --   -0.33343  -0.31516  -0.30876  -0.30305  -0.29199
  Beta  occ. eigenvalues --   -0.27991  -0.27207  -0.27049  -0.25746  -0.24278
  Beta  occ. eigenvalues --   -0.23460  -0.22845  -0.20141  -0.19331  -0.18828
  Beta  occ. eigenvalues --   -0.17683  -0.17545  -0.15955  -0.13245
  Beta virt. eigenvalues --    0.05781   0.06465   0.06739   0.07019   0.07397
  Beta virt. eigenvalues --    0.08118   0.08279   0.08342   0.08641   0.09109
  Beta virt. eigenvalues --    0.09441   0.10019   0.10317   0.10661   0.10986

 Mulliken charges and spin densities:
               1          2
     1  C   -3.042341   1.660765
     2  C    2.158543  -0.591181
     3  C    1.793052  -2.632118
     4  N   -0.095912   0.079384
     5  C   -0.357379   0.279141
     6  O   -0.297024   0.018326
     7  C    0.726296  -1.037091
     8  O   -0.038094   0.008261
     9  C   -0.571265   0.214964
    10  C    0.599990  -0.403878
    11  C    1.266402  -0.780560
    12  C   -0.285069   0.437953
    13  C   -0.520749   0.385969
    14  C   -0.874516   0.457686
    15  C    0.545964  -1.076257
    16  C   -0.210413  -0.018988
    17  C   -0.143094  -0.175304
    18  C   -0.189462  -0.397375
    19  O   -0.194953   0.022149
    20  H   -0.167931   0.302336
    21  H    0.086996   0.133405
    22  H   -1.088774   1.312933
    23  H   -0.076177   0.380941
    24  H   -0.633120   0.861180
    25  H    0.150723   0.057597
    26  H    0.229835  -0.034277
    27  H    0.113723   0.079342
    28  H   -0.002961   0.169008
    29  H    0.143216   0.074767
    30  H   -0.098594   0.246155
    31  H   -0.085531   0.255849
    32  H    0.076056   0.054754
    33  H   -0.145625   0.322714
    34  H    0.169516  -0.003686
    35  H   -0.063603   0.229568
    36  H    0.122271   0.105571
 Sum of Mulliken charges =  -1.00000   1.00000

 Dipole moment (field-independent basis, Debye):
    X=              5.6036    Y=              0.0032    Z=             -1.1524  Tot=              5.7209
 Quadrupole moment (field-independent basis, Debye-Ang):
   XX=           -225.2573   YY=           -156.0319   ZZ=           -143.7591
   XY=             -4.1345   XZ=              7.7601   YZ=              2.6703

 Summary of Natural Population Analysis:

                                       Natural Population
                Natural  -----------------------------------------------
    Atom  No    Charge         Core      Valence    Rydberg      Total
 -----------------------------------------------------------------------
      C    1   -0.10725      0.99926     2.10457    0.00342     3.10725
      C    2   -0.00668      0.99934     1.99845    0.00890     3.00668
      C    3   -0.13018      0.99953     2.11649    0.01416     3.13018
      N    4   -0.30740      0.99967     2.79592    0.01182     3.80740
      C    5    0.32866      0.99967     1.64855    0.02312     2.67134
      O    6   -0.31891      0.99988     3.31339    0.00564     4.31891
      C    7   -0.05496      0.99952     2.04298    0.01246     3.05496
      O    8   -0.27748      0.99986     3.26683    0.01079     4.27748
      C    9    0.16730      0.99937     1.81941    0.01393     2.83270
      C   10   -0.14424      0.99946     2.13692    0.00785     3.14424
      C   11    0.00563      0.99949     1.98657    0.00832     2.99437
      C   12   -0.05133      0.99945     2.04177    0.01011     3.05133
      C   13   -0.08983      0.99952     2.08128    0.00902     3.08983
      C   14   -0.11551      0.99952     2.10678    0.00921     3.11551
      C   15    0.06285      0.99951     1.92401    0.01364     2.93715
      C   16   -0.19846      0.99962     2.18901    0.00983     3.19846
      C   17   -0.18944      0.99963     2.18079    0.00901     3.18944
      C   18   -0.19702      0.99960     2.18920    0.00822     3.19702
      O   19   -0.36896      0.99990     3.36255    0.00651     4.36896
      H   20    0.11184      0.00000     0.38695    0.00121     0.38816
      H   21    0.11990      0.00000     0.37756    0.00254     0.38010
      H   22    0.11692      0.00000     0.37716    0.00592     0.38308
      H   23    0.19760      0.00000     0.29951    0.00289     0.30240
      H   24    0.10714      0.00000     0.39118    0.00168     0.39286
      H   25    0.09980      0.00000     0.39895    0.00124     0.40020
      H   26    0.11180      0.00000     0.38602    0.00218     0.38820
      H   27    0.10651      0.00000     0.39238    0.00111     0.39349
      H   28    0.10607      0.00000     0.39248    0.00145     0.39393
      H   29    0.08817      0.00000     0.41041    0.00143     0.41183
      H   30    0.09464      0.00000     0.40382    0.00155     0.40536
      H   31    0.10250      0.00000     0.39643    0.00107     0.39750
      H   32    0.09468      0.00000     0.40413    0.00120     0.40532
      H   33    0.10077      0.00000     0.39827    0.00096     0.39923
      H   34    0.10537      0.00000     0.39362    0.00101     0.39463
      H   35    0.10324      0.00000     0.39546    0.00129     0.39676
      H   36    0.22625      0.00000     0.27088    0.00287     0.27375
 =======================================================================
   * Total *   -0.00000     18.99179    49.78067    0.22753    69.00000

 Normal termination of Gaussian 16 at Sat Dec 12 11:40:54 2020.
