 Gaussian 16, Revision A.03,

 -----------------------------------------------------------
 # opt freq B3LYP/6-31G(d) empiricaldispersion=gd3bj scf=xqc
 -----------------------------------------------------------

 -------------------------------
 CID_114190189_JID_7476_neutraal
 -------------------------------
 Symbolic Z-matrix:
 Charge =  0 Multiplicity = 1

 SCF Done:  E(RB3LYP) =  -714.225088921     A.U. after   15 cycles
 SCF Done:  E(RB3LYP) =  -714.229067749     A.U. after   13 cycles
 SCF Done:  E(RB3LYP) =  -714.228229453     A.U. after   13 cycles
 SCF Done:  E(RB3LYP) =  -714.230089819     A.U. after   12 cycles
 SCF Done:  E(RB3LYP) =  -714.230647757     A.U. after   12 cycles
 SCF Done:  E(RB3LYP) =  -714.230758669     A.U. after   11 cycles
 SCF Done:  E(RB3LYP) =  -714.230914623     A.U. after   11 cycles
 SCF Done:  E(RB3LYP) =  -714.231059192     A.U. after   12 cycles
 SCF Done:  E(RB3LYP) =  -714.231264568     A.U. after   13 cycles
 SCF Done:  E(RB3LYP) =  -714.231318529     A.U. after   12 cycles
 SCF Done:  E(RB3LYP) =  -714.231922825     A.U. after   11 cycles
 SCF Done:  E(RB3LYP) =  -714.231923505     A.U. after   10 cycles
 SCF Done:  E(RB3LYP) =  -714.231923531     A.U. after    9 cycles
 SCF Done:  E(RB3LYP) =  -714.231923535     A.U. after    6 cycles
 Optimization completed on the basis of negligible forces.
    -- Stationary point found.
 Normal termination of Gaussian 16 at Fri Dec 11 12:35:31 2020.

 --------------------------------------------------------------------
 #N Geom=AllCheck Guess=TCheck SCRF=Check GenChk RB3LYP/6-31G(d) Freq
 --------------------------------------------------------------------

 Structure from the checkpoint file:  "JID_7476.chk"
 -------------------------------
 CID_114190189_JID_7476_neutraal
 -------------------------------
 Charge =  0 Multiplicity = 1

 SCF Done:  E(RB3LYP) =  -714.231923535     A.U. after    1 cycles

  Exact polarizability: 229.348  -7.239 159.085 -14.901   8.227 111.675
 Approx polarizability: 303.713  -7.295 241.964 -30.891  16.891 167.423

                      1                      2                      3
                      A                      A                      A
 Frequencies --      6.1129                18.1499                34.2262
 Red. masses --      2.9114                 3.7306                 3.5371
 Frc consts  --      0.0001                 0.0007                 0.0024
 IR Inten    --      0.0959                 0.4468                 0.8542

                      4                      5                      6
                      A                      A                      A
 Frequencies --     44.8513                70.0018                87.4014
 Red. masses --      3.5188                 3.8411                 4.2045
 Frc consts  --      0.0042                 0.0111                 0.0189
 IR Inten    --      1.3300                 0.1999                 0.0806

                      7                      8                      9
                      A                      A                      A
 Frequencies --    118.1090               143.2427               150.5831
 Red. masses --      3.1635                 3.7380                 2.7607
 Frc consts  --      0.0260                 0.0452                 0.0369
 IR Inten    --      1.9617                 0.1773                 0.3272

                     10                     11                     12
                      A                      A                      A
 Frequencies --    210.5170               220.0065               228.5117
 Red. masses --      4.0914                 1.5231                 1.0136
 Frc consts  --      0.1068                 0.0434                 0.0312
 IR Inten    --      0.9399                 0.2920                 0.0008

                     13                     14                     15
                      A                      A                      A
 Frequencies --    245.3269               281.9301               282.6000
 Red. masses --      2.3796                 1.0603                 1.0489
 Frc consts  --      0.0844                 0.0497                 0.0494
 IR Inten    --      2.5081                 0.0299                 0.0070

                     16                     17                     18
                      A                      A                      A
 Frequencies --    297.5903               310.2370               330.9572
 Red. masses --      3.3217                 3.0481                 2.9742
 Frc consts  --      0.1733                 0.1728                 0.1919
 IR Inten    --      0.8024                 1.9570                 0.7104

                     19                     20                     21
                      A                      A                      A
 Frequencies --    353.6491               366.1609               371.8733
 Red. masses --      2.7695                 2.4516                 3.0363
 Frc consts  --      0.2041                 0.1937                 0.2474
 IR Inten    --      1.6821                 0.3798                 1.9257

                     22                     23                     24
                      A                      A                      A
 Frequencies --    393.9754               442.2631               491.8408
 Red. masses --      2.9465                 3.1772                 2.0771
 Frc consts  --      0.2695                 0.3662                 0.2960
 IR Inten    --      1.0607                 0.9474                51.8601

                     25                     26                     27
                      A                      A                      A
 Frequencies --    515.5841               535.3250               548.1653
 Red. masses --      1.5791                 3.3116                 4.8728
 Frc consts  --      0.2473                 0.5592                 0.8627
 IR Inten    --     76.1053                22.3196                 2.5219

                     28                     29                     30
                      A                      A                      A
 Frequencies --    554.6276               574.4278               594.8418
 Red. masses --      3.7895                 3.6818                 3.7027
 Frc consts  --      0.6868                 0.7158                 0.7719
 IR Inten    --      2.4581                 7.2744                 0.7783

                     31                     32                     33
                      A                      A                      A
 Frequencies --    633.4525               669.8333               790.7170
 Red. masses --      4.4438                 4.4782                 3.1178
 Frc consts  --      1.0506                 1.1838                 1.1485
 IR Inten    --     10.9526                 5.6448                 7.9428

                     34                     35                     36
                      A                      A                      A
 Frequencies --    796.2174               799.9180               825.3986
 Red. masses --      1.7492                 1.7984                 1.7149
 Frc consts  --      0.6534                 0.6780                 0.6883
 IR Inten    --      6.9427                 6.8456                13.2593

                     37                     38                     39
                      A                      A                      A
 Frequencies --    851.1258               875.0585               889.3010
 Red. masses --      2.8175                 2.9324                 2.7253
 Frc consts  --      1.2026                 1.3229                 1.2699
 IR Inten    --      1.8234                 7.1783                 3.2577

                     40                     41                     42
                      A                      A                      A
 Frequencies --    942.4669               942.9004               961.7625
 Red. masses --      1.7918                 1.7873                 1.3627
 Frc consts  --      0.9377                 0.9362                 0.7426
 IR Inten    --      0.4084                 0.3471                 0.0606

                     43                     44                     45
                      A                      A                      A
 Frequencies --    979.3281               986.4805               988.3114
 Red. masses --      1.1957                 2.0110                 1.5466
 Frc consts  --      0.6756                 1.1530                 0.8901
 IR Inten    --      0.0035                 1.5829                 2.0408

                     46                     47                     48
                      A                      A                      A
 Frequencies --   1027.2687              1064.2394              1064.8011
 Red. masses --      3.1287                 1.3916                 1.3909
 Frc consts  --      1.9453                 0.9286                 0.9292
 IR Inten    --     16.3633                 0.5987                 0.0646

                     49                     50                     51
                      A                      A                      A
 Frequencies --   1071.1883              1093.2368              1096.2054
 Red. masses --      1.8501                 2.1044                 3.7534
 Frc consts  --      1.2508                 1.4819                 2.6574
 IR Inten    --     12.5415                 3.6916                65.7448

                     52                     53                     54
                      A                      A                      A
 Frequencies --   1099.4375              1105.5393              1147.7501
 Red. masses --      2.6727                 2.0440                 1.6925
 Frc consts  --      1.9035                 1.4719                 1.3137
 IR Inten    --     31.2873                 8.8359                 5.8639

                     55                     56                     57
                      A                      A                      A
 Frequencies --   1197.5889              1220.0007              1241.6273
 Red. masses --      1.5063                 1.1440                 2.6117
 Frc consts  --      1.2728                 1.0033                 2.3722
 IR Inten    --      0.5397                25.4056                 5.6229

                     58                     59                     60
                      A                      A                      A
 Frequencies --   1242.7994              1258.4331              1269.6362
 Red. masses --      2.5691                 2.2048                 1.8642
 Frc consts  --      2.3379                 2.0572                 1.7705
 IR Inten    --      7.7340                 4.5687                 8.1637

                     61                     62                     63
                      A                      A                      A
 Frequencies --   1296.9191              1310.1564              1322.6970
 Red. masses --      1.7457                 2.3801                 1.4236
 Frc consts  --      1.7300                 2.4071                 1.4675
 IR Inten    --      0.9684                24.7035                 7.7399

                     64                     65                     66
                      A                      A                      A
 Frequencies --   1330.7774              1358.0811              1378.4346
 Red. masses --      1.9295                 1.8102                 1.3471
 Frc consts  --      2.0133                 1.9671                 1.5081
 IR Inten    --     21.0451                27.6573                 4.6813

                     67                     68                     69
                      A                      A                      A
 Frequencies --   1379.7047              1421.8822              1421.9558
 Red. masses --      1.5016                 1.2180                 1.2171
 Frc consts  --      1.6842                 1.4509                 1.4500
 IR Inten    --      4.2993                 3.6421                 3.6551

                     70                     71                     72
                      A                      A                      A
 Frequencies --   1439.2614              1453.4964              1463.6853
 Red. masses --      1.2179                 1.2178                 1.4583
 Frc consts  --      1.4865                 1.5159                 1.8408
 IR Inten    --      2.0375                 0.7064                92.4530

                     73                     74                     75
                      A                      A                      A
 Frequencies --   1492.3914              1499.4532              1504.5137
 Red. masses --      1.5761                 1.3951                 2.0953
 Frc consts  --      2.0682                 1.8480                 2.7944
 IR Inten    --     26.6497                 7.3198                25.0128

                     76                     77                     78
                      A                      A                      A
 Frequencies --   1506.3308              1516.8837              1517.0291
 Red. masses --      1.0492                 1.0450                 1.0450
 Frc consts  --      1.4026                 1.4167                 1.4170
 IR Inten    --      0.0060                 0.1743                 0.1319

                     79                     80                     81
                      A                      A                      A
 Frequencies --   1522.7689              1529.3871              1529.6627
 Red. masses --      1.0563                 1.0509                 1.0473
 Frc consts  --      1.4432                 1.4483                 1.4438
 IR Inten    --      4.4392                 3.8822                 8.1840

                     82                     83                     84
                      A                      A                      A
 Frequencies --   1529.8353              1540.1651              1548.4046
 Red. masses --      1.0512                 1.0964                 1.0630
 Frc consts  --      1.4495                 1.5323                 1.5016
 IR Inten    --      5.3515                 6.5007                 3.8220

                     85                     86                     87
                      A                      A                      A
 Frequencies --   1633.5080              1647.7829              2366.5976
 Red. masses --      5.8137                 5.9589                11.8994
 Frc consts  --      9.1400                 9.5326                39.2668
 IR Inten    --     17.6527                13.4168                 0.1635

                     88                     89                     90
                      A                      A                      A
 Frequencies --   3035.3672              3045.6306              3046.1171
 Red. masses --      1.0586                 1.0348                 1.0351
 Frc consts  --      5.7463                 5.6554                 5.6588
 IR Inten    --     34.6809                21.8187                23.5305

                     91                     92                     93
                      A                      A                      A
 Frequencies --   3053.1956              3053.7930              3057.5100
 Red. masses --      1.0361                 1.0605                 1.0372
 Frc consts  --      5.6906                 5.8270                 5.7126
 IR Inten    --     44.7674                20.3546                25.3898

                     94                     95                     96
                      A                      A                      A
 Frequencies --   3068.5130              3087.6397              3110.5374
 Red. masses --      1.1001                 1.1023                 1.0870
 Frc consts  --      6.1031                 6.1915                 6.1966
 IR Inten    --     12.2288                16.2868                24.1079

                     97                     98                     99
                      A                      A                      A
 Frequencies --   3115.2017              3116.1769              3122.4321
 Red. masses --      1.1019                 1.1016                 1.1011
 Frc consts  --      6.3004                 6.3024                 6.3249
 IR Inten    --      3.5376                 8.9131                89.0901

                    100                    101                    102
                      A                      A                      A
 Frequencies --   3123.7743              3127.1563              3131.1459
 Red. masses --      1.1027                 1.1038                 1.1032
 Frc consts  --      6.3400                 6.3597                 6.3727
 IR Inten    --     34.5332                11.1411                31.9789

                    103                    104                    105
                      A                      A                      A
 Frequencies --   3133.3860              3139.4102              3178.1320
 Red. masses --      1.1028                 1.1012                 1.0881
 Frc consts  --      6.3793                 6.3944                 6.4753
 IR Inten    --     40.6475                29.6363                12.7670

                    106                    107                    108
                      A                      A                      A
 Frequencies --   3182.7250              3215.7463              3646.5082
 Red. masses --      1.0907                 1.0961                 1.0645
 Frc consts  --      6.5097                 6.6783                 8.3401
 IR Inten    --     24.5977                24.4830                57.7341

 - Thermochemistry -
 -------------------
 Temperature   298.150 Kelvin.  Pressure   1.00000 Atm.
 Atom     1 has atomic number  6 and mass  12.00000

 Molecular mass:   231.16231 amu.
 Principal axes and moments of inertia in atomic units:
                           1         2         3
     Eigenvalues --  1883.529559358.20721**********
           X            0.99998   0.00586  -0.00165
           Y           -0.00584   0.99993   0.00980
           Z            0.00171  -0.00979   0.99995
 This molecule is an asymmetric top.
 Rotational symmetry number  1.
 Warning -- assumption of classical behavior for rotation
           may cause significant error
 Rotational temperatures (Kelvin)      0.04598     0.00926     0.00838
 Rotational constants (GHZ):           0.95817     0.19285     0.17452
 Zero-point vibrational energy     868530.6 (Joules/Mol)
                                  207.58380 (Kcal/Mol)
 Warning -- explicit consideration of  30 degrees of freedom as
           vibrations may cause significant error
 Vibrational temperatures:      8.80    26.11    49.24    64.53   100.72
          (Kelvin)            125.75   169.93   206.09   216.66   302.89
                              316.54   328.78   352.97   405.63   406.60
                              428.17   446.36   476.17   508.82   526.82
                              535.04   566.84   636.32   707.65   741.81
                              770.21   788.69   797.99   826.47   855.84
                              911.40   963.74  1137.67  1145.58  1150.90
                             1187.56  1224.58  1259.01  1279.51  1356.00
                             1356.62  1383.76  1409.03  1419.33  1421.96
                             1478.01  1531.20  1532.01  1541.20  1572.92
                             1577.20  1581.85  1590.62  1651.36  1723.06
                             1755.31  1786.42  1788.11  1810.60  1826.72
                             1865.98  1885.02  1903.07  1914.69  1953.98
                             1983.26  1985.09  2045.77  2045.88  2070.78
                             2091.26  2105.92  2147.22  2157.38  2164.66
                             2167.27  2182.46  2182.67  2190.92  2200.45
                             2200.84  2201.09  2215.95  2227.81  2350.25
                             2370.79  3405.01  4367.22  4381.98  4382.68
                             4392.87  4393.73  4399.07  4414.91  4442.42
                             4475.37  4482.08  4483.48  4492.48  4494.41
                             4499.28  4505.02  4508.24  4516.91  4572.62
                             4579.23  4626.74  5246.51

 Zero-point correction=                           0.330806 (Hartree/Particle)
 Thermal correction to Energy=                    0.349398
 Thermal correction to Enthalpy=                  0.350342
 Thermal correction to Gibbs Free Energy=         0.280846
 Sum of electronic and zero-point Energies=           -713.901118
 Sum of electronic and thermal Energies=              -713.882526
 Sum of electronic and thermal Enthalpies=            -713.881581
 Sum of electronic and thermal Free Energies=         -713.951077

                     E (Thermal)             CV                S
                      KCal/Mol        Cal/Mol-Kelvin    Cal/Mol-Kelvin
 Total                  219.251             69.281            146.266
 Electronic               0.000              0.000              0.000
 Translational            0.889              2.981             42.216
 Rotational               0.889              2.981             33.566
 Vibrational            217.473             63.320             70.485
 Vibration     1          0.593              1.987              8.989
 Vibration     2          0.593              1.986              6.827
 Vibration     3          0.594              1.983              5.568
 Vibration     4          0.595              1.979              5.032
 Vibration     5          0.598              1.968              4.153
 Vibration     6          0.601              1.958              3.717
 Vibration     7          0.608              1.934              3.131
 Vibration     8          0.616              1.910              2.760
 Vibration     9          0.618              1.902              2.665
 Vibration    10          0.643              1.825              2.039
 Vibration    11          0.647              1.811              1.959
 Vibration    12          0.651              1.798              1.891
 Vibration    13          0.660              1.771              1.764
 Vibration    14          0.681              1.707              1.522
 Vibration    15          0.682              1.706              1.518
 Vibration    16          0.691              1.678              1.430
 Vibration    17          0.699              1.654              1.361
 Vibration    18          0.713              1.614              1.255
 Vibration    19          0.730              1.568              1.150
 Vibration    20          0.739              1.542              1.096
 Vibration    21          0.744              1.530              1.072
 Vibration    22          0.761              1.483              0.985
 Vibration    23          0.802              1.378              0.820
 Vibration    24          0.848              1.268              0.679
 Vibration    25          0.871              1.215              0.620
 Vibration    26          0.890              1.172              0.575
 Vibration    27          0.903              1.144              0.548
 Vibration    28          0.910              1.130              0.535
 Vibration    29          0.931              1.087              0.496
 Vibration    30          0.953              1.043              0.459

 Optimization completed on the basis of negligible forces.
    -- Stationary point found.
 Normal termination of Gaussian 16 at Fri Dec 11 12:49:04 2020.

 ----------------------------------------------------------------------
 # B3LYP/6-311++G(d,p) empiricaldispersion=gd3bj scf=xqc pop=npa geom=c
 heck
 ----------------------------------------------------------------------

 ---------------------------------------
 CID_114190189_JID_7476_Energie_neutraal
 ---------------------------------------
 Structure from the checkpoint file:  "JID_7476.chk"
 Charge =  0 Multiplicity = 1

 SCF Done:  E(RB3LYP) =  -714.434644269     A.U. after   15 cycles
 Normal termination of Gaussian 16 at Fri Dec 11 12:56:07 2020.

 ----------------------------------------------------------------------
 # B3LYP/6-311++G(d,p) empiricaldispersion=gd3bj scf=xqc pop=npa geom=c
 heck
 ----------------------------------------------------------------------

 -------------------------------------
 CID_114190189_JID_7476_Energie_kation
 -------------------------------------
 Structure from the checkpoint file:  "JID_7476.chk"
 Charge =  1 Multiplicity = 2

 SCF Done:  E(UB3LYP) =  -714.129516793     A.U. after   33 cycles
 SCF Done:  E(UB3LYP) =  -714.129516793     a.u. after    1 cycles
 Normal termination of Gaussian 16 at Fri Dec 11 13:18:28 2020.
 Gaussian 16:  ES64L-G16RevA.03 25-Dec-2016

 ----------------------------------------------------------------------
 # B3LYP/6-311++G(d,p) empiricaldispersion=gd3bj scf=xqc pop=npa geom=c
 heck
 ----------------------------------------------------------------------

 ------------------------------------
 CID_114190189_JID_7476_Energie_anion
 ------------------------------------
 Structure from the checkpoint file:  "JID_7476.chk"
 Charge = -1 Multiplicity = 2

                         Standard orientation:
 ---------------------------------------------------------------------
 Center     Atomic      Atomic             Coordinates (Angstroms)
 Number     Number       Type             X           Y           Z
 ---------------------------------------------------------------------
      1          6           0        1.694724    2.870027   -0.363968
      2          6           0        2.423628    2.078094    0.733796
      3          6           0        2.925607    0.723749    0.282724
      4          6           0        2.110860   -0.420765    0.218375
      5          7           0        2.572156   -1.624952   -0.153350
      6          6           0        3.854258   -1.751638   -0.501706
      7          6           0        4.743354   -0.679373   -0.494283
      8          6           0        4.265313    0.563254   -0.088703
      9          6           0        0.622961   -0.437539    0.536851
     10          6           0       -0.184980   -0.402138   -0.791280
     11          6           0       -1.619691   -0.264198   -0.567672
     12          6           0       -2.800681   -0.126813   -0.346005
     13          6           0       -4.238043    0.022040   -0.069408
     14          6           0       -4.835214    1.096015   -1.003923
     15          6           0       -4.947074   -1.328094   -0.310896
     16          6           0       -4.428767    0.450298    1.401919
     17          8           0        0.296257   -1.585178    1.293508
     18          1           0        2.327474    2.979020   -1.251601
     19          1           0        1.433198    3.871549   -0.005778
     20          1           0        0.769045    2.374138   -0.670523
     21          1           0        3.282832    2.663629    1.081804
     22          1           0        1.761453    1.964170    1.599691
     23          1           0        4.179960   -2.748391   -0.792083
     24          1           0        5.780496   -0.818171   -0.782654
     25          1           0        4.934948    1.419234   -0.046029
     26          1           0        0.340235    0.428389    1.140589
     27          1           0        0.042787   -1.331166   -1.330485
     28          1           0        0.181686    0.417364   -1.423854
     29          1           0       -5.906802    1.215955   -0.804580
     30          1           0       -4.344732    2.062732   -0.849863
     31          1           0       -4.708451    0.812832   -2.053901
     32          1           0       -4.534908   -2.104448    0.341289
     33          1           0       -6.019821   -1.232926   -0.104108
     34          1           0       -4.822139   -1.652914   -1.348920
     35          1           0       -5.496434    0.559571    1.627220
     36          1           0       -4.003982   -0.295495    2.081027
     37          1           0       -3.934505    1.407932    1.595422
     38          1           0        0.844992   -2.294418    0.907793
 ---------------------------------------------------------------------

 SCF Done:  E(UB3LYP) =  -714.427971410     A.U. after   33 cycles
 SCF Done:  E(UB3LYP) =  -714.427971410     a.u. after    1 cycles

 The electronic state is 2-A.
 Alpha  occ. eigenvalues --  -19.00804 -14.18426 -10.12106 -10.11413 -10.09357
 Alpha  occ. eigenvalues --  -10.08702 -10.08630 -10.07386 -10.07213 -10.07207
 Alpha  occ. eigenvalues --  -10.07090 -10.06983 -10.06508 -10.06359 -10.06052
 Alpha  occ. eigenvalues --  -10.05785 -10.05548  -0.91917  -0.82640  -0.73987
 Alpha  occ. eigenvalues --   -0.70862  -0.69090  -0.66656  -0.63560  -0.60892
 Alpha  occ. eigenvalues --   -0.60026  -0.59873  -0.55198  -0.53903  -0.49839
 Alpha  occ. eigenvalues --   -0.49008  -0.48644  -0.42246  -0.39300  -0.39200
 Alpha  occ. eigenvalues --   -0.37417  -0.35692  -0.35383  -0.35290  -0.34949
 Alpha  occ. eigenvalues --   -0.34051  -0.33086  -0.32573  -0.30753  -0.30628
 Alpha  occ. eigenvalues --   -0.30461  -0.29307  -0.28239  -0.27968  -0.27954
 Alpha  occ. eigenvalues --   -0.27180  -0.26799  -0.25279  -0.25260  -0.25013
 Alpha  occ. eigenvalues --   -0.24704  -0.22040  -0.18108  -0.17327  -0.15934
 Alpha  occ. eigenvalues --   -0.15475  -0.14706  -0.13974   0.04255
 Alpha virt. eigenvalues --    0.05507   0.06742   0.07349   0.08022   0.08242
 Alpha virt. eigenvalues --    0.08451   0.09126   0.09329   0.09596   0.09991
 Alpha virt. eigenvalues --    0.10737   0.11114   0.11339   0.11735   0.11938

  Beta  occ. eigenvalues --  -19.00801 -14.18116 -10.12107 -10.11412 -10.09341
  Beta  occ. eigenvalues --  -10.08692 -10.08532 -10.07373 -10.07199 -10.07192
  Beta  occ. eigenvalues --  -10.07072 -10.06951 -10.06539 -10.06333 -10.06052
  Beta  occ. eigenvalues --  -10.05544 -10.05494  -0.91903  -0.82226  -0.73977
  Beta  occ. eigenvalues --   -0.70617  -0.68999  -0.66455  -0.63430  -0.60831
  Beta  occ. eigenvalues --   -0.59993  -0.59837  -0.55131  -0.53688  -0.49730
  Beta  occ. eigenvalues --   -0.48757  -0.48572  -0.42142  -0.39210  -0.39148
  Beta  occ. eigenvalues --   -0.37356  -0.35615  -0.35353  -0.35236  -0.34869
  Beta  occ. eigenvalues --   -0.34031  -0.33023  -0.32520  -0.30609  -0.30491
  Beta  occ. eigenvalues --   -0.30423  -0.29204  -0.28132  -0.27936  -0.27741
  Beta  occ. eigenvalues --   -0.27116  -0.26319  -0.25257  -0.25241  -0.24945
  Beta  occ. eigenvalues --   -0.24620  -0.21960  -0.18008  -0.16089  -0.15772
  Beta  occ. eigenvalues --   -0.15375  -0.14372  -0.13569
  Beta virt. eigenvalues --    0.06050   0.06867   0.07542   0.08183   0.08420
  Beta virt. eigenvalues --    0.08627   0.08697   0.09344   0.09453   0.09844
  Beta virt. eigenvalues --    0.10119   0.10738   0.11205   0.11324   0.11871

 Mulliken charges and spin densities:
               1          2
     1  C    0.210011  -0.837744
     2  C   -0.740835   0.225556
     3  C    0.574904   0.411171
     4  C   -0.541226   0.130973
     5  N    0.010639   0.149332
     6  C   -0.138678  -0.037904
     7  C    0.223249  -0.313637
     8  C    0.072520  -0.275894
     9  C   -0.765122   0.080411
    10  C    0.596042  -0.961752
    11  C   -0.163660   0.264380
    12  C    1.112476  -1.238666
    13  C   -1.739114   2.617356
    14  C    0.198106  -0.855399
    15  C   -0.160482  -0.531258
    16  C   -0.052494  -0.603502
    17  O   -0.130602  -0.002622
    18  H    0.105025   0.031092
    19  H   -0.284080   0.415546
    20  H    0.114253  -0.017372
    21  H   -0.253319   0.415478
    22  H    0.050261   0.105643
    23  H    0.130154  -0.000289
    24  H    0.029322   0.107127
    25  H   -0.085405   0.203139
    26  H    0.243881  -0.035268
    27  H    0.207761  -0.000590
    28  H    0.103447   0.036048
    29  H   -0.225851   0.378436
    30  H   -0.019525   0.168703
    31  H    0.030033   0.110615
    32  H    0.124813   0.022632
    33  H   -0.127127   0.276227
    34  H    0.066916   0.075108
    35  H   -0.139210   0.289326
    36  H    0.082439   0.066692
    37  H    0.020391   0.124227
    38  H    0.260085   0.006680
 Sum of Mulliken charges =  -1.00000   1.00000

 Dipole moment (field-independent basis, Debye):
    X=              0.9793    Y=             -2.3323    Z=             -1.5629  Tot=              2.9734
 Quadrupole moment (field-independent basis, Debye-Ang):
   XX=           -200.2756   YY=           -143.2636   ZZ=           -128.8773
   XY=             -0.7342   XZ=             -3.0899   YZ=             -0.7835

 Summary of Natural Population Analysis:

                                       Natural Population
                Natural  -----------------------------------------------
    Atom  No    Charge         Core      Valence    Rydberg      Total
 -----------------------------------------------------------------------
      C    1   -0.28073      0.99966     2.27611    0.00496     3.28073
      C    2   -0.19891      0.99961     2.18996    0.00934     3.19891
      C    3   -0.02889      0.99946     2.01950    0.00994     3.02889
      C    4    0.10166      0.99948     1.88433    0.01454     2.89834
      N    5   -0.22656      0.99965     2.71467    0.01224     3.72656
      C    6    0.04013      0.99960     1.94566    0.01461     2.95987
      C    7   -0.13283      0.99956     2.12453    0.00875     3.13283
      C    8   -0.03355      0.99952     2.02396    0.01007     3.03355
      C    9    0.05758      0.99953     1.92612    0.01677     2.94242
      C   10   -0.24399      0.99958     2.23214    0.01227     3.24399
      C   11    0.04271      0.99926     1.94810    0.00994     2.95729
      C   12   -0.03766      0.99933     2.02399    0.01435     3.03766
      C   13   -0.07796      0.99955     2.06876    0.00966     3.07796
      C   14   -0.27549      0.99964     2.26895    0.00690     3.27549
      C   15   -0.27541      0.99964     2.26887    0.00690     3.27541
      C   16   -0.27571      0.99964     2.26908    0.00700     3.27571
      O   17   -0.37239      0.99990     3.36631    0.00618     4.37239
      H   18    0.09557      0.00000     0.40350    0.00093     0.40443
      H   19    0.09844      0.00000     0.40021    0.00135     0.40156
      H   20    0.09610      0.00000     0.40260    0.00130     0.40390
      H   21    0.09980      0.00000     0.39869    0.00151     0.40020
      H   22    0.09999      0.00000     0.39882    0.00119     0.40001
      H   23    0.08320      0.00000     0.41578    0.00102     0.41680
      H   24    0.09754      0.00000     0.40159    0.00087     0.40246
      H   25    0.09346      0.00000     0.40558    0.00096     0.40654
      H   26    0.09002      0.00000     0.40790    0.00208     0.40998
      H   27    0.11362      0.00000     0.38464    0.00174     0.38638
      H   28    0.11098      0.00000     0.38738    0.00164     0.38902
      H   29    0.09737      0.00000     0.40161    0.00102     0.40263
      H   30    0.10283      0.00000     0.39620    0.00097     0.39717
      H   31    0.10054      0.00000     0.39859    0.00086     0.39946
      H   32    0.10233      0.00000     0.39686    0.00081     0.39767
      H   33    0.09687      0.00000     0.40233    0.00080     0.40313
      H   34    0.10062      0.00000     0.39863    0.00076     0.39938
      H   35    0.09662      0.00000     0.40249    0.00089     0.40338
      H   36    0.10303      0.00000     0.39615    0.00082     0.39697
      H   37    0.10288      0.00000     0.39621    0.00091     0.39712
      H   38    0.23744      0.00000     0.25958    0.00298     0.26256
 =======================================================================
   * Total *    0.00123     16.99259    45.80636    0.19982    62.99877

 Normal termination of Gaussian 16 at Fri Dec 11 13:41:31 2020.
