 Gaussian 16, Revision A.03,

 -----------------------------------------------------------
 # opt freq B3LYP/6-31G(d) empiricaldispersion=gd3bj scf=xqc
 -----------------------------------------------------------

 ------------------------------
 CID_15313242_JID_6717_neutraal
 ------------------------------
 Symbolic Z-matrix:
 Charge =  0 Multiplicity = 1

 SCF Done:  E(RB3LYP) =  -693.630272164     A.U. after   15 cycles
 SCF Done:  E(RB3LYP) =  -693.635041090     A.U. after   13 cycles
 SCF Done:  E(RB3LYP) =  -693.634551906     A.U. after   13 cycles
 SCF Done:  E(RB3LYP) =  -693.635719345     A.U. after   12 cycles
 SCF Done:  E(RB3LYP) =  -693.636097896     A.U. after   11 cycles
 SCF Done:  E(RB3LYP) =  -693.636523782     A.U. after   11 cycles
 SCF Done:  E(RB3LYP) =  -693.636766400     A.U. after   12 cycles
 SCF Done:  E(RB3LYP) =  -693.636869368     A.U. after   11 cycles
 SCF Done:  E(RB3LYP) =  -693.636923856     A.U. after   11 cycles
 SCF Done:  E(RB3LYP) =  -693.636965982     A.U. after    9 cycles
 SCF Done:  E(RB3LYP) =  -693.637033612     A.U. after   10 cycles
 SCF Done:  E(RB3LYP) =  -693.637034841     A.U. after    9 cycles
 SCF Done:  E(RB3LYP) =  -693.637035774     A.U. after    8 cycles
 SCF Done:  E(RB3LYP) =  -693.637035797     A.U. after    7 cycles
 SCF Done:  E(RB3LYP) =  -693.637035925     A.U. after    7 cycles
 Optimization completed.
    -- Stationary point found.
 Normal termination of Gaussian 16 at Fri Dec 11 00:26:11 2020.

 --------------------------------------------------------------------
 #N Geom=AllCheck Guess=TCheck SCRF=Check GenChk RB3LYP/6-31G(d) Freq
 --------------------------------------------------------------------

 Structure from the checkpoint file:  "JID_6717.chk"
 ------------------------------
 CID_15313242_JID_6717_neutraal
 ------------------------------
 Charge =  0 Multiplicity = 1

 SCF Done:  E(RB3LYP) =  -693.637035925     A.U. after    1 cycles

  Exact polarizability: 192.555  -1.967 151.453   5.283  13.522  97.258
 Approx polarizability: 315.657   0.899 231.282  12.712  31.878 148.948

                      1                      2                      3
                      A                      A                      A
 Frequencies --     48.4923                78.2011                88.4367
 Red. masses --      3.9627                 4.9543                 3.9216
 Frc consts  --      0.0055                 0.0179                 0.0181
 IR Inten    --      2.7259                 1.5082                 1.7731

                      4                      5                      6
                      A                      A                      A
 Frequencies --    104.3981               133.4315               146.5536
 Red. masses --      3.5909                 1.0345                 1.3734
 Frc consts  --      0.0231                 0.0109                 0.0174
 IR Inten    --      2.3820                 0.2082                 0.6082

                      7                      8                      9
                      A                      A                      A
 Frequencies --    149.3070               182.0639               220.4606
 Red. masses --      1.6729                 1.1125                 2.0127
 Frc consts  --      0.0220                 0.0217                 0.0576
 IR Inten    --      0.2621                 0.1630                 1.0659

                     10                     11                     12
                      A                      A                      A
 Frequencies --    244.1160               263.8112               270.9865
 Red. masses --      1.5791                 2.6648                 2.8912
 Frc consts  --      0.0554                 0.1093                 0.1251
 IR Inten    --      0.3606                 0.4100                 0.9516

                     13                     14                     15
                      A                      A                      A
 Frequencies --    291.6438               323.9324               347.3728
 Red. masses --      2.4628                 4.3631                 2.6599
 Frc consts  --      0.1234                 0.2697                 0.1891
 IR Inten    --      2.1571                 0.8722                 0.2333

                     16                     17                     18
                      A                      A                      A
 Frequencies --    368.6592               388.5523               427.6393
 Red. masses --      4.0548                 4.7996                 4.6267
 Frc consts  --      0.3247                 0.4269                 0.4985
 IR Inten    --      2.7877                 0.9030                 1.8763

                     19                     20                     21
                      A                      A                      A
 Frequencies --    464.1781               468.8088               491.3469
 Red. masses --      4.0086                 5.1258                 3.8011
 Frc consts  --      0.5089                 0.6637                 0.5407
 IR Inten    --      0.4910                 1.2375                 2.4597

                     22                     23                     24
                      A                      A                      A
 Frequencies --    517.4196               568.9100               608.3525
 Red. masses --      3.7898                 3.3906                 3.7498
 Frc consts  --      0.5978                 0.6466                 0.8177
 IR Inten    --      0.3685                 4.5059                 0.2066

                     25                     26                     27
                      A                      A                      A
 Frequencies --    610.1999               622.0184               664.9679
 Red. masses --      3.4757                 3.2347                 5.0024
 Frc consts  --      0.7625                 0.7374                 1.3033
 IR Inten    --     18.4900                 2.4530                 2.6461

                     28                     29                     30
                      A                      A                      A
 Frequencies --    702.6287               734.5838               772.4446
 Red. masses --      5.0638                 3.3629                 1.5289
 Frc consts  --      1.4729                 1.0692                 0.5375
 IR Inten    --      6.0646                 7.9367                28.5247

                     31                     32                     33
                      A                      A                      A
 Frequencies --    780.0139               852.1320               870.6272
 Red. masses --      3.4128                 2.2873                 2.4757
 Frc consts  --      1.2234                 0.9785                 1.1056
 IR Inten    --     10.3002                 0.6190                 2.8827

                     34                     35                     36
                      A                      A                      A
 Frequencies --    887.4245               940.5140               944.2239
 Red. masses --      1.5617                 1.4369                 2.1515
 Frc consts  --      0.7246                 0.7489                 1.1301
 IR Inten    --      1.6255                 3.0346                11.3551

                     37                     38                     39
                      A                      A                      A
 Frequencies --    980.0149               982.6169              1015.8043
 Red. masses --      1.2578                 1.9941                 1.8197
 Frc consts  --      0.7117                 1.1344                 1.1063
 IR Inten    --      0.2089                18.0241                 0.2002

                     40                     41                     42
                      A                      A                      A
 Frequencies --   1051.5625              1066.1191              1074.3562
 Red. masses --      1.7776                 1.4823                 2.4694
 Frc consts  --      1.1582                 0.9926                 1.6793
 IR Inten    --     20.6912                 7.9531                 8.3037

                     43                     44                     45
                      A                      A                      A
 Frequencies --   1082.9645              1085.9286              1113.4561
 Red. masses --      1.5520                 2.5264                 2.0520
 Frc consts  --      1.0724                 1.7553                 1.4989
 IR Inten    --      1.6051                 3.9035                 6.8963

                     46                     47                     48
                      A                      A                      A
 Frequencies --   1128.1005              1135.7121              1160.5813
 Red. masses --      2.0698                 2.5172                 3.1528
 Frc consts  --      1.5519                 1.9129                 2.5020
 IR Inten    --     10.1317                43.9295                60.4543

                     49                     50                     51
                      A                      A                      A
 Frequencies --   1198.4598              1201.0785              1232.0328
 Red. masses --      1.3267                 1.5720                 3.2549
 Frc consts  --      1.1227                 1.3361                 2.9109
 IR Inten    --     14.3057                18.2037                24.3557

                     52                     53                     54
                      A                      A                      A
 Frequencies --   1252.8773              1288.0369              1325.2445
 Red. masses --      3.6878                 4.5811                 1.6121
 Frc consts  --      3.4107                 4.4779                 1.6681
 IR Inten    --     63.2532                 7.6439                 1.2923

                     55                     56                     57
                      A                      A                      A
 Frequencies --   1360.7159              1364.8601              1411.1320
 Red. masses --      6.2490                 3.9929                 1.2758
 Frc consts  --      6.8170                 4.3824                 1.4968
 IR Inten    --      7.9932                13.9434                29.4495

                     58                     59                     60
                      A                      A                      A
 Frequencies --   1429.4155              1435.5539              1450.2227
 Red. masses --      1.2387                 1.4205                 1.2303
 Frc consts  --      1.4912                 1.7248                 1.5245
 IR Inten    --      8.3419                 3.9721                 3.1160

                     61                     62                     63
                      A                      A                      A
 Frequencies --   1491.1974              1498.0235              1500.8259
 Red. masses --      1.0568                 1.8981                 1.0900
 Frc consts  --      1.3845                 2.5096                 1.4466
 IR Inten    --      7.0873                 4.9425                16.9604

                     64                     65                     66
                      A                      A                      A
 Frequencies --   1502.2966              1510.1605              1520.0559
 Red. masses --      1.0529                 1.1219                 1.0860
 Frc consts  --      1.4001                 1.5074                 1.4784
 IR Inten    --      8.4261                 6.0525                10.9623

                     67                     68                     69
                      A                      A                      A
 Frequencies --   1523.4048              1525.3345              1532.3975
 Red. masses --      1.0727                 1.0806                 1.0725
 Frc consts  --      1.4668                 1.4813                 1.4838
 IR Inten    --      6.5455                 3.7277                12.1578

                     70                     71                     72
                      A                      A                      A
 Frequencies --   1534.4904              1628.3634              1660.3128
 Red. masses --      2.3583                 5.5069                 5.8479
 Frc consts  --      3.2717                 8.6032                 9.4980
 IR Inten    --     45.6699                 2.5497                19.6193

                     73                     74                     75
                      A                      A                      A
 Frequencies --   1715.1657              1821.6996              3032.8312
 Red. masses --      7.1070                11.4519                 1.0449
 Frc consts  --     12.3183                22.3914                 5.6625
 IR Inten    --     90.0219               130.0648                37.6016

                     76                     77                     78
                      A                      A                      A
 Frequencies --   3056.6374              3065.4462              3074.6470
 Red. masses --      1.0393                 1.0370                 1.0343
 Frc consts  --      5.7211                 5.7411                 5.7609
 IR Inten    --     19.3454                 1.0264                 9.7871

                     79                     80                     81
                      A                      A                      A
 Frequencies --   3079.3500              3108.4597              3129.1017
 Red. masses --      1.0977                 1.1004                 1.0973
 Frc consts  --      6.1329                 6.2647                 6.3304
 IR Inten    --     22.9207                 8.6843                 6.8733

                     82                     83                     84
                      A                      A                      A
 Frequencies --   3151.2532              3152.0999              3154.2744
 Red. masses --      1.0963                 1.1033                 1.1033
 Frc consts  --      6.4143                 6.4587                 6.4674
 IR Inten    --     13.3393                15.2448                10.7052

                     85                     86                     87
                      A                      A                      A
 Frequencies --   3169.2248              3174.1836              3185.6810
 Red. masses --      1.1046                 1.0966                 1.0853
 Frc consts  --      6.5368                 6.5100                 6.4893
 IR Inten    --     12.2657                24.9174                 1.7019

                     88                     89                     90
                      A                      A                      A
 Frequencies --   3197.3617              3209.7914              3217.2841
 Red. masses --      1.0890                 1.0930                 1.0949
 Frc consts  --      6.5596                 6.6350                 6.6775
 IR Inten    --     14.5855                32.1118                17.1788

 - Thermochemistry -
 -------------------
 Temperature   298.150 Kelvin.  Pressure   1.00000 Atm.
 Atom     1 has atomic number  6 and mass  12.00000

 Molecular mass:   216.11503 amu.
 Principal axes and moments of inertia in atomic units:
                           1         2         3
     Eigenvalues --  2550.851773200.727524504.25522
           X            0.99618  -0.08652   0.01164
           Y            0.08628   0.99608   0.01965
           Z           -0.01329  -0.01857   0.99974
 This molecule is an asymmetric top.
 Rotational symmetry number  1.
 Warning -- assumption of classical behavior for rotation
           may cause significant error
 Rotational temperatures (Kelvin)      0.03395     0.02706     0.01923
 Rotational constants (GHZ):           0.70751     0.56385     0.40067
 Zero-point vibrational energy     702967.9 (Joules/Mol)
                                  168.01336 (Kcal/Mol)
 Warning -- explicit consideration of  25 degrees of freedom as
           vibrations may cause significant error
 Vibrational temperatures:     69.77   112.51   127.24   150.21   191.98
          (Kelvin)            210.86   214.82   261.95   317.19   351.23
                              379.57   389.89   419.61   466.07   499.79
                              530.42   559.04   615.28   667.85   674.51
                              706.94   744.45   818.53   875.28   877.94
                              894.95   956.74  1010.93  1056.90  1111.38
                             1122.27  1226.03  1252.64  1276.81  1353.19
                             1358.53  1410.02  1413.77  1461.52  1512.96
                             1533.91  1545.76  1558.14  1562.41  1602.01
                             1623.09  1634.04  1669.82  1724.32  1728.08
                             1772.62  1802.61  1853.20  1906.73  1957.77
                             1963.73  2030.30  2056.61  2065.44  2086.55
                             2145.50  2155.32  2159.35  2161.47  2172.78
                             2187.02  2191.84  2194.62  2204.78  2207.79
                             2342.85  2388.82  2467.74  2621.02  4363.57
                             4397.82  4410.49  4423.73  4430.50  4472.38
                             4502.08  4533.95  4535.17  4538.30  4559.81
                             4566.94  4583.48  4600.29  4618.17  4628.95

 Zero-point correction=                           0.267746 (Hartree/Particle)
 Thermal correction to Energy=                    0.283198
 Thermal correction to Enthalpy=                  0.284142
 Thermal correction to Gibbs Free Energy=         0.226045
 Sum of electronic and zero-point Energies=           -693.369290
 Sum of electronic and thermal Energies=              -693.353838
 Sum of electronic and thermal Enthalpies=            -693.352894
 Sum of electronic and thermal Free Energies=         -693.410991

                     E (Thermal)             CV                S
                      KCal/Mol        Cal/Mol-Kelvin    Cal/Mol-Kelvin
 Total                  177.709             59.642            122.275
 Electronic               0.000              0.000              0.000
 Translational            0.889              2.981             42.015
 Rotational               0.889              2.981             31.975
 Vibrational            175.932             53.680             48.285
 Vibration     1          0.595              1.978              4.878
 Vibration     2          0.599              1.964              3.936
 Vibration     3          0.601              1.957              3.694
 Vibration     4          0.605              1.946              3.370
 Vibration     5          0.613              1.920              2.896
 Vibration     6          0.617              1.906              2.716
 Vibration     7          0.618              1.903              2.681
 Vibration     8          0.630              1.864              2.307
 Vibration     9          0.647              1.810              1.955
 Vibration    10          0.659              1.773              1.773
 Vibration    11          0.670              1.739              1.636
 Vibration    12          0.675              1.727              1.590
 Vibration    13          0.687              1.689              1.464
 Vibration    14          0.708              1.628              1.290
 Vibration    15          0.725              1.581              1.178
 Vibration    16          0.741              1.537              1.085
 Vibration    17          0.757              1.495              1.006
 Vibration    18          0.789              1.410              0.866
 Vibration    19          0.822              1.330              0.754
 Vibration    20          0.826              1.319              0.741
 Vibration    21          0.847              1.269              0.680
 Vibration    22          0.872              1.211              0.616
 Vibration    23          0.925              1.099              0.506
 Vibration    24          0.967              1.014              0.436
 Vibration    25          0.969              1.010              0.432

 Optimization completed.
    -- Stationary point found.
 Normal termination of Gaussian 16 at Fri Dec 11 00:37:35 2020.

 ----------------------------------------------------------------------
 # B3LYP/6-311++G(d,p) empiricaldispersion=gd3bj scf=xqc pop=npa geom=c
 heck
 ----------------------------------------------------------------------

 --------------------------------------
 CID_15313242_JID_6717_Energie_neutraal
 --------------------------------------
 Structure from the checkpoint file:  "JID_6717.chk"
 Charge =  0 Multiplicity = 1

 SCF Done:  E(RB3LYP) =  -693.822978796     A.U. after   15 cycles
 Normal termination of Gaussian 16 at Fri Dec 11 00:42:03 2020.

 ----------------------------------------------------------------------
 # B3LYP/6-311++G(d,p) empiricaldispersion=gd3bj scf=xqc pop=npa geom=c
 heck
 ----------------------------------------------------------------------

 ------------------------------------
 CID_15313242_JID_6717_Energie_kation
 ------------------------------------
 Structure from the checkpoint file:  "JID_6717.chk"
 Charge =  1 Multiplicity = 2

 SCF Done:  E(UB3LYP) =  -693.555347928     A.U. after   21 cycles
 Normal termination of Gaussian 16 at Fri Dec 11 00:50:43 2020.
 Gaussian 16:  ES64L-G16RevA.03 25-Dec-2016

 ----------------------------------------------------------------------
 # B3LYP/6-311++G(d,p) empiricaldispersion=gd3bj scf=xqc pop=npa geom=c
 heck
 ----------------------------------------------------------------------

 -----------------------------------
 CID_15313242_JID_6717_Energie_anion
 -----------------------------------
 Structure from the checkpoint file:  "JID_6717.chk"
 Charge = -1 Multiplicity = 2

                         Standard orientation:
 ---------------------------------------------------------------------
 Center     Atomic      Atomic             Coordinates (Angstroms)
 Number     Number       Type             X           Y           Z
 ---------------------------------------------------------------------
      1          6           0       -0.639947    2.961686    0.761859
      2          6           0       -0.530146    1.613398    0.098611
      3          6           0       -1.574427    0.990733   -0.495878
      4          8           0       -1.435084   -0.243410   -1.080482
      5          6           0       -0.454658   -1.107143   -0.503323
      6          6           0        0.868439   -0.378139   -0.387594
      7          6           0        2.106386   -0.989190   -0.568695
      8          6           0        3.288129   -0.280081   -0.340548
      9          6           0        3.221458    1.050231    0.070746
     10          6           0        1.985575    1.674309    0.234768
     11          6           0        0.789517    0.977745    0.001935
     12          6           0       -0.436885   -2.343682   -1.403819
     13          6           0       -0.961951   -1.537482    0.910002
     14          8           0       -2.112502   -1.343132    1.239868
     15          6           0        0.040114   -2.198275    1.835526
     16          6           0       -2.977972    1.473154   -0.665965
     17          1           0       -1.677469    3.270578    0.898164
     18          1           0       -0.134367    3.745458    0.181228
     19          1           0       -0.170872    2.946666    1.753514
     20          1           0        2.159097   -2.028743   -0.876901
     21          1           0        4.248988   -0.767668   -0.475883
     22          1           0        4.134240    1.609172    0.257606
     23          1           0        1.950686    2.716147    0.535142
     24          1           0        0.193392   -3.137040   -0.994708
     25          1           0       -1.457085   -2.723960   -1.501282
     26          1           0       -0.062164   -2.071211   -2.394302
     27          1           0        0.715787   -2.876509    1.306285
     28          1           0        0.665881   -1.422317    2.291653
     29          1           0       -0.496002   -2.732586    2.622157
     30          1           0       -3.648077    0.854304   -0.057717
     31          1           0       -3.104074    2.521245   -0.393486
     32          1           0       -3.279061    1.345211   -1.712320
 ---------------------------------------------------------------------

 SCF Done:  E(UB3LYP) =  -693.811174977     A.U. after   33 cycles
 SCF Done:  E(UB3LYP) =  -693.811174977     a.u. after    1 cycles

 The electronic state is 2-A.
 Alpha  occ. eigenvalues --  -19.03815 -19.00661 -10.15121 -10.13806 -10.11889
 Alpha  occ. eigenvalues --  -10.06947 -10.06718 -10.06626 -10.06619 -10.06585
 Alpha  occ. eigenvalues --  -10.06492 -10.06469 -10.06248 -10.06170 -10.06032
 Alpha  occ. eigenvalues --  -10.05946  -0.96754  -0.93426  -0.75507  -0.71716
 Alpha  occ. eigenvalues --   -0.68617  -0.64675  -0.63366  -0.62534  -0.61102
 Alpha  occ. eigenvalues --   -0.55899  -0.54602  -0.50053  -0.48429  -0.46344
 Alpha  occ. eigenvalues --   -0.42510  -0.39435  -0.38368  -0.37570  -0.34953
 Alpha  occ. eigenvalues --   -0.34702  -0.33432  -0.33086  -0.32855  -0.32515
 Alpha  occ. eigenvalues --   -0.31154  -0.30506  -0.30130  -0.29307  -0.29075
 Alpha  occ. eigenvalues --   -0.28740  -0.28027  -0.27014  -0.26155  -0.25744
 Alpha  occ. eigenvalues --   -0.25235  -0.24278  -0.22425  -0.20138  -0.16719
 Alpha  occ. eigenvalues --   -0.15930  -0.13709  -0.09464   0.04630
 Alpha virt. eigenvalues --    0.06755   0.07066   0.07389   0.07522   0.08484
 Alpha virt. eigenvalues --    0.08828   0.09269   0.09807   0.10389   0.10730
 Alpha virt. eigenvalues --    0.11128   0.11522   0.12067   0.13085   0.13178

  Beta  occ. eigenvalues --  -19.03775 -19.00591 -10.15058 -10.13809 -10.11805
  Beta  occ. eigenvalues --  -10.06867 -10.06703 -10.06610 -10.06543 -10.06538
  Beta  occ. eigenvalues --  -10.06469 -10.06464 -10.06273 -10.06195 -10.05952
  Beta  occ. eigenvalues --  -10.05894  -0.96665  -0.93299  -0.75380  -0.71623
  Beta  occ. eigenvalues --   -0.68514  -0.64583  -0.63265  -0.62439  -0.61044
  Beta  occ. eigenvalues --   -0.55835  -0.54514  -0.49889  -0.48327  -0.46247
  Beta  occ. eigenvalues --   -0.42436  -0.39324  -0.38273  -0.37485  -0.34872
  Beta  occ. eigenvalues --   -0.34551  -0.33377  -0.32994  -0.32773  -0.32444
  Beta  occ. eigenvalues --   -0.31099  -0.30460  -0.30083  -0.29255  -0.29030
  Beta  occ. eigenvalues --   -0.28679  -0.27973  -0.26963  -0.26044  -0.25525
  Beta  occ. eigenvalues --   -0.24963  -0.24156  -0.22356  -0.20021  -0.16457
  Beta  occ. eigenvalues --   -0.15642  -0.13521  -0.09193
  Beta virt. eigenvalues --    0.06778   0.07544   0.07723   0.07890   0.08111
  Beta virt. eigenvalues --    0.08669   0.09236   0.09605   0.10089   0.10544
  Beta virt. eigenvalues --    0.11019   0.11516   0.11793   0.12135   0.13130

 Mulliken charges and spin densities:
               1          2
     1  C   -0.141191  -0.574635
     2  C    0.105949   0.077302
     3  C    0.024872  -0.198410
     4  O    0.038704   0.016117
     5  C   -0.308097   0.316157
     6  C   -0.192863   0.642357
     7  C   -0.752619   0.647755
     8  C    0.709737  -1.222918
     9  C    0.123386  -0.535016
    10  C   -0.673466   0.538018
    11  C    0.102817   0.576741
    12  C    1.392569  -1.790102
    13  C   -0.959072   0.865755
    14  O   -0.233669   0.040258
    15  C    0.802351  -1.324653
    16  C    0.335870  -0.941555
    17  H   -0.031920   0.162171
    18  H   -0.124167   0.262904
    19  H   -0.040831   0.193544
    20  H   -0.255352   0.408388
    21  H   -0.473504   0.630733
    22  H   -0.251998   0.393643
    23  H   -0.006884   0.156451
    24  H   -0.277241   0.420552
    25  H    0.028835   0.168402
    26  H    0.012153   0.151656
    27  H   -0.252627   0.412113
    28  H    0.010820   0.170726
    29  H    0.136069   0.027240
    30  H    0.004714   0.186500
    31  H    0.020706   0.098880
    32  H    0.125951   0.022924
 Sum of Mulliken charges =  -1.00000   1.00000

 Dipole moment (field-independent basis, Debye):
    X=             -2.7588    Y=              1.8372    Z=             -0.2947  Tot=              3.3276
 Quadrupole moment (field-independent basis, Debye-Ang):
   XX=           -151.2883   YY=           -143.7985   ZZ=           -123.0635
   XY=              2.5118   XZ=              3.4233   YZ=             -1.4437

 Summary of Natural Population Analysis:

                                       Natural Population
                Natural  -----------------------------------------------
    Atom  No    Charge         Core      Valence    Rydberg      Total
 -----------------------------------------------------------------------
      C    1   -0.28705      0.99964     2.28294    0.00447     3.28705
      C    2   -0.08216      0.99941     2.07273    0.01003     3.08216
      C    3    0.20313      0.99936     1.78393    0.01359     2.79687
      O    4   -0.28252      0.99985     3.27177    0.01089     4.28252
      C    5    0.09889      0.99943     1.88482    0.01686     2.90111
      C    6   -0.01636      0.99945     2.00503    0.01188     3.01636
      C    7   -0.10061      0.99951     2.09121    0.00989     3.10061
      C    8   -0.10175      0.99956     2.09148    0.01071     3.10175
      C    9   -0.08480      0.99956     2.07583    0.00941     3.08480
      C   10   -0.10893      0.99953     2.09962    0.00978     3.10893
      C   11   -0.00530      0.99945     1.99558    0.01028     3.00530
      C   12   -0.28669      0.99962     2.27885    0.00822     3.28669
      C   13    0.30257      0.99963     1.67427    0.02353     2.69743
      O   14   -0.27941      0.99987     3.27203    0.00751     4.27941
      C   15   -0.33938      0.99961     2.33371    0.00606     3.33938
      C   16   -0.30462      0.99961     2.30013    0.00488     3.30462
      H   17    0.10192      0.00000     0.39721    0.00088     0.39808
      H   18    0.09879      0.00000     0.39957    0.00163     0.40121
      H   19    0.10137      0.00000     0.39721    0.00142     0.39863
      H   20    0.10154      0.00000     0.39644    0.00202     0.39846
      H   21    0.09912      0.00000     0.39976    0.00112     0.40088
      H   22    0.09664      0.00000     0.40241    0.00095     0.40336
      H   23    0.09974      0.00000     0.39912    0.00114     0.40026
      H   24    0.10398      0.00000     0.39456    0.00147     0.39602
      H   25    0.10751      0.00000     0.39132    0.00116     0.39249
      H   26    0.10778      0.00000     0.39108    0.00114     0.39222
      H   27    0.10917      0.00000     0.38921    0.00162     0.39083
      H   28    0.12084      0.00000     0.37773    0.00143     0.37916
      H   29    0.10739      0.00000     0.39159    0.00102     0.39261
      H   30    0.11357      0.00000     0.38493    0.00151     0.38643
      H   31    0.10064      0.00000     0.39852    0.00083     0.39936
      H   32    0.10499      0.00000     0.39369    0.00131     0.39501
 =======================================================================
   * Total *   -0.00000     15.99309    41.81829    0.18862    58.00000

 Normal termination of Gaussian 16 at Fri Dec 11 01:04:34 2020.
