 Gaussian 16, Revision A.03,

 -----------------------------------------------------------
 # opt freq B3LYP/6-31G(d) empiricaldispersion=gd3bj scf=xqc
 -----------------------------------------------------------

 -------------------------------
 CID_131189678_JID_3221_neutraal
 -------------------------------
 Symbolic Z-matrix:
 Charge =  0 Multiplicity = 1

 SCF Done:  E(RB3LYP) =  -963.950253123     A.U. after   15 cycles
 SCF Done:  E(RB3LYP) =  -963.953920348     A.U. after   13 cycles
 SCF Done:  E(RB3LYP) =  -963.953981100     A.U. after   13 cycles
 SCF Done:  E(RB3LYP) =  -963.954701293     A.U. after   12 cycles
 SCF Done:  E(RB3LYP) =  -963.954961409     A.U. after   12 cycles
 SCF Done:  E(RB3LYP) =  -963.955182936     A.U. after   13 cycles
 SCF Done:  E(RB3LYP) =  -963.955230931     A.U. after   11 cycles
 SCF Done:  E(RB3LYP) =  -963.955249503     A.U. after   10 cycles
 SCF Done:  E(RB3LYP) =  -963.955257471     A.U. after   10 cycles
 SCF Done:  E(RB3LYP) =  -963.955258642     A.U. after    8 cycles
 SCF Done:  E(RB3LYP) =  -963.955259638     A.U. after    8 cycles
 SCF Done:  E(RB3LYP) =  -963.955259951     A.U. after    8 cycles
 SCF Done:  E(RB3LYP) =  -963.955260071     A.U. after    8 cycles
 SCF Done:  E(RB3LYP) =  -963.955260125     A.U. after    8 cycles
 SCF Done:  E(RB3LYP) =  -963.955260153     A.U. after    8 cycles
 SCF Done:  E(RB3LYP) =  -963.955260167     A.U. after    7 cycles
 Optimization completed.
    -- Stationary point found.
 Normal termination of Gaussian 16 at Wed Dec  9 22:30:48 2020.

 --------------------------------------------------------------------
 #N Geom=AllCheck Guess=TCheck SCRF=Check GenChk RB3LYP/6-31G(d) Freq
 --------------------------------------------------------------------

 Structure from the checkpoint file:  "JID_3221.chk"
 -------------------------------
 CID_131189678_JID_3221_neutraal
 -------------------------------
 Charge =  0 Multiplicity = 1

 SCF Done:  E(RB3LYP) =  -963.955260167     A.U. after    1 cycles

  Exact polarizability: 167.930 -22.631  99.783  -2.306   0.229  83.049
 Approx polarizability: 255.566 -51.827 168.997  -7.663   2.379 140.946

                      1                      2                      3
                      A                      A                      A
 Frequencies --     24.2446                38.4819                54.1073
 Red. masses --      8.0631                 4.1041                 7.0679
 Frc consts  --      0.0028                 0.0036                 0.0122
 IR Inten    --      4.3282                 0.2938                 5.2233

                      4                      5                      6
                      A                      A                      A
 Frequencies --    138.6488               143.6044               189.3445
 Red. masses --      1.3299                 3.3163                 6.3927
 Frc consts  --      0.0151                 0.0403                 0.1350
 IR Inten    --      0.5574                 1.1836                 1.1487

                      7                      8                      9
                      A                      A                      A
 Frequencies --    235.3086               254.0094               295.2106
 Red. masses --      4.0777                 4.6860                 3.3726
 Frc consts  --      0.1330                 0.1781                 0.1732
 IR Inten    --      2.9152                 4.3922                 6.4353

                     10                     11                     12
                      A                      A                      A
 Frequencies --    329.5733               405.5663               432.0700
 Red. masses --      3.2712                 4.5469                 3.1284
 Frc consts  --      0.2093                 0.4406                 0.3441
 IR Inten    --      2.5858                 3.2177                 2.4293

                     13                     14                     15
                      A                      A                      A
 Frequencies --    517.2597               549.6991               598.7600
 Red. masses --      1.3387                 7.6552                 7.3423
 Frc consts  --      0.2110                 1.3629                 1.5509
 IR Inten    --    229.0186                19.1932                 6.9549

                     16                     17                     18
                      A                      A                      A
 Frequencies --    635.9249               676.0281               685.7578
 Red. masses --      4.9083                 4.6421                 3.5123
 Frc consts  --      1.1695                 1.2500                 0.9732
 IR Inten    --      0.2342                15.7066                 9.8303

                     19                     20                     21
                      A                      A                      A
 Frequencies --    704.6813               722.2909               726.6472
 Red. masses --      8.3259                 1.4136                 4.0028
 Frc consts  --      2.4359                 0.4345                 1.2453
 IR Inten    --      7.3839                33.6186                 1.2953

                     22                     23                     24
                      A                      A                      A
 Frequencies --    783.1881               856.6186               891.5729
 Red. masses --      4.3074                 1.3025                10.2072
 Frc consts  --      1.5567                 0.5631                 4.7805
 IR Inten    --      4.4143                 5.9134                77.0912

                     25                     26                     27
                      A                      A                      A
 Frequencies --    928.3750               982.0066              1009.6816
 Red. masses --      4.8211                 2.2838                 1.6404
 Frc consts  --      2.4482                 1.2976                 0.9853
 IR Inten    --      1.2182                 5.3335                16.6348

                     28                     29                     30
                      A                      A                      A
 Frequencies --   1025.3190              1038.3331              1063.1227
 Red. masses --      8.0001                 5.1144                 4.4719
 Frc consts  --      4.9552                 3.2488                 2.9779
 IR Inten    --     30.7562                 2.4905                35.3587

                     31                     32                     33
                      A                      A                      A
 Frequencies --   1076.4859              1105.4961              1157.0737
 Red. masses --      1.4744                 1.4415                 1.7858
 Frc consts  --      1.0067                 1.0379                 1.4086
 IR Inten    --      1.7323                 6.6189                 6.4558

                     34                     35                     36
                      A                      A                      A
 Frequencies --   1191.3646              1256.4912              1303.5612
 Red. masses --      2.5429                 2.0061                 1.8522
 Frc consts  --      2.1265                 1.8660                 1.8544
 IR Inten    --      9.9340                13.9477                25.8869

                     37                     38                     39
                      A                      A                      A
 Frequencies --   1315.6289              1355.3904              1374.3460
 Red. masses --      2.0608                 8.2851                 1.6342
 Frc consts  --      2.1016                 8.9676                 1.8186
 IR Inten    --    114.3921               438.8777               190.8723

                     40                     41                     42
                      A                      A                      A
 Frequencies --   1402.7238              1438.0036              1460.3044
 Red. masses --      3.1959                 1.3041                 2.5285
 Frc consts  --      3.7050                 1.5888                 3.1769
 IR Inten    --      1.8659                 1.4547                55.5303

                     43                     44                     45
                      A                      A                      A
 Frequencies --   1475.0599              1497.2605              1513.1086
 Red. masses --      2.8715                 1.1322                 1.0986
 Frc consts  --      3.6811                 1.4954                 1.4819
 IR Inten    --     76.2362                11.4579                 6.9559

                     46                     47                     48
                      A                      A                      A
 Frequencies --   1516.0005              1540.5501              1589.9988
 Red. masses --      1.4883                 2.4755                 5.4194
 Frc consts  --      2.0153                 3.4615                 8.0723
 IR Inten    --      6.1376                 8.3675                25.7350

                     49                     50                     51
                      A                      A                      A
 Frequencies --   1625.5293              3047.0185              3091.6247
 Red. masses --      8.9203                 1.0407                 1.0662
 Frc consts  --     13.8873                 5.6927                 6.0042
 IR Inten    --    166.5962                14.4005                 6.2995

                     52                     53                     54
                      A                      A                      A
 Frequencies --   3096.1210              3158.5905              3169.9420
 Red. masses --      1.1005                 1.1004                 1.0975
 Frc consts  --      6.2154                 6.4684                 6.4975
 IR Inten    --     12.9022                 0.5511                 2.6853

                     55                     56                     57
                      A                      A                      A
 Frequencies --   3264.3760              3287.1926              3543.1537
 Red. masses --      1.0908                 1.1052                 1.0803
 Frc consts  --      6.8483                 7.0365                 7.9906
 IR Inten    --      4.6009                 2.1820                85.3369

 - Thermochemistry -
 -------------------
 Temperature   298.150 Kelvin.  Pressure   1.00000 Atm.
 Atom     1 has atomic number  6 and mass  12.00000

 Molecular mass:   196.04188 amu.
 Principal axes and moments of inertia in atomic units:
                           1         2         3
     Eigenvalues --  1007.478214929.160195188.24197
           X            1.00000   0.00191  -0.00080
           Y           -0.00192   0.99985  -0.01712
           Z            0.00077   0.01712   0.99985
 This molecule is an asymmetric top.
 Rotational symmetry number  1.
 Warning -- assumption of classical behavior for rotation
           may cause significant error
 Rotational temperatures (Kelvin)      0.08597     0.01757     0.01669
 Rotational constants (GHZ):           1.79135     0.36614     0.34785
 Zero-point vibrational energy     411442.6 (Joules/Mol)
                                   98.33714 (Kcal/Mol)
 Warning -- explicit consideration of  15 degrees of freedom as
           vibrations may cause significant error
 Vibrational temperatures:     34.88    55.37    77.85   199.48   206.61
          (Kelvin)            272.42   338.56   365.46   424.74   474.18
                              583.52   621.65   744.22   790.89   861.48
                              914.95   972.65   986.65  1013.88  1039.22
                             1045.48  1126.83  1232.48  1282.77  1335.72
                             1412.89  1452.71  1475.21  1493.93  1529.60
                             1548.82  1590.56  1664.77  1714.11  1807.81
                             1875.53  1892.90  1950.10  1977.38  2018.21
                             2068.97  2101.05  2122.28  2154.22  2177.03
                             2181.19  2216.51  2287.65  2338.77  4383.98
                             4448.16  4454.63  4544.51  4560.84  4696.71
                             4729.54  5097.81

 Zero-point correction=                           0.156710 (Hartree/Particle)
 Thermal correction to Energy=                    0.168269
 Thermal correction to Enthalpy=                  0.169213
 Thermal correction to Gibbs Free Energy=         0.116701
 Sum of electronic and zero-point Energies=           -963.798550
 Sum of electronic and thermal Energies=              -963.786991
 Sum of electronic and thermal Enthalpies=            -963.786047
 Sum of electronic and thermal Free Energies=         -963.838560

                     E (Thermal)             CV                S
                      KCal/Mol        Cal/Mol-Kelvin    Cal/Mol-Kelvin
 Total                  105.590             42.194            110.521
 Electronic               0.000              0.000              0.000
 Translational            0.889              2.981             41.725
 Rotational               0.889              2.981             31.622
 Vibrational            103.813             36.232             37.175
 Vibration     1          0.593              1.985              6.252
 Vibration     2          0.594              1.982              5.336
 Vibration     3          0.596              1.976              4.661
 Vibration     4          0.614              1.915              2.822
 Vibration     5          0.616              1.910              2.755
 Vibration     6          0.633              1.855              2.234
 Vibration     7          0.655              1.787              1.838
 Vibration     8          0.665              1.756              1.703
 Vibration     9          0.689              1.683              1.444
 Vibration    10          0.712              1.616              1.262
 Vibration    11          0.771              1.458              0.942
 Vibration    12          0.793              1.400              0.852
 Vibration    13          0.872              1.212              0.616
 Vibration    14          0.905              1.140              0.545
 Vibration    15          0.957              1.034              0.452

                           ! Non-Optimized Parameters !
 Normal termination of Gaussian 16 at Wed Dec  9 22:36:18 2020.

 ----------------------------------------------------------------------
 # B3LYP/6-311++G(d,p) empiricaldispersion=gd3bj scf=xqc pop=npa geom=c
 heck
 ----------------------------------------------------------------------

 ---------------------------------------
 CID_131189678_JID_3221_Energie_neutraal
 ---------------------------------------
 Structure from the checkpoint file:  "JID_3221.chk"
 Charge =  0 Multiplicity = 1

 SCF Done:  E(RB3LYP) =  -964.135861324     A.U. after   15 cycles
 Normal termination of Gaussian 16 at Wed Dec  9 22:38:35 2020.

 ----------------------------------------------------------------------
 # B3LYP/6-311++G(d,p) empiricaldispersion=gd3bj scf=xqc pop=npa geom=c
 heck
 ----------------------------------------------------------------------

 -------------------------------------
 CID_131189678_JID_3221_Energie_kation
 -------------------------------------
 Structure from the checkpoint file:  "JID_3221.chk"
 Charge =  1 Multiplicity = 2

 SCF Done:  E(UB3LYP) =  -963.829308985     A.U. after   28 cycles
 Normal termination of Gaussian 16 at Wed Dec  9 22:44:53 2020.
 Gaussian 16:  ES64L-G16RevA.03 25-Dec-2016

 ----------------------------------------------------------------------
 # B3LYP/6-311++G(d,p) empiricaldispersion=gd3bj scf=xqc pop=npa geom=c
 heck
 ----------------------------------------------------------------------

 ------------------------------------
 CID_131189678_JID_3221_Energie_anion
 ------------------------------------
 Structure from the checkpoint file:  "JID_3221.chk"
 Charge = -1 Multiplicity = 2

                         Standard orientation:
 ---------------------------------------------------------------------
 Center     Atomic      Atomic             Coordinates (Angstroms)
 Number     Number       Type             X           Y           Z
 ---------------------------------------------------------------------
      1          6           0        1.844219    2.236757   -0.349074
      2          6           0        2.348494    0.833471   -0.275141
      3          7           0        3.259766    0.294443   -1.059891
      4          6           0        3.391381   -1.016480   -0.649946
      5          6           0        2.551209   -1.281646    0.399377
      6          7           0        1.893137   -0.083045    0.652282
      7          6           0        0.733506    0.078688    1.507356
      8          6           0       -0.534200   -0.169538    0.740014
      9          7           0       -1.657089    0.469224    0.887593
     10          6           0       -2.530232   -0.055660   -0.050281
     11         16           0       -4.087417    0.316913   -0.372864
     12          8           0       -1.866016   -1.050370   -0.779458
     13          7           0       -0.604738   -1.178889   -0.177515
     14          1           0        0.763081    2.281757   -0.530528
     15          1           0        2.353962    2.738145   -1.173192
     16          1           0        2.047635    2.794426    0.573485
     17          1           0        4.094909   -1.685311   -1.126151
     18          1           0        2.376884   -2.160170    1.003026
     19          1           0        0.806201   -0.621736    2.345525
     20          1           0        0.693116    1.089184    1.916925
     21          1           0        0.127216   -1.369626   -0.858718
 ---------------------------------------------------------------------

 SCF Done:  E(UB3LYP) =  -964.160578610     A.U. after   25 cycles

 The electronic state is 2-A.
 Alpha  occ. eigenvalues --  -88.63845 -19.05447 -14.27341 -14.25744 -14.19874
 Alpha  occ. eigenvalues --  -14.16671 -10.13597 -10.12444 -10.12154 -10.10398
 Alpha  occ. eigenvalues --  -10.09490 -10.09115 -10.08630  -7.72678  -5.69057
 Alpha  occ. eigenvalues --   -5.68556  -5.68230  -1.00776  -0.92495  -0.80688
 Alpha  occ. eigenvalues --   -0.78424  -0.74670  -0.68690  -0.63709  -0.59838
 Alpha  occ. eigenvalues --   -0.58727  -0.50926  -0.49980  -0.47561  -0.44300
 Alpha  occ. eigenvalues --   -0.42868  -0.41513  -0.37293  -0.36594  -0.35251
 Alpha  occ. eigenvalues --   -0.33613  -0.32753  -0.31417  -0.30715  -0.30071
 Alpha  occ. eigenvalues --   -0.29803  -0.26993  -0.23061  -0.19989  -0.19418
 Alpha  occ. eigenvalues --   -0.18175  -0.18000  -0.15899  -0.13707  -0.08243
 Alpha  occ. eigenvalues --   -0.06808   0.03404
 Alpha virt. eigenvalues --    0.07107   0.08077   0.08563   0.10206   0.10573
 Alpha virt. eigenvalues --    0.11381   0.11759   0.12517   0.13147   0.13846
 Alpha virt. eigenvalues --    0.14374   0.14760   0.15515   0.15758   0.16420

  Beta  occ. eigenvalues --  -88.63794 -19.05213 -14.27299 -14.25533 -14.19879
  Beta  occ. eigenvalues --  -14.16776 -10.13582 -10.12197 -10.12045 -10.10382
  Beta  occ. eigenvalues --  -10.09097 -10.08839 -10.08627  -7.72633  -5.69043
  Beta  occ. eigenvalues --   -5.68382  -5.68202  -1.00342  -0.92449  -0.80343
  Beta  occ. eigenvalues --   -0.78200  -0.74154  -0.68653  -0.63528  -0.59761
  Beta  occ. eigenvalues --   -0.58333  -0.50850  -0.49395  -0.47318  -0.44096
  Beta  occ. eigenvalues --   -0.42474  -0.41202  -0.37155  -0.36281  -0.34731
  Beta  occ. eigenvalues --   -0.33406  -0.31975  -0.31340  -0.30500  -0.29986
  Beta  occ. eigenvalues --   -0.29680  -0.26701  -0.22600  -0.18775  -0.18258
  Beta  occ. eigenvalues --   -0.17927  -0.17263  -0.15752  -0.13598  -0.07043
  Beta  occ. eigenvalues --   -0.06669
  Beta virt. eigenvalues --    0.07120   0.08020   0.08631   0.09944   0.10596
  Beta virt. eigenvalues --    0.11134   0.11457   0.11921   0.12525   0.13191
  Beta virt. eigenvalues --    0.13827   0.14426   0.14793   0.15587   0.16314

 Mulliken charges and spin densities:
               1          2
     1  C   -0.511471  -0.178562
     2  C   -0.115717   0.077952
     3  N   -0.115292   0.002475
     4  C   -0.040184  -0.032660
     5  C   -0.011144  -0.098081
     6  N    0.176696   0.006583
     7  C   -0.737087  -0.251963
     8  C    0.788221   0.338943
     9  N   -0.001125  -0.047028
    10  C   -0.081607   0.225493
    11  S   -0.937010   0.118454
    12  O    0.276025   0.047773
    13  N   -0.538527   0.115105
    14  H    0.178512   0.009431
    15  H    0.167050  -0.001329
    16  H    0.139827   0.006019
    17  H    0.138403   0.008036
    18  H   -0.078587   0.225803
    19  H   -0.194509   0.439324
    20  H    0.190717  -0.026370
    21  H    0.306810   0.014602
 Sum of Mulliken charges =  -1.00000   1.00000

 Dipole moment (field-independent basis, Debye):
    X=              9.0421    Y=              0.1313    Z=              0.6983  Tot=              9.0700
 Quadrupole moment (field-independent basis, Debye-Ang):
   XX=           -157.5583   YY=            -91.9778   ZZ=            -99.1354
   XY=              1.9641   XZ=              0.4679   YZ=              2.6355

 Summary of Natural Population Analysis:

                                       Natural Population
                Natural  -----------------------------------------------
    Atom  No    Charge         Core      Valence    Rydberg      Total
 -----------------------------------------------------------------------
      C    1   -0.31050      0.99963     2.30703    0.00384     3.31050
      C    2    0.19760      0.99962     1.78492    0.01786     2.80240
      N    3   -0.26483      0.99970     2.75539    0.00974     3.76483
      C    4   -0.03802      0.99958     2.02487    0.01357     3.03802
      C    5   -0.04314      0.99956     2.03056    0.01302     3.04314
      N    6   -0.20602      0.99962     2.69588    0.01052     3.70602
      C    7   -0.10860      0.99958     2.09727    0.01175     3.10860
      C    8    0.30690      0.99961     1.67637    0.01712     2.69310
      N    9   -0.30369      0.99965     2.79394    0.01011     3.80369
      C   10    0.22143      0.99972     1.75611    0.02275     2.77857
      S   11   -0.10881      4.99948     3.09281    0.01651     8.10881
      O   12   -0.17529      0.99987     3.16499    0.01042     4.17529
      N   13   -0.12507      0.99961     2.61169    0.01376     3.62507
      H   14    0.11606      0.00000     0.38297    0.00097     0.38394
      H   15    0.11235      0.00000     0.38688    0.00078     0.38765
      H   16    0.10286      0.00000     0.39627    0.00087     0.39714
      H   17    0.09396      0.00000     0.40496    0.00108     0.40604
      H   18    0.10699      0.00000     0.39185    0.00116     0.39301
      H   19    0.11867      0.00000     0.37833    0.00301     0.38133
      H   20    0.11215      0.00000     0.38676    0.00110     0.38785
      H   21    0.19501      0.00000     0.30314    0.00185     0.30499
 =======================================================================
   * Total *   -0.00000     16.99523    33.82299    0.18178    51.00000

 Normal termination of Gaussian 16 at Wed Dec  9 22:50:30 2020.
