 Gaussian 16, Revision A.03,

 -----------------------------------------------------------
 # opt freq B3LYP/6-31G(d) empiricaldispersion=gd3bj scf=xqc
 -----------------------------------------------------------

 ------------------------------
 CID_82682633_JID_3073_neutraal
 ------------------------------
 Symbolic Z-matrix:
 Charge =  0 Multiplicity = 1

 SCF Done:  E(RB3LYP) =  -579.101562172     A.U. after   14 cycles
 SCF Done:  E(RB3LYP) =  -579.104215462     A.U. after   12 cycles
 SCF Done:  E(RB3LYP) =  -579.102263649     A.U. after   12 cycles
 SCF Done:  E(RB3LYP) =  -579.104809741     A.U. after   11 cycles
 SCF Done:  E(RB3LYP) =  -579.106418227     A.U. after   12 cycles
 SCF Done:  E(RB3LYP) =  -579.107079713     A.U. after   11 cycles
 SCF Done:  E(RB3LYP) =  -579.107117227     A.U. after   12 cycles
 SCF Done:  E(RB3LYP) =  -579.107582043     A.U. after   11 cycles
 SCF Done:  E(RB3LYP) =  -579.107937113     A.U. after   11 cycles
 SCF Done:  E(RB3LYP) =  -579.108282245     A.U. after   12 cycles
 SCF Done:  E(RB3LYP) =  -579.115708519     A.U. after    7 cycles
 SCF Done:  E(RB3LYP) =  -579.115709694     A.U. after    9 cycles
 SCF Done:  E(RB3LYP) =  -579.115709768     A.U. after    7 cycles
 SCF Done:  E(RB3LYP) =  -579.115709811     A.U. after    7 cycles
 SCF Done:  E(RB3LYP) =  -579.115709827     A.U. after    6 cycles
 Optimization completed.
    -- Stationary point found.
 Normal termination of Gaussian 16 at Wed Dec  9 22:53:36 2020.

 --------------------------------------------------------------------
 #N Geom=AllCheck Guess=TCheck SCRF=Check GenChk RB3LYP/6-31G(d) Freq
 --------------------------------------------------------------------

 Structure from the checkpoint file:  "JID_3073.chk"
 ------------------------------
 CID_82682633_JID_3073_neutraal
 ------------------------------
 Charge =  0 Multiplicity = 1

 SCF Done:  E(RB3LYP) =  -579.115709827     A.U. after    1 cycles

  Exact polarizability: 146.078  -1.357 110.756   1.513   2.704 109.219
 Approx polarizability: 175.333  -1.291 153.549   9.811  -0.705 172.357

                      1                      2                      3
                      A                      A                      A
 Frequencies --     23.0306                44.4863                57.1593
 Red. masses --      3.4332                 2.9005                 2.8216
 Frc consts  --      0.0011                 0.0034                 0.0054
 IR Inten    --      0.4215                 0.1062                 2.5594

                      4                      5                      6
                      A                      A                      A
 Frequencies --     61.1694                87.2954               102.1885
 Red. masses --      3.2959                 3.0917                 3.2750
 Frc consts  --      0.0073                 0.0139                 0.0201
 IR Inten    --      1.1013                 0.6190                 2.1479

                      7                      8                      9
                      A                      A                      A
 Frequencies --    147.4030               172.5380               197.4879
 Red. masses --      2.3286                 3.7213                 1.9949
 Frc consts  --      0.0298                 0.0653                 0.0458
 IR Inten    --      0.8015                 0.2703                 2.5791

                     10                     11                     12
                      A                      A                      A
 Frequencies --    208.2464               231.2304               261.3665
 Red. masses --      2.2617                 1.1895                 2.5255
 Frc consts  --      0.0578                 0.0375                 0.1016
 IR Inten    --      1.3997                 0.4161                 4.1636

                     13                     14                     15
                      A                      A                      A
 Frequencies --    277.6447               296.1461               329.2247
 Red. masses --      1.5981                 2.5022                 2.0427
 Frc consts  --      0.0726                 0.1293                 0.1304
 IR Inten    --      0.5672                 2.1594                 0.5759

                     16                     17                     18
                      A                      A                      A
 Frequencies --    370.0819               384.6531               398.1325
 Red. masses --      1.2932                 1.7309                 1.8397
 Frc consts  --      0.1044                 0.1509                 0.1718
 IR Inten    --     49.0161                21.8802                 1.0010

                     19                     20                     21
                      A                      A                      A
 Frequencies --    418.2862               482.2657               505.7623
 Red. masses --      2.4481                 2.4513                 3.3048
 Frc consts  --      0.2524                 0.3359                 0.4981
 IR Inten    --      9.5883                14.1425                 2.7519

                     22                     23                     24
                      A                      A                      A
 Frequencies --    518.3343               578.6280               599.7631
 Red. masses --      2.1394                 2.6231                 3.2022
 Frc consts  --      0.3387                 0.5175                 0.6787
 IR Inten    --     15.0839                20.5171                 9.4633

                     25                     26                     27
                      A                      A                      A
 Frequencies --    677.2785               743.0653               769.1784
 Red. masses --      1.4247                 1.4554                 2.2217
 Frc consts  --      0.3850                 0.4735                 0.7744
 IR Inten    --     85.6392                10.8323                14.0284

                     28                     29                     30
                      A                      A                      A
 Frequencies --    798.7333               820.5849               877.0786
 Red. masses --      2.2423                 2.4754                 1.4163
 Frc consts  --      0.8428                 0.9821                 0.6419
 IR Inten    --      0.7340                 8.6394                16.5885

                     31                     32                     33
                      A                      A                      A
 Frequencies --    892.3605               923.6886               945.2499
 Red. masses --      1.4590                 1.7626                 1.5476
 Frc consts  --      0.6845                 0.8860                 0.8147
 IR Inten    --     10.2572                 8.2622                 0.2263

                     34                     35                     36
                      A                      A                      A
 Frequencies --    960.4280               971.6937               975.0638
 Red. masses --      2.0472                 1.6732                 1.6742
 Frc consts  --      1.1126                 0.9308                 0.9378
 IR Inten    --     12.2235                70.1684                59.2800

                     37                     38                     39
                      A                      A                      A
 Frequencies --    985.0495              1059.9860              1067.4404
 Red. masses --      1.7014                 1.7923                 2.1560
 Frc consts  --      0.9727                 1.1865                 1.4474
 IR Inten    --      7.0148                 5.5341                 7.4833

                     40                     41                     42
                      A                      A                      A
 Frequencies --   1084.5899              1099.9704              1106.4966
 Red. masses --      2.2638                 2.1997                 1.9945
 Frc consts  --      1.5690                 1.5681                 1.4387
 IR Inten    --      3.1076                 1.9294                 9.8830

                     43                     44                     45
                      A                      A                      A
 Frequencies --   1135.1364              1150.7919              1170.4066
 Red. masses --      1.9600                 1.8531                 2.5323
 Frc consts  --      1.4880                 1.4459                 2.0438
 IR Inten    --      3.3469                 3.6335                 3.5917

                     46                     47                     48
                      A                      A                      A
 Frequencies --   1177.6529              1197.3746              1257.3144
 Red. masses --      1.5288                 1.3721                 1.4312
 Frc consts  --      1.2492                 1.1591                 1.3330
 IR Inten    --      0.4634                17.2872                30.4733

                     49                     50                     51
                      A                      A                      A
 Frequencies --   1270.2923              1283.8843              1291.6452
 Red. masses --      1.2700                 1.3244                 1.2135
 Frc consts  --      1.2075                 1.2862                 1.1928
 IR Inten    --      0.1175                11.0438                 2.8594

                     52                     53                     54
                      A                      A                      A
 Frequencies --   1323.5841              1337.6177              1342.7300
 Red. masses --      1.4570                 1.3983                 1.1729
 Frc consts  --      1.5039                 1.4741                 1.2459
 IR Inten    --     82.6648                30.9700                 4.5992

                     55                     56                     57
                      A                      A                      A
 Frequencies --   1365.1815              1387.4784              1396.5227
 Red. masses --      1.2414                 1.3691                 1.2241
 Frc consts  --      1.3631                 1.5529                 1.4066
 IR Inten    --      3.4844                 4.2654                 2.4969

                     58                     59                     60
                      A                      A                      A
 Frequencies --   1408.0129              1413.0331              1418.3826
 Red. masses --      1.4569                 1.4374                 1.3434
 Frc consts  --      1.7017                 1.6909                 1.5923
 IR Inten    --      5.8337                 4.0759                10.6041

                     61                     62                     63
                      A                      A                      A
 Frequencies --   1435.5172              1445.1128              1450.5726
 Red. masses --      1.2782                 1.2655                 1.7041
 Frc consts  --      1.5519                 1.5571                 2.1127
 IR Inten    --      0.1549                 4.5609                53.1562

                     64                     65                     66
                      A                      A                      A
 Frequencies --   1457.1527              1488.7754              1497.0559
 Red. masses --      1.3464                 1.1833                 1.5460
 Frc consts  --      1.6843                 1.5453                 2.0414
 IR Inten    --     13.3952                21.3061                43.7473

                     67                     68                     69
                      A                      A                      A
 Frequencies --   1508.1279              1511.8530              1522.1386
 Red. masses --      1.1088                 1.0863                 1.0589
 Frc consts  --      1.4858                 1.4629                 1.4454
 IR Inten    --     13.2401                15.1205                 0.2919

                     70                     71                     72
                      A                      A                      A
 Frequencies --   1525.4156              1529.1716              1530.3899
 Red. masses --      1.0818                 1.0998                 1.0466
 Frc consts  --      1.4831                 1.5152                 1.4442
 IR Inten    --      0.8809                18.0380                 7.0538

                     73                     74                     75
                      A                      A                      A
 Frequencies --   1533.6234              1536.3370              1542.7096
 Red. masses --      1.0621                 1.0788                 1.0735
 Frc consts  --      1.4718                 1.5003                 1.5053
 IR Inten    --      4.5191                 7.3768                 8.1142

                     76                     77                     78
                      A                      A                      A
 Frequencies --   1703.8798              1764.6746              2965.5935
 Red. masses --      1.1652                 4.9386                 1.0712
 Frc consts  --      1.9931                 9.0612                 5.5504
 IR Inten    --     80.7958               256.0910                62.8126

                     79                     80                     81
                      A                      A                      A
 Frequencies --   3017.8716              3030.5205              3032.3409
 Red. masses --      1.0828                 1.0705                 1.0663
 Frc consts  --      5.8103                 5.7923                 5.7767
 IR Inten    --     30.4643                16.4795                27.7182

                     82                     83                     84
                      A                      A                      A
 Frequencies --   3039.1372              3041.3554              3050.6706
 Red. masses --      1.0369                 1.0379                 1.0612
 Frc consts  --      5.6429                 5.6565                 5.8186
 IR Inten    --     32.1078                18.6400                28.9044

                     85                     86                     87
                      A                      A                      A
 Frequencies --   3052.7881              3064.5867              3075.0340
 Red. masses --      1.0643                 1.0911                 1.0748
 Frc consts  --      5.8439                 6.0375                 5.9877
 IR Inten    --     48.0647                37.9135                16.4786

                     88                     89                     90
                      A                      A                      A
 Frequencies --   3078.6455              3095.0042              3099.4823
 Red. masses --      1.0899                 1.0993                 1.0945
 Frc consts  --      6.0864                 6.2042                 6.1952
 IR Inten    --     17.5832                 4.3462                14.7670

                     91                     92                     93
                      A                      A                      A
 Frequencies --   3103.4127              3105.9422              3111.8487
 Red. masses --      1.1011                 1.1025                 1.0993
 Frc consts  --      6.2480                 6.2662                 6.2722
 IR Inten    --     38.5256                94.5095                43.3823

                     94                     95                     96
                      A                      A                      A
 Frequencies --   3112.4046              3114.1288              3123.5076
 Red. masses --      1.1021                 1.0992                 1.0960
 Frc consts  --      6.2902                 6.2803                 6.3003
 IR Inten    --     27.5156                42.7241                22.1112

                     97                     98                     99
                      A                      A                      A
 Frequencies --   3479.2970              3561.3729              3584.9955
 Red. masses --      1.0507                 1.0927                 1.0755
 Frc consts  --      7.4943                 8.1654                 8.1437
 IR Inten    --     16.7250                18.3871                12.2942

 - Thermochemistry -
 -------------------
 Temperature   298.150 Kelvin.  Pressure   1.00000 Atm.
 Atom     1 has atomic number  6 and mass  12.00000

 Molecular mass:   186.17321 amu.
 Principal axes and moments of inertia in atomic units:
                           1         2         3
     Eigenvalues --  1488.182264335.533464812.56732
           X            0.99999  -0.00285  -0.00359
           Y            0.00307   0.99797   0.06353
           Z            0.00340  -0.06354   0.99797
 This molecule is an asymmetric top.
 Rotational symmetry number  1.
 Warning -- assumption of classical behavior for rotation
           may cause significant error
 Rotational temperatures (Kelvin)      0.05820     0.01998     0.01800
 Rotational constants (GHZ):           1.21272     0.41627     0.37501
 Zero-point vibrational energy     847912.8 (Joules/Mol)
                                  202.65602 (Kcal/Mol)
 Warning -- explicit consideration of  24 degrees of freedom as
           vibrations may cause significant error
 Vibrational temperatures:     33.14    64.01    82.24    88.01   125.60
          (Kelvin)            147.03   212.08   248.24   284.14   299.62
                              332.69   376.05   399.47   426.09   473.68
                              532.47   553.43   572.82   601.82   693.87
                              727.68   745.77   832.52   862.93   974.45
                             1069.11  1106.68  1149.20  1180.64  1261.92
                             1283.91  1328.98  1360.00  1381.84  1398.05
                             1402.90  1417.27  1525.08  1535.81  1560.48
                             1582.61  1592.00  1633.21  1655.73  1683.95
                             1694.38  1722.76  1808.99  1827.67  1847.22
                             1858.39  1904.34  1924.53  1931.89  1964.19
                             1996.27  2009.28  2025.82  2033.04  2040.74
                             2065.39  2079.20  2087.05  2096.52  2142.02
                             2153.93  2169.86  2175.22  2190.02  2194.73
                             2200.14  2201.89  2206.54  2210.45  2219.62
                             2451.50  2538.97  4266.83  4342.04  4360.24
                             4362.86  4372.64  4375.83  4389.23  4392.28
                             4409.26  4424.29  4429.48  4453.02  4459.46
                             4465.12  4468.76  4477.26  4478.06  4480.54
                             4494.03  5005.93  5124.02  5158.01

 Zero-point correction=                           0.322953 (Hartree/Particle)
 Thermal correction to Energy=                    0.338784
 Thermal correction to Enthalpy=                  0.339728
 Thermal correction to Gibbs Free Energy=         0.278865
 Sum of electronic and zero-point Energies=           -578.792757
 Sum of electronic and thermal Energies=              -578.776926
 Sum of electronic and thermal Enthalpies=            -578.775982
 Sum of electronic and thermal Free Energies=         -578.836845

                     E (Thermal)             CV                S
                      KCal/Mol        Cal/Mol-Kelvin    Cal/Mol-Kelvin
 Total                  212.590             58.237            128.097
 Electronic               0.000              0.000              0.000
 Translational            0.889              2.981             41.571
 Rotational               0.889              2.981             31.807
 Vibrational            210.813             52.276             54.720
 Vibration     1          0.593              1.985              6.354
 Vibration     2          0.595              1.980              5.049
 Vibration     3          0.596              1.975              4.553
 Vibration     4          0.597              1.973              4.419
 Vibration     5          0.601              1.958              3.720
 Vibration     6          0.604              1.947              3.412
 Vibration     7          0.617              1.905              2.705
 Vibration     8          0.626              1.876              2.408
 Vibration     9          0.637              1.843              2.156
 Vibration    10          0.642              1.828              2.059
 Vibration    11          0.653              1.793              1.869
 Vibration    12          0.669              1.743              1.653
 Vibration    13          0.679              1.715              1.548
 Vibration    14          0.690              1.681              1.439
 Vibration    15          0.712              1.617              1.264
 Vibration    16          0.742              1.534              1.079
 Vibration    17          0.754              1.503              1.021
 Vibration    18          0.764              1.474              0.970
 Vibration    19          0.781              1.431              0.898
 Vibration    20          0.839              1.289              0.704
 Vibration    21          0.861              1.237              0.644
 Vibration    22          0.873              1.209              0.614
 Vibration    23          0.935              1.078              0.488
 Vibration    24          0.958              1.032              0.450

 Optimization completed.
    -- Stationary point found.
 Normal termination of Gaussian 16 at Wed Dec  9 23:03:34 2020.

 ----------------------------------------------------------------------
 # B3LYP/6-311++G(d,p) empiricaldispersion=gd3bj scf=xqc pop=npa geom=c
 heck
 ----------------------------------------------------------------------

 --------------------------------------
 CID_82682633_JID_3073_Energie_neutraal
 --------------------------------------
 Structure from the checkpoint file:  "JID_3073.chk"
 Charge =  0 Multiplicity = 1

 SCF Done:  E(RB3LYP) =  -579.292755778     A.U. after   13 cycles
 Normal termination of Gaussian 16 at Wed Dec  9 23:07:49 2020.

 ----------------------------------------------------------------------
 # B3LYP/6-311++G(d,p) empiricaldispersion=gd3bj scf=xqc pop=npa geom=c
 heck
 ----------------------------------------------------------------------

 ------------------------------------
 CID_82682633_JID_3073_Energie_kation
 ------------------------------------
 Structure from the checkpoint file:  "JID_3073.chk"
 Charge =  1 Multiplicity = 2

 SCF Done:  E(UB3LYP) =  -578.982112703     A.U. after   23 cycles
 Normal termination of Gaussian 16 at Wed Dec  9 23:16:40 2020.
 Gaussian 16:  ES64L-G16RevA.03 25-Dec-2016

 ----------------------------------------------------------------------
 # B3LYP/6-311++G(d,p) empiricaldispersion=gd3bj scf=xqc pop=npa geom=c
 heck
 ----------------------------------------------------------------------

 -----------------------------------
 CID_82682633_JID_3073_Energie_anion
 -----------------------------------
 Structure from the checkpoint file:  "JID_3073.chk"
 Charge = -1 Multiplicity = 2

                         Standard orientation:
 ---------------------------------------------------------------------
 Center     Atomic      Atomic             Coordinates (Angstroms)
 Number     Number       Type             X           Y           Z
 ---------------------------------------------------------------------
      1          6           0        4.287592   -0.932868   -0.181692
      2          6           0        2.818788   -1.305219    0.042632
      3          6           0        2.127169   -0.519312    1.163828
      4          6           0        2.091049    1.000137    0.937430
      5          7           0        1.441540    1.392251   -0.310471
      6          6           0        0.102354    1.387313   -0.581612
      7          8           0       -0.298526    1.438059   -1.745351
      8          6           0       -0.851973    1.409912    0.606358
      9          6           0       -2.287230    0.971807    0.274309
     10          6           0       -2.606571   -0.522922    0.502103
     11          6           0       -4.115046   -0.700395    0.729977
     12          6           0       -2.165726   -1.458985   -0.633499
     13          7           0       -0.716612   -1.445897   -0.878858
     14          1           0        4.403307    0.103835   -0.520814
     15          1           0        4.746250   -1.574533   -0.941996
     16          1           0        4.869447   -1.041416    0.742074
     17          1           0        2.250182   -1.168995   -0.885505
     18          1           0        2.748538   -2.373908    0.280265
     19          1           0        1.099691   -0.889241    1.250989
     20          1           0        2.634271   -0.708855    2.120782
     21          1           0        1.585215    1.495891    1.770717
     22          1           0        3.105507    1.410952    0.911429
     23          1           0        2.001023    1.342430   -1.153755
     24          1           0       -0.458294    0.812350    1.432491
     25          1           0       -0.858600    2.451547    0.958794
     26          1           0       -2.963829    1.553017    0.912169
     27          1           0       -2.512083    1.254392   -0.760596
     28          1           0       -2.078394   -0.848456    1.410539
     29          1           0       -4.685432   -0.353527   -0.141205
     30          1           0       -4.374671   -1.751970    0.900014
     31          1           0       -4.454780   -0.125223    1.598469
     32          1           0       -2.447334   -2.479943   -0.347536
     33          1           0       -2.753543   -1.213409   -1.535766
     34          1           0       -0.445817   -2.308957   -1.345486
     35          1           0       -0.499375   -0.691735   -1.526983
 ---------------------------------------------------------------------

 SCF Done:  E(UB3LYP) =  -579.278477932     A.U. after   33 cycles
 SCF Done:  E(UB3LYP) =  -579.278477932     a.u. after    1 cycles

 The electronic state is 2-A.
 Alpha  occ. eigenvalues --  -18.99122 -14.23607 -14.18955 -10.17598 -10.10735
 Alpha  occ. eigenvalues --  -10.09322 -10.07989 -10.07648 -10.06976 -10.06833
 Alpha  occ. eigenvalues --  -10.06330 -10.06283 -10.05774  -0.94169  -0.82480
 Alpha  occ. eigenvalues --   -0.78376  -0.70904  -0.69198  -0.65731  -0.62440
 Alpha  occ. eigenvalues --   -0.57009  -0.56147  -0.55071  -0.48691  -0.46968
 Alpha  occ. eigenvalues --   -0.45262  -0.41008  -0.39673  -0.38815  -0.36962
 Alpha  occ. eigenvalues --   -0.36478  -0.35177  -0.34489  -0.34093  -0.33390
 Alpha  occ. eigenvalues --   -0.31621  -0.30661  -0.29557  -0.29190  -0.28772
 Alpha  occ. eigenvalues --   -0.27432  -0.26808  -0.25863  -0.23958  -0.23547
 Alpha  occ. eigenvalues --   -0.23418  -0.23280  -0.22760  -0.22438  -0.16662
 Alpha  occ. eigenvalues --   -0.15725  -0.14460   0.04317
 Alpha virt. eigenvalues --    0.06037   0.06577   0.07620   0.07837   0.08321
 Alpha virt. eigenvalues --    0.09030   0.09500   0.10273   0.10386   0.10531
 Alpha virt. eigenvalues --    0.11380   0.11550   0.12056   0.12302   0.12942

  Beta  occ. eigenvalues --  -18.99119 -14.23597 -14.18942 -10.17599 -10.10709
  Beta  occ. eigenvalues --  -10.09309 -10.07969 -10.07641 -10.06967 -10.06815
  Beta  occ. eigenvalues --  -10.06316 -10.06267 -10.05731  -0.94164  -0.82460
  Beta  occ. eigenvalues --   -0.78354  -0.70880  -0.69161  -0.65700  -0.62389
  Beta  occ. eigenvalues --   -0.56965  -0.56104  -0.55009  -0.48640  -0.46920
  Beta  occ. eigenvalues --   -0.45222  -0.40979  -0.39636  -0.38781  -0.36928
  Beta  occ. eigenvalues --   -0.36439  -0.35139  -0.34466  -0.34070  -0.33370
  Beta  occ. eigenvalues --   -0.31600  -0.30624  -0.29523  -0.29152  -0.28729
  Beta  occ. eigenvalues --   -0.27400  -0.26786  -0.25835  -0.23915  -0.23514
  Beta  occ. eigenvalues --   -0.23386  -0.23246  -0.22727  -0.22415  -0.16651
  Beta  occ. eigenvalues --   -0.15709  -0.14441
  Beta virt. eigenvalues --    0.06315   0.06881   0.07351   0.08156   0.08252
  Beta virt. eigenvalues --    0.08995   0.09314   0.09777   0.10671   0.10841
  Beta virt. eigenvalues --    0.10921   0.11645   0.11860   0.12297   0.12451

 Mulliken charges and spin densities:
               1          2
     1  C    1.713723  -2.363068
     2  C   -0.984337   0.696686
     3  C   -0.267287   0.365237
     4  C    1.189336  -1.595372
     5  N   -0.196883   0.075899
     6  C   -0.517124   0.074959
     7  O   -0.335931   0.016239
     8  C    0.634447  -0.333303
     9  C   -0.369787  -0.280996
    10  C   -0.580087   0.945677
    11  C    0.630027  -1.356861
    12  C    0.210507  -0.784988
    13  N   -0.407177   0.101003
    14  H   -0.292706   0.416249
    15  H   -0.331358   0.470005
    16  H   -0.218555   0.362186
    17  H    0.283325  -0.129823
    18  H   -0.401020   0.553813
    19  H   -0.070251   0.236004
    20  H   -0.350352   0.523564
    21  H   -0.370994   0.557709
    22  H   -0.244137   0.433868
    23  H    0.065206   0.232414
    24  H    0.209363  -0.098949
    25  H   -0.258810   0.461765
    26  H   -0.032152   0.185642
    27  H    0.231464  -0.031668
    28  H    0.052044   0.120341
    29  H    0.066244   0.061967
    30  H   -0.090436   0.220332
    31  H   -0.146184   0.280686
    32  H   -0.105764   0.244495
    33  H    0.041901   0.106849
    34  H    0.044596   0.207048
    35  H    0.199149   0.024393
 Sum of Mulliken charges =  -1.00000   1.00000

 Dipole moment (field-independent basis, Debye):
    X=             -4.6663    Y=              0.6701    Z=             -1.7167  Tot=              5.0170
 Quadrupole moment (field-independent basis, Debye-Ang):
   XX=           -166.2837   YY=           -129.0390   ZZ=           -123.5933
   XY=              3.9613   XZ=             -0.9094   YZ=              0.1853

 Summary of Natural Population Analysis:

                                       Natural Population
                Natural  -----------------------------------------------
    Atom  No    Charge         Core      Valence    Rydberg      Total
 -----------------------------------------------------------------------
      C    1   -0.28746      0.99967     2.28295    0.00484     3.28746
      C    2   -0.19268      0.99964     2.18385    0.00919     3.19268
      C    3   -0.19742      0.99962     2.18987    0.00793     3.19742
      C    4   -0.09058      0.99961     2.07964    0.01133     3.09058
      N    5   -0.31774      0.99966     2.80735    0.01073     3.81774
      C    6    0.35191      0.99966     1.62473    0.02370     2.64809
      O    7   -0.34173      0.99988     3.33668    0.00517     4.34173
      C    8   -0.23529      0.99957     2.22761    0.00811     3.23529
      C    9   -0.19290      0.99961     2.18282    0.01047     3.19290
      C   10   -0.11532      0.99960     2.10526    0.01047     3.11532
      C   11   -0.28114      0.99965     2.27675    0.00475     3.28114
      C   12   -0.08476      0.99960     2.07326    0.01190     3.08476
      N   13   -0.43039      0.99976     2.92052    0.01010     3.93039
      H   14    0.09283      0.00000     0.40582    0.00135     0.40717
      H   15    0.10003      0.00000     0.39884    0.00113     0.39997
      H   16    0.09751      0.00000     0.40103    0.00146     0.40249
      H   17    0.09458      0.00000     0.40360    0.00182     0.40542
      H   18    0.09816      0.00000     0.40064    0.00120     0.40184
      H   19    0.10693      0.00000     0.39099    0.00208     0.39307
      H   20    0.09621      0.00000     0.40242    0.00138     0.40379
      H   21    0.09983      0.00000     0.39859    0.00158     0.40017
      H   22    0.10004      0.00000     0.39850    0.00146     0.39996
      H   23    0.19244      0.00000     0.30524    0.00232     0.30756
      H   24    0.10821      0.00000     0.38980    0.00200     0.39179
      H   25    0.11208      0.00000     0.38677    0.00115     0.38792
      H   26    0.09765      0.00000     0.40132    0.00103     0.40235
      H   27    0.10814      0.00000     0.39056    0.00130     0.39186
      H   28    0.09343      0.00000     0.40446    0.00211     0.40657
      H   29    0.09496      0.00000     0.40402    0.00102     0.40504
      H   30    0.09785      0.00000     0.40110    0.00105     0.40215
      H   31    0.09892      0.00000     0.40005    0.00103     0.40108
      H   32    0.08948      0.00000     0.40946    0.00106     0.41052
      H   33    0.07723      0.00000     0.42147    0.00130     0.42277
      H   34    0.17448      0.00000     0.32385    0.00167     0.32552
      H   35    0.18454      0.00000     0.31303    0.00243     0.31546
 =======================================================================
   * Total *   -0.00000     12.99552    38.84284    0.16164    52.00000

 Normal termination of Gaussian 16 at Wed Dec  9 23:29:11 2020.
