 Gaussian 16, Revision A.03,

 -----------------------------------------------------------
 # opt freq B3LYP/6-31G(d) empiricaldispersion=gd3bj scf=xqc
 -----------------------------------------------------------

 ------------------------------
 CID_86574485_JID_4416_neutraal
 ------------------------------
 Symbolic Z-matrix:
 Charge =  0 Multiplicity = 1

 SCF Done:  E(RB3LYP) =  -611.138153040     A.U. after   15 cycles
 SCF Done:  E(RB3LYP) =  -611.142550152     A.U. after   12 cycles
 SCF Done:  E(RB3LYP) =  -611.142872554     A.U. after   12 cycles
 SCF Done:  E(RB3LYP) =  -611.142953001     A.U. after   11 cycles
 SCF Done:  E(RB3LYP) =  -611.142980527     A.U. after   10 cycles
 SCF Done:  E(RB3LYP) =  -611.142986703     A.U. after   10 cycles
 SCF Done:  E(RB3LYP) =  -611.142988494     A.U. after    9 cycles
 SCF Done:  E(RB3LYP) =  -611.142989232     A.U. after    8 cycles
 SCF Done:  E(RB3LYP) =  -611.142989622     A.U. after    8 cycles
 Optimization completed.
    -- Stationary point found.
 Normal termination of Gaussian 16 at Thu Dec 10 09:39:46 2020.

 --------------------------------------------------------------------
 #N Geom=AllCheck Guess=TCheck SCRF=Check GenChk RB3LYP/6-31G(d) Freq
 --------------------------------------------------------------------

 Structure from the checkpoint file:  "JID_4416.chk"
 ------------------------------
 CID_86574485_JID_4416_neutraal
 ------------------------------
 Charge =  0 Multiplicity = 1

 SCF Done:  E(RB3LYP) =  -611.142989622     A.U. after    1 cycles

  Exact polarizability: 182.439  11.574 128.639   0.501  -3.000  66.475
 Approx polarizability: 244.152  21.381 224.109   0.696  -7.911 105.239

                      1                      2                      3
                      A                      A                      A
 Frequencies --     40.5747                85.7664               112.0466
 Red. masses --      4.2282                 3.5662                 4.3175
 Frc consts  --      0.0041                 0.0155                 0.0319
 IR Inten    --      0.0112                 1.8280                 1.1193

                      4                      5                      6
                      A                      A                      A
 Frequencies --    129.8821               194.8716               270.8947
 Red. masses --      2.9669                 3.8427                 4.9714
 Frc consts  --      0.0295                 0.0860                 0.2149
 IR Inten    --      0.3980                 0.9918                 1.5728

                      7                      8                      9
                      A                      A                      A
 Frequencies --    293.3509               310.5173               372.0214
 Red. masses --      2.7308                 1.8825                 6.0158
 Frc consts  --      0.1385                 0.1069                 0.4905
 IR Inten    --      1.0959                 0.1391                 2.2308

                     10                     11                     12
                      A                      A                      A
 Frequencies --    377.4111               434.9270               464.5999
 Red. masses --      4.8640                 4.0226                 1.4885
 Frc consts  --      0.4082                 0.4483                 0.1893
 IR Inten    --      1.2196                 3.0006                47.9967

                     13                     14                     15
                      A                      A                      A
 Frequencies --    494.0560               543.0013               608.4081
 Red. masses --      2.5040                 4.1463                 3.3673
 Frc consts  --      0.3601                 0.7203                 0.7344
 IR Inten    --      6.7212                 0.9138                 4.4314

                     16                     17                     18
                      A                      A                      A
 Frequencies --    663.1393               673.2313               694.9065
 Red. masses --      2.8542                 4.3962                 2.9303
 Frc consts  --      0.7395                 1.1740                 0.8337
 IR Inten    --     10.8831                23.4662                 0.5858

                     19                     20                     21
                      A                      A                      A
 Frequencies --    727.9723               730.4152               745.5736
 Red. masses --      3.8625                 1.5934                 2.7706
 Frc consts  --      1.2060                 0.5009                 0.9074
 IR Inten    --      2.2050                15.9382                26.3428

                     22                     23                     24
                      A                      A                      A
 Frequencies --    800.9256               847.8816               857.2428
 Red. masses --      1.3884                 1.5104                 1.2992
 Frc consts  --      0.5247                 0.6398                 0.5625
 IR Inten    --     15.8067                 2.1450                 0.4656

                     25                     26                     27
                      A                      A                      A
 Frequencies --    863.3447               909.0354               925.1452
 Red. masses --      2.3550                 6.2051                 4.6458
 Frc consts  --      1.0342                 3.0211                 2.3428
 IR Inten    --      1.0929                 6.9645                 8.0101

                     28                     29                     30
                      A                      A                      A
 Frequencies --    933.9660               953.7914               981.5928
 Red. masses --      1.6271                 2.5218                 2.0416
 Frc consts  --      0.8362                 1.3516                 1.1590
 IR Inten    --      0.4972                 3.4976                 0.7516

                     31                     32                     33
                      A                      A                      A
 Frequencies --   1021.0700              1051.8041              1077.9168
 Red. masses --      3.2123                 1.5240                 2.0774
 Frc consts  --      1.9732                 0.9934                 1.4221
 IR Inten    --     51.5130                10.9326                 1.9244

                     34                     35                     36
                      A                      A                      A
 Frequencies --   1113.2449              1121.6548              1148.9361
 Red. masses --      1.8302                 2.2983                 3.8615
 Frc consts  --      1.3364                 1.7037                 3.0033
 IR Inten    --      1.1323                10.0702                13.3833

                     37                     38                     39
                      A                      A                      A
 Frequencies --   1171.6805              1187.1302              1193.9012
 Red. masses --      1.1769                 2.5300                 1.5049
 Frc consts  --      0.9519                 2.1007                 1.2638
 IR Inten    --      1.2197                16.9516                 3.9942

                     40                     41                     42
                      A                      A                      A
 Frequencies --   1209.7813              1251.8524              1261.7556
 Red. masses --      2.8385                 2.4603                 1.8457
 Frc consts  --      2.4477                 2.2716                 1.7313
 IR Inten    --      9.3134                 2.2265                11.1642

                     43                     44                     45
                      A                      A                      A
 Frequencies --   1279.7846              1286.9967              1310.8629
 Red. masses --      1.2687                 2.0407                 1.4197
 Frc consts  --      1.2243                 1.9915                 1.4373
 IR Inten    --      5.1052                 0.9430                 3.3429

                     46                     47                     48
                      A                      A                      A
 Frequencies --   1367.9692              1385.5910              1392.7485
 Red. masses --      1.8224                 1.4379                 1.4218
 Frc consts  --      2.0093                 1.6265                 1.6249
 IR Inten    --     22.5669                 1.6941                 2.7430

                     49                     50                     51
                      A                      A                      A
 Frequencies --   1403.3310              1419.9917              1440.2984
 Red. masses --      1.6904                 2.3195                 3.9643
 Frc consts  --      1.9614                 2.7556                 4.8453
 IR Inten    --     13.3136                 0.8799                 4.7729

                     52                     53                     54
                      A                      A                      A
 Frequencies --   1473.3036              1507.7297              1516.8092
 Red. masses --      3.9136                 1.1950                 1.1567
 Frc consts  --      5.0051                 1.6005                 1.5680
 IR Inten    --     16.3185                 6.9630                 2.5429

                     55                     56                     57
                      A                      A                      A
 Frequencies --   1518.5598              1530.2864              1538.8810
 Red. masses --      1.0790                 1.2535                 2.4385
 Frc consts  --      1.4661                 1.7295                 3.4024
 IR Inten    --      2.5206                 3.4209                10.2243

                     58                     59                     60
                      A                      A                      A
 Frequencies --   1564.2784              1633.1660              1659.4813
 Red. masses --      4.9387                 5.2863                 7.5754
 Frc consts  --      7.1201                 8.3074                12.2914
 IR Inten    --      8.1246                16.7043                 0.9938

                     61                     62                     63
                      A                      A                      A
 Frequencies --   3010.8255              3020.8546              3037.4490
 Red. masses --      1.0698                 1.0656                 1.0677
 Frc consts  --      5.7137                 5.7295                 5.8037
 IR Inten    --     26.2058                38.0620                19.2469

                     64                     65                     66
                      A                      A                      A
 Frequencies --   3044.3070              3063.3074              3063.6417
 Red. masses --      1.0655                 1.0900                 1.0928
 Frc consts  --      5.8180                 6.0264                 6.0431
 IR Inten    --     14.0637                39.2178                37.1454

                     67                     68                     69
                      A                      A                      A
 Frequencies --   3090.0757              3094.7023              3266.8857
 Red. masses --      1.0979                 1.1043                 1.0907
 Frc consts  --      6.1765                 6.2310                 6.8585
 IR Inten    --     59.3621                52.8415                 7.8940

                     70                     71                     72
                      A                      A                      A
 Frequencies --   3286.5358              3303.2256              3663.2934
 Red. masses --      1.0965                 1.1048                 1.0809
 Frc consts  --      6.9781                 7.1027                 8.5463
 IR Inten    --      3.0035                 1.4187                79.7112

 - Thermochemistry -
 -------------------
 Temperature   298.150 Kelvin.  Pressure   1.00000 Atm.
 Atom     1 has atomic number  6 and mass  12.00000

 Molecular mass:   188.09496 amu.
 Principal axes and moments of inertia in atomic units:
                           1         2         3
     Eigenvalues --  1098.531484111.471345123.27781
           X            1.00000  -0.00143  -0.00027
           Y            0.00143   1.00000  -0.00044
           Z            0.00027   0.00044   1.00000
 This molecule is an asymmetric top.
 Rotational symmetry number  1.
 Warning -- assumption of classical behavior for rotation
           may cause significant error
 Rotational temperatures (Kelvin)      0.07885     0.02107     0.01691
 Rotational constants (GHZ):           1.64287     0.43895     0.35226
 Zero-point vibrational energy     568384.1 (Joules/Mol)
                                  135.84705 (Kcal/Mol)
 Warning -- explicit consideration of  15 degrees of freedom as
           vibrations may cause significant error
 Vibrational temperatures:     58.38   123.40   161.21   186.87   280.38
          (Kelvin)            389.76   422.07   446.77   535.26   543.01
                              625.76   668.46   710.84   781.26   875.36
                              954.11   968.63   999.82  1047.39  1050.90
                             1072.71  1152.35  1219.91  1233.38  1242.16
                             1307.90  1331.08  1343.77  1372.29  1412.29
                             1469.09  1513.31  1550.88  1601.71  1613.81
                             1653.06  1685.79  1708.02  1717.76  1740.61
                             1801.14  1815.38  1841.32  1851.70  1886.04
                             1968.20  1993.56  2003.85  2019.08  2043.05
                             2072.27  2119.76  2169.29  2182.35  2184.87
                             2201.74  2214.11  2250.65  2349.76  2387.62
                             4331.91  4346.34  4370.21  4380.08  4407.42
                             4407.90  4445.93  4452.59  4700.32  4728.59
                             4752.60  5270.66

 Zero-point correction=                           0.216486 (Hartree/Particle)
 Thermal correction to Energy=                    0.227503
 Thermal correction to Enthalpy=                  0.228447
 Thermal correction to Gibbs Free Energy=         0.178902
 Sum of electronic and zero-point Energies=           -610.926504
 Sum of electronic and thermal Energies=              -610.915487
 Sum of electronic and thermal Enthalpies=            -610.914542
 Sum of electronic and thermal Free Energies=         -610.964088

                     E (Thermal)             CV                S
                      KCal/Mol        Cal/Mol-Kelvin    Cal/Mol-Kelvin
 Total                  142.760             43.975            104.276
 Electronic               0.000              0.000              0.000
 Translational            0.889              2.981             41.601
 Rotational               0.889              2.981             31.515
 Vibrational            140.983             38.013             31.160
 Vibration     1          0.594              1.981              5.231
 Vibration     2          0.601              1.959              3.754
 Vibration     3          0.607              1.939              3.233
 Vibration     4          0.612              1.923              2.948
 Vibration     5          0.636              1.847              2.181
 Vibration     6          0.675              1.727              1.590
 Vibration     7          0.688              1.686              1.455
 Vibration     8          0.699              1.654              1.360
 Vibration     9          0.744              1.530              1.071
 Vibration    10          0.748              1.518              1.050
 Vibration    11          0.796              1.394              0.843
 Vibration    12          0.822              1.329              0.753
 Vibration    13          0.850              1.263              0.673
 Vibration    14          0.898              1.155              0.559
 Vibration    15          0.967              1.014              0.435

                           ! Non-Optimized Parameters !
 Normal termination of Gaussian 16 at Thu Dec 10 09:46:37 2020.

 ----------------------------------------------------------------------
 # B3LYP/6-311++G(d,p) empiricaldispersion=gd3bj scf=xqc pop=npa geom=c
 heck
 ----------------------------------------------------------------------

 --------------------------------------
 CID_86574485_JID_4416_Energie_neutraal
 --------------------------------------
 Structure from the checkpoint file:  "JID_4416.chk"
 Charge =  0 Multiplicity = 1

 SCF Done:  E(RB3LYP) =  -611.304236405     A.U. after   15 cycles
 Normal termination of Gaussian 16 at Thu Dec 10 09:49:43 2020.

 ----------------------------------------------------------------------
 # B3LYP/6-311++G(d,p) empiricaldispersion=gd3bj scf=xqc pop=npa geom=c
 heck
 ----------------------------------------------------------------------

 ------------------------------------
 CID_86574485_JID_4416_Energie_kation
 ------------------------------------
 Structure from the checkpoint file:  "JID_4416.chk"
 Charge =  1 Multiplicity = 2

 SCF Done:  E(UB3LYP) =  -611.030463553     A.U. after   23 cycles
 Normal termination of Gaussian 16 at Thu Dec 10 09:56:19 2020.
 Gaussian 16:  ES64L-G16RevA.03 25-Dec-2016

 ----------------------------------------------------------------------
 # B3LYP/6-311++G(d,p) empiricaldispersion=gd3bj scf=xqc pop=npa geom=c
 heck
 ----------------------------------------------------------------------

 -----------------------------------
 CID_86574485_JID_4416_Energie_anion
 -----------------------------------
 Structure from the checkpoint file:  "JID_4416.chk"
 Charge = -1 Multiplicity = 2

                         Standard orientation:
 ---------------------------------------------------------------------
 Center     Atomic      Atomic             Coordinates (Angstroms)
 Number     Number       Type             X           Y           Z
 ---------------------------------------------------------------------
      1          6           0        2.600174   -1.743451   -0.412350
      2          6           0        3.518558   -0.770047    0.344721
      3          6           0        3.215152    0.696946   -0.022239
      4          6           0        1.733337    0.896506   -0.000186
      5          6           0        0.773447   -0.096952   -0.001956
      6          6           0        1.117535   -1.556372   -0.032071
      7          6           0       -0.471285    0.600253    0.017436
      8          7           0       -0.287084    1.928859    0.024333
      9          7           0        1.057352    2.077578    0.012180
     10          6           0       -1.796255    0.016866    0.031614
     11          6           0       -2.241505   -1.270679    0.196353
     12          6           0       -3.669988   -1.224226    0.113479
     13          6           0       -3.992896    0.082479   -0.093410
     14          8           0       -2.868500    0.849990   -0.147143
     15          1           0        2.717817   -1.576339   -1.491743
     16          1           0        2.906094   -2.777261   -0.215935
     17          1           0        3.376525   -0.906104    1.425024
     18          1           0        4.569545   -0.992209    0.129048
     19          1           0        3.719772    1.378707    0.674727
     20          1           0        3.616055    0.919278   -1.022101
     21          1           0        0.478669   -2.091514   -0.746042
     22          1           0        0.927427   -2.015541    0.950022
     23          1           0        1.437226    3.011814    0.017326
     24          1           0       -1.628256   -2.141664    0.372076
     25          1           0       -4.357638   -2.053624    0.200160
     26          1           0       -4.924765    0.611542   -0.219358
 ---------------------------------------------------------------------

 SCF Done:  E(UB3LYP) =  -611.290572743     A.U. after   33 cycles
 SCF Done:  E(UB3LYP) =  -611.290572742     a.u. after    1 cycles

 The electronic state is 2-A.
 Alpha  occ. eigenvalues --  -19.09608 -14.28230 -14.22903 -10.13903 -10.13323
 Alpha  occ. eigenvalues --  -10.10698 -10.10283 -10.08550 -10.08000 -10.07899
 Alpha  occ. eigenvalues --  -10.07711 -10.06922 -10.06873 -10.06872  -1.02157
 Alpha  occ. eigenvalues --   -0.94441  -0.74214  -0.73515  -0.71186  -0.66532
 Alpha  occ. eigenvalues --   -0.65499  -0.64103  -0.54764  -0.53545  -0.52043
 Alpha  occ. eigenvalues --   -0.49986  -0.46333  -0.45101  -0.43055  -0.41705
 Alpha  occ. eigenvalues --   -0.37410  -0.36549  -0.35903  -0.33903  -0.33172
 Alpha  occ. eigenvalues --   -0.32462  -0.32008  -0.31140  -0.30672  -0.30263
 Alpha  occ. eigenvalues --   -0.28450  -0.27634  -0.23655  -0.23441  -0.22636
 Alpha  occ. eigenvalues --   -0.19802  -0.19381  -0.18922  -0.13624  -0.11658
 Alpha  occ. eigenvalues --    0.04357
 Alpha virt. eigenvalues --    0.05812   0.06716   0.06835   0.07807   0.08403
 Alpha virt. eigenvalues --    0.08554   0.09685   0.10362   0.10788   0.11276
 Alpha virt. eigenvalues --    0.12146   0.12488   0.13503   0.13575   0.14157

  Beta  occ. eigenvalues --  -19.09608 -14.28200 -14.22901 -10.13903 -10.13319
  Beta  occ. eigenvalues --  -10.10697 -10.10283 -10.08540 -10.07993 -10.07854
  Beta  occ. eigenvalues --  -10.07697 -10.06894 -10.06866 -10.06850  -1.02155
  Beta  occ. eigenvalues --   -0.94416  -0.74184  -0.73486  -0.71173  -0.66510
  Beta  occ. eigenvalues --   -0.65463  -0.64052  -0.54696  -0.53518  -0.52017
  Beta  occ. eigenvalues --   -0.49937  -0.46311  -0.45043  -0.43013  -0.41659
  Beta  occ. eigenvalues --   -0.37386  -0.36539  -0.35870  -0.33872  -0.33144
  Beta  occ. eigenvalues --   -0.32439  -0.31961  -0.31099  -0.30642  -0.30227
  Beta  occ. eigenvalues --   -0.28443  -0.27587  -0.23607  -0.23388  -0.22589
  Beta  occ. eigenvalues --   -0.19793  -0.19368  -0.18909  -0.13608  -0.11647
  Beta virt. eigenvalues --    0.06225   0.06805   0.07139   0.07772   0.08428
  Beta virt. eigenvalues --    0.09010   0.09168   0.10374   0.10810   0.11249
  Beta virt. eigenvalues --    0.11862   0.12237   0.12643   0.13584   0.13839

 Mulliken charges and spin densities:
               1          2
     1  C   -0.414041  -0.054490
     2  C   -1.189728   0.950234
     3  C    0.372843  -0.499994
     4  C   -0.139087  -0.115687
     5  C    2.208210  -1.299074
     6  C   -0.180282  -0.929977
     7  C    1.572883  -1.761756
     8  N   -0.445440   0.388149
     9  N    0.084861  -0.326340
    10  C    0.641394  -1.013494
    11  C   -1.354819   1.905875
    12  C    0.879069  -1.607890
    13  C   -0.133508   0.337699
    14  O   -0.035151   0.021448
    15  H    0.017840   0.120706
    16  H   -0.558522   0.732899
    17  H    0.070037   0.061236
    18  H   -0.667499   0.856227
    19  H   -0.547787   0.717281
    20  H   -0.462769   0.654039
    21  H    0.185867  -0.047577
    22  H    0.021326   0.150434
    23  H   -0.191300   0.521989
    24  H   -0.312639   0.479020
    25  H   -0.403334   0.569691
    26  H   -0.018423   0.189349
 Sum of Mulliken charges =  -1.00000   1.00000

 Dipole moment (field-independent basis, Debye):
    X=             -6.4694    Y=             -0.5389    Z=             -0.0413  Tot=              6.4919
 Quadrupole moment (field-independent basis, Debye-Ang):
   XX=           -167.2355   YY=           -131.8828   ZZ=           -108.1149
   XY=             -4.6419   XZ=              2.0292   YZ=             -0.1900

 Summary of Natural Population Analysis:

                                       Natural Population
                Natural  -----------------------------------------------
    Atom  No    Charge         Core      Valence    Rydberg      Total
 -----------------------------------------------------------------------
      C    1   -0.18607      0.99964     2.17800    0.00843     3.18607
      C    2   -0.18435      0.99964     2.17635    0.00836     3.18435
      C    3   -0.20417      0.99960     2.19516    0.00941     3.20417
      C    4    0.08612      0.99947     1.90232    0.01210     2.91388
      C    5   -0.05514      0.99943     2.04732    0.00839     3.05514
      C    6   -0.19539      0.99960     2.18773    0.00805     3.19539
      C    7    0.04187      0.99950     1.94511    0.01352     2.95813
      N    8   -0.14738      0.99971     2.63573    0.01194     3.64738
      N    9   -0.16244      0.99964     2.64992    0.01287     3.66244
      C   10    0.14731      0.99943     1.83961    0.01365     2.85269
      C   11   -0.14697      0.99953     2.13893    0.00851     3.14697
      C   12   -0.15265      0.99958     2.14314    0.00994     3.15265
      C   13    0.05551      0.99952     1.93166    0.01332     2.94449
      O   14   -0.22473      0.99986     3.21709    0.00778     4.22473
      H   15    0.09462      0.00000     0.40397    0.00140     0.40538
      H   16    0.10142      0.00000     0.39700    0.00158     0.39858
      H   17    0.09408      0.00000     0.40443    0.00149     0.40592
      H   18    0.10354      0.00000     0.39430    0.00216     0.39646
      H   19    0.11004      0.00000     0.38692    0.00304     0.38996
      H   20    0.10686      0.00000     0.39062    0.00252     0.39314
      H   21    0.10339      0.00000     0.39520    0.00141     0.39661
      H   22    0.09980      0.00000     0.39877    0.00143     0.40020
      H   23    0.20069      0.00000     0.29528    0.00403     0.29931
      H   24    0.11207      0.00000     0.38687    0.00106     0.38793
      H   25    0.10828      0.00000     0.39077    0.00095     0.39172
      H   26    0.09368      0.00000     0.40540    0.00092     0.40632
 =======================================================================
   * Total *    0.00000     13.99415    35.83759    0.16826    50.00000

 Normal termination of Gaussian 16 at Thu Dec 10 10:05:50 2020.
