 Gaussian 16, Revision A.03,

 -----------------------------------------------------------
 # opt freq B3LYP/6-31G(d) empiricaldispersion=gd3bj scf=xqc
 -----------------------------------------------------------

 ------------------------------
 CID_62750222_JID_6015_neutraal
 ------------------------------
 Symbolic Z-matrix:
 Charge =  0 Multiplicity = 1

 SCF Done:  E(RB3LYP) =  -1032.42717061     A.U. after   15 cycles
 SCF Done:  E(RB3LYP) =  -1032.43346228     A.U. after   12 cycles
 SCF Done:  E(RB3LYP) =  -1032.43447027     A.U. after   11 cycles
 SCF Done:  E(RB3LYP) =  -1032.43475086     A.U. after   11 cycles
 SCF Done:  E(RB3LYP) =  -1032.43485158     A.U. after   11 cycles
 SCF Done:  E(RB3LYP) =  -1032.43491543     A.U. after   10 cycles
 SCF Done:  E(RB3LYP) =  -1032.43497377     A.U. after   11 cycles
 SCF Done:  E(RB3LYP) =  -1032.43498349     A.U. after   10 cycles
 SCF Done:  E(RB3LYP) =  -1032.43498710     A.U. after    9 cycles
 SCF Done:  E(RB3LYP) =  -1032.43498741     A.U. after    7 cycles
 SCF Done:  E(RB3LYP) =  -1032.43498747     A.U. after    6 cycles
 Optimization completed.
    -- Stationary point found.
 Normal termination of Gaussian 16 at Thu Dec 10 21:08:46 2020.

 --------------------------------------------------------------------
 #N Geom=AllCheck Guess=TCheck SCRF=Check GenChk RB3LYP/6-31G(d) Freq
 --------------------------------------------------------------------

 Structure from the checkpoint file:  "JID_6015.chk"
 ------------------------------
 CID_62750222_JID_6015_neutraal
 ------------------------------
 Charge =  0 Multiplicity = 1

 SCF Done:  E(RB3LYP) =  -1032.43498747     A.U. after    1 cycles

  Exact polarizability: 217.974  -9.739 146.680 -10.760  -8.798 129.694
 Approx polarizability: 271.583 -14.041 235.548 -26.268 -31.266 210.388

                      1                      2                      3
                      A                      A                      A
 Frequencies --     21.9096                26.6581                48.8705
 Red. masses --      3.4563                 3.8552                 3.7509
 Frc consts  --      0.0010                 0.0016                 0.0053
 IR Inten    --      0.0932                 0.1643                 0.2537

                      4                      5                      6
                      A                      A                      A
 Frequencies --     53.2689                76.9082               117.0135
 Red. masses --      6.3530                 1.7018                 3.8638
 Frc consts  --      0.0106                 0.0059                 0.0312
 IR Inten    --      0.0830                 0.5823                 0.0652

                      7                      8                      9
                      A                      A                      A
 Frequencies --    131.6344               151.3232               194.4292
 Red. masses --      3.9658                 2.5332                 1.9044
 Frc consts  --      0.0405                 0.0342                 0.0424
 IR Inten    --      1.8268                 0.6884                 1.2209

                     10                     11                     12
                      A                      A                      A
 Frequencies --    209.1649               233.3768               260.8901
 Red. masses --      1.8295                 2.1555                 2.1788
 Frc consts  --      0.0472                 0.0692                 0.0874
 IR Inten    --      1.6679                 3.9783                 1.8826

                     13                     14                     15
                      A                      A                      A
 Frequencies --    264.7532               288.3386               309.1550
 Red. masses --      1.5610                 3.1283                 2.5915
 Frc consts  --      0.0645                 0.1532                 0.1459
 IR Inten    --      0.8175                 0.9527                 6.4335

                     16                     17                     18
                      A                      A                      A
 Frequencies --    329.0971               364.5967               389.5861
 Red. masses --      2.1454                 2.9339                 2.5855
 Frc consts  --      0.1369                 0.2298                 0.2312
 IR Inten    --      5.0578                 2.3115                 8.7433

                     19                     20                     21
                      A                      A                      A
 Frequencies --    405.7954               436.9779               490.4289
 Red. masses --      1.8514                 4.2785                 2.4473
 Frc consts  --      0.1796                 0.4814                 0.3468
 IR Inten    --      1.2374                 2.5952                 0.4631

                     22                     23                     24
                      A                      A                      A
 Frequencies --    506.8718               526.5184               604.7484
 Red. masses --      3.9765                 4.3062                 3.9297
 Frc consts  --      0.6019                 0.7033                 0.8468
 IR Inten    --      1.8895                 6.5923                 1.0157

                     25                     26                     27
                      A                      A                      A
 Frequencies --    627.2788               643.6238               653.1122
 Red. masses --      6.5367                 3.4524                 5.6259
 Frc consts  --      1.5154                 0.8426                 1.4139
 IR Inten    --     14.1906                15.6750                 8.9600

                     28                     29                     30
                      A                      A                      A
 Frequencies --    708.5480               747.4164               783.4525
 Red. masses --      2.7091                 4.0475                 1.8827
 Frc consts  --      0.8013                 1.3322                 0.6809
 IR Inten    --      2.7585                22.3496                98.9635

                     31                     32                     33
                      A                      A                      A
 Frequencies --    796.8039               829.6801               866.8051
 Red. masses --      2.6703                 1.2169                 1.4168
 Frc consts  --      0.9989                 0.4936                 0.6272
 IR Inten    --     39.8812                 9.3310                 6.1149

                     34                     35                     36
                      A                      A                      A
 Frequencies --    883.1662               887.6984               890.8366
 Red. masses --      1.5556                 1.6684                 1.9371
 Frc consts  --      0.7149                 0.7746                 0.9057
 IR Inten    --     13.4282                29.3333                 2.3461

                     37                     38                     39
                      A                      A                      A
 Frequencies --    908.1346               912.6041               985.5627
 Red. masses --      2.2989                 2.4810                 1.5270
 Frc consts  --      1.1171                 1.2174                 0.8739
 IR Inten    --     11.1668                 9.2632                 3.7889

                     40                     41                     42
                      A                      A                      A
 Frequencies --    991.4284              1000.7197              1033.8852
 Red. masses --      1.8806                 1.5812                 1.7942
 Frc consts  --      1.0891                 0.9330                 1.1300
 IR Inten    --      5.2448                 2.8565                 9.0093

                     43                     44                     45
                      A                      A                      A
 Frequencies --   1042.9571              1064.2601              1086.8872
 Red. masses --      2.9015                 2.1137                 1.6932
 Frc consts  --      1.8596                 1.4105                 1.1785
 IR Inten    --      2.7800                12.4718                 5.0722

                     46                     47                     48
                      A                      A                      A
 Frequencies --   1126.4113              1130.3842              1137.9107
 Red. masses --      2.9026                 2.4732                 1.5334
 Frc consts  --      2.1698                 1.8619                 1.1698
 IR Inten    --     24.3610                30.1232                 3.5500

                     49                     50                     51
                      A                      A                      A
 Frequencies --   1162.5933              1170.7357              1173.3348
 Red. masses --      2.1259                 2.1514                 1.8107
 Frc consts  --      1.6930                 1.7373                 1.4687
 IR Inten    --     97.3419                13.4553                16.3683

                     52                     53                     54
                      A                      A                      A
 Frequencies --   1193.2653              1198.0620              1240.4527
 Red. masses --      2.0995                 1.9818                 1.3856
 Frc consts  --      1.7613                 1.6760                 1.2562
 IR Inten    --     33.9711                25.2978                11.8234

                     55                     56                     57
                      A                      A                      A
 Frequencies --   1276.0724              1278.1051              1292.2147
 Red. masses --      1.8401                 1.4331                 1.8941
 Frc consts  --      1.7654                 1.3793                 1.8635
 IR Inten    --    108.7404                 9.0559                28.1188

                     58                     59                     60
                      A                      A                      A
 Frequencies --   1310.1037              1324.2052              1348.5798
 Red. masses --      1.1859                 1.5595                 1.4571
 Frc consts  --      1.1993                 1.6112                 1.5613
 IR Inten    --     10.2056                44.6370                31.6099

                     61                     62                     63
                      A                      A                      A
 Frequencies --   1364.8975              1378.7853              1381.9887
 Red. masses --      1.6403                 1.2967                 1.4041
 Frc consts  --      1.8004                 1.4524                 1.5800
 IR Inten    --      1.2595                 8.2720                29.8014

                     64                     65                     66
                      A                      A                      A
 Frequencies --   1383.9299              1391.9332              1405.0255
 Red. masses --      1.5296                 1.6314                 1.4191
 Frc consts  --      1.7261                 1.8623                 1.6505
 IR Inten    --     34.4299                 8.7635                 0.1249

                     67                     68                     69
                      A                      A                      A
 Frequencies --   1410.3418              1414.6243              1437.9269
 Red. masses --      1.2969                 1.4095                 1.5834
 Frc consts  --      1.5199                 1.6619                 1.9289
 IR Inten    --      2.4600                 9.5917                34.8011

                     70                     71                     72
                      A                      A                      A
 Frequencies --   1442.3984              1444.6684              1490.3946
 Red. masses --      1.3210                 1.3114                 1.0844
 Frc consts  --      1.6192                 1.6126                 1.4192
 IR Inten    --      7.5138                26.6996                 0.3527

                     73                     74                     75
                      A                      A                      A
 Frequencies --   1510.4654              1510.7209              1514.3558
 Red. masses --      1.1289                 1.0786                 1.0965
 Frc consts  --      1.5175                 1.4504                 1.4816
 IR Inten    --     13.0189                 4.3582                29.7621

                     76                     77                     78
                      A                      A                      A
 Frequencies --   1519.8735              1524.2839              1527.7990
 Red. masses --      1.0833                 1.0659                 1.0618
 Frc consts  --      1.4744                 1.4592                 1.4602
 IR Inten    --     26.9723                 6.0995                14.3231

                     79                     80                     81
                      A                      A                      A
 Frequencies --   1531.4173              1536.7575              1541.9107
 Red. masses --      1.0854                 1.0939                 1.0588
 Frc consts  --      1.4998                 1.5222                 1.4831
 IR Inten    --      2.0510                20.0458                 2.6898

                     82                     83                     84
                      A                      A                      A
 Frequencies --   1553.6260              1593.5461              1609.0856
 Red. masses --      1.0917                 6.7343                 6.3310
 Frc consts  --      1.5526                10.0756                 9.6579
 IR Inten    --      5.8859               511.9872                36.1960

                     85                     86                     87
                      A                      A                      A
 Frequencies --   2972.5055              2976.3483              2983.9449
 Red. masses --      1.0730                 1.0711                 1.0740
 Frc consts  --      5.5861                 5.5903                 5.6341
 IR Inten    --     39.0349                49.0232                64.5566

                     88                     89                     90
                      A                      A                      A
 Frequencies --   3026.4471              3041.5555              3041.9676
 Red. masses --      1.0691                 1.0606                 1.0779
 Frc consts  --      5.7693                 5.7807                 5.8767
 IR Inten    --     17.4411                58.7697                56.4488

                     91                     92                     93
                      A                      A                      A
 Frequencies --   3044.2369              3050.0167              3052.6031
 Red. masses --      1.0522                 1.0739                 1.0395
 Frc consts  --      5.7451                 5.8860                 5.7072
 IR Inten    --     18.2803                41.0042                21.5839

                     94                     95                     96
                      A                      A                      A
 Frequencies --   3058.8673              3079.7264              3083.1849
 Red. masses --      1.0624                 1.0955                 1.1052
 Frc consts  --      5.8569                 6.1218                 6.1902
 IR Inten    --     17.7797                54.3045                18.9022

                     97                     98                     99
                      A                      A                      A
 Frequencies --   3099.5855              3109.4198              3111.9811
 Red. masses --      1.1029                 1.0989                 1.0912
 Frc consts  --      6.2429                 6.2598                 6.2261
 IR Inten    --     42.9826                46.3615                20.7827

                    100                    101                    102
                      A                      A                      A
 Frequencies --   3115.1042              3130.7677              3131.4577
 Red. masses --      1.1026                 1.1006                 1.1032
 Frc consts  --      6.3039                 6.3560                 6.3738
 IR Inten    --     31.3650                35.8268                29.2963

                    103                    104                    105
                      A                      A                      A
 Frequencies --   3159.1373              3212.1997              3470.8298
 Red. masses --      1.0895                 1.0929                 1.0736
 Frc consts  --      6.4066                 6.6439                 7.6202
 IR Inten    --      5.7292                19.9205                 1.6097

 - Thermochemistry -
 -------------------
 Temperature   298.150 Kelvin.  Pressure   1.00000 Atm.
 Atom     1 has atomic number  6 and mass  12.00000

 Molecular mass:   239.14562 amu.
 Principal axes and moments of inertia in atomic units:
                           1         2         3
     Eigenvalues --  1539.375078866.708679244.74185
           X            0.99996   0.00383   0.00769
           Y           -0.00411   0.99931   0.03704
           Z           -0.00755  -0.03707   0.99928
 This molecule is an asymmetric top.
 Rotational symmetry number  1.
 Warning -- assumption of classical behavior for rotation
           may cause significant error
 Rotational temperatures (Kelvin)      0.05627     0.00977     0.00937
 Rotational constants (GHZ):           1.17239     0.20354     0.19522
 Zero-point vibrational energy     858453.7 (Joules/Mol)
                                  205.17536 (Kcal/Mol)
 Warning -- explicit consideration of  24 degrees of freedom as
           vibrations may cause significant error
 Vibrational temperatures:     31.52    38.36    70.31    76.64   110.65
          (Kelvin)            168.36   189.39   217.72   279.74   300.94
                              335.78   375.36   380.92   414.85   444.81
                              473.50   524.57   560.53   583.85   628.71
                              705.62   729.28   757.54   870.10   902.51
                              926.03   939.68  1019.44  1075.37  1127.21
                             1146.42  1193.72  1247.14  1270.68  1277.20
                             1281.72  1306.60  1313.03  1418.00  1426.44
                             1439.81  1487.53  1500.58  1531.23  1563.79
                             1620.65  1626.37  1637.20  1672.71  1684.43
                             1688.17  1716.84  1723.74  1784.73  1835.98
                             1838.91  1859.21  1884.95  1905.24  1940.31
                             1963.78  1983.76  1988.37  1991.17  2002.68
                             2021.52  2029.17  2035.33  2068.86  2075.29
                             2078.56  2144.35  2173.22  2173.59  2178.82
                             2186.76  2193.10  2198.16  2203.37  2211.05
                             2218.47  2235.32  2292.76  2315.12  4276.77
                             4282.30  4293.23  4354.38  4376.12  4376.71
                             4379.98  4388.29  4392.02  4401.03  4431.04
                             4436.02  4459.61  4473.76  4477.45  4481.94
                             4504.48  4505.47  4545.29  4621.64  4993.75

 Zero-point correction=                           0.326968 (Hartree/Particle)
 Thermal correction to Energy=                    0.343688
 Thermal correction to Enthalpy=                  0.344632
 Thermal correction to Gibbs Free Energy=         0.280630
 Sum of electronic and zero-point Energies=          -1032.108020
 Sum of electronic and thermal Energies=             -1032.091299
 Sum of electronic and thermal Enthalpies=           -1032.090355
 Sum of electronic and thermal Free Energies=        -1032.154357

                     E (Thermal)             CV                S
                      KCal/Mol        Cal/Mol-Kelvin    Cal/Mol-Kelvin
 Total                  215.668             62.890            134.703
 Electronic               0.000              0.000              0.000
 Translational            0.889              2.981             42.317
 Rotational               0.889              2.981             33.200
 Vibrational            213.890             56.928             59.186
 Vibration     1          0.593              1.985              6.453
 Vibration     2          0.593              1.984              6.064
 Vibration     3          0.595              1.978              4.863
 Vibration     4          0.596              1.976              4.692
 Vibration     5          0.599              1.965              3.968
 Vibration     6          0.608              1.935              3.149
 Vibration     7          0.612              1.922              2.922
 Vibration     8          0.619              1.901              2.656
 Vibration     9          0.635              1.848              2.185
 Vibration    10          0.642              1.827              2.051
 Vibration    11          0.654              1.790              1.853
 Vibration    12          0.669              1.744              1.656
 Vibration    13          0.671              1.738              1.630
 Vibration    14          0.685              1.695              1.484
 Vibration    15          0.699              1.656              1.367
 Vibration    16          0.712              1.617              1.265
 Vibration    17          0.738              1.545              1.102
 Vibration    18          0.758              1.492              1.002
 Vibration    19          0.771              1.458              0.942
 Vibration    20          0.797              1.390              0.836
 Vibration    21          0.846              1.271              0.682
 Vibration    22          0.862              1.235              0.641
 Vibration    23          0.881              1.191              0.595
 Vibration    24          0.963              1.022              0.442

 Optimization completed.
    -- Stationary point found.
 Normal termination of Gaussian 16 at Thu Dec 10 21:20:59 2020.

 ----------------------------------------------------------------------
 # B3LYP/6-311++G(d,p) empiricaldispersion=gd3bj scf=xqc pop=npa geom=c
 heck
 ----------------------------------------------------------------------

 --------------------------------------
 CID_62750222_JID_6015_Energie_neutraal
 --------------------------------------
 Structure from the checkpoint file:  "JID_6015.chk"
 Charge =  0 Multiplicity = 1

 SCF Done:  E(RB3LYP) =  -1032.63502934     A.U. after   15 cycles
 Normal termination of Gaussian 16 at Thu Dec 10 21:26:56 2020.

 ----------------------------------------------------------------------
 # B3LYP/6-311++G(d,p) empiricaldispersion=gd3bj scf=xqc pop=npa geom=c
 heck
 ----------------------------------------------------------------------

 ------------------------------------
 CID_62750222_JID_6015_Energie_kation
 ------------------------------------
 Structure from the checkpoint file:  "JID_6015.chk"
 Charge =  1 Multiplicity = 2

 SCF Done:  E(UB3LYP) =  -1032.37267812     A.U. after   23 cycles
 Normal termination of Gaussian 16 at Thu Dec 10 21:40:28 2020.
 Gaussian 16:  ES64L-G16RevA.03 25-Dec-2016

 ----------------------------------------------------------------------
 # B3LYP/6-311++G(d,p) empiricaldispersion=gd3bj scf=xqc pop=npa geom=c
 heck
 ----------------------------------------------------------------------

 -----------------------------------
 CID_62750222_JID_6015_Energie_anion
 -----------------------------------
 Structure from the checkpoint file:  "JID_6015.chk"
 Charge = -1 Multiplicity = 2

                         Standard orientation:
 ---------------------------------------------------------------------
 Center     Atomic      Atomic             Coordinates (Angstroms)
 Number     Number       Type             X           Y           Z
 ---------------------------------------------------------------------
      1          6           0        5.250963    1.367120    1.321134
      2          6           0        4.340718    0.229617    0.869923
      3          7           0        4.256047    0.191212   -0.589984
      4          6           0        3.391795   -0.874094   -1.108826
      5          6           0        1.970406   -0.881265   -0.617950
      6          6           0        1.350044   -1.741071    0.234904
      7          7           0        0.045377   -1.471572    0.587772
      8          6           0       -0.376974   -0.379483    0.006453
      9         16           0        0.842643    0.416134   -1.022515
     10          7           0       -1.650203    0.111746    0.115998
     11          6           0       -1.960802    1.480666   -0.284102
     12          6           0       -3.429602    1.601960   -0.697022
     13          6           0       -4.359385    1.047763    0.388805
     14          6           0       -3.977095   -0.392249    0.778210
     15          6           0       -2.497564   -0.433213    1.182665
     16          6           0       -4.280970   -1.408866   -0.329359
     17          1           0        6.245128    1.266794    0.874078
     18          1           0        5.353728    1.375183    2.411661
     19          1           0        4.841266    2.339845    1.019889
     20          1           0        4.756872   -0.732672    1.197856
     21          1           0        3.353793    0.321768    1.355592
     22          1           0        3.908610    1.090658   -0.922752
     23          1           0        3.422988   -0.815832   -2.203763
     24          1           0        3.839898   -1.836684   -0.830783
     25          1           0        1.828276   -2.622300    0.650832
     26          1           0       -1.741324    2.175257    0.545812
     27          1           0       -1.318602    1.761030   -1.123015
     28          1           0       -3.579040    1.058414   -1.636827
     29          1           0       -3.656325    2.656054   -0.895422
     30          1           0       -5.402317    1.087257    0.052128
     31          1           0       -4.288537    1.687882    1.279783
     32          1           0       -4.556903   -0.670897    1.668549
     33          1           0       -2.163590   -1.452299    1.376734
     34          1           0       -2.342259    0.151120    2.105463
     35          1           0       -4.095181   -2.429929    0.021798
     36          1           0       -5.328350   -1.344637   -0.645889
     37          1           0       -3.648168   -1.245169   -1.207008
 ---------------------------------------------------------------------

 SCF Done:  E(UB3LYP) =  -1032.62352188     A.U. after   32 cycles

 The electronic state is 2-A.
 Alpha  occ. eigenvalues --  -88.77559 -14.24589 -14.21351 -14.19958 -10.16697
 Alpha  occ. eigenvalues --  -10.11839 -10.11137 -10.10540 -10.10199 -10.10084
 Alpha  occ. eigenvalues --  -10.09711 -10.07940 -10.07876 -10.07331 -10.06830
 Alpha  occ. eigenvalues --  -10.06109  -7.86205  -5.82501  -5.82162  -5.81743
 Alpha  occ. eigenvalues --   -0.88980  -0.83353  -0.82116  -0.71900  -0.70585
 Alpha  occ. eigenvalues --   -0.67718  -0.66412  -0.63858  -0.59655  -0.58661
 Alpha  occ. eigenvalues --   -0.55838  -0.53056  -0.52132  -0.47678  -0.46659
 Alpha  occ. eigenvalues --   -0.44088  -0.42039  -0.38836  -0.38061  -0.37483
 Alpha  occ. eigenvalues --   -0.37288  -0.36981  -0.35877  -0.35270  -0.33900
 Alpha  occ. eigenvalues --   -0.33308  -0.31389  -0.30964  -0.30411  -0.30267
 Alpha  occ. eigenvalues --   -0.28359  -0.28152  -0.27460  -0.27338  -0.26550
 Alpha  occ. eigenvalues --   -0.25512  -0.25184  -0.23869  -0.22430  -0.22182
 Alpha  occ. eigenvalues --   -0.19420  -0.17931  -0.17754  -0.14635  -0.10556
 Alpha  occ. eigenvalues --    0.04087
 Alpha virt. eigenvalues --    0.05719   0.06750   0.06991   0.07468   0.07577
 Alpha virt. eigenvalues --    0.08335   0.08366   0.09336   0.09695   0.09913
 Alpha virt. eigenvalues --    0.10037   0.10175   0.10588   0.11200   0.11357

  Beta  occ. eigenvalues --  -88.77546 -14.24599 -14.21337 -14.19958 -10.16640
  Beta  occ. eigenvalues --  -10.11832 -10.11113 -10.10531 -10.10190 -10.10071
  Beta  occ. eigenvalues --  -10.09680 -10.07931 -10.07859 -10.07308 -10.06802
  Beta  occ. eigenvalues --  -10.06084  -7.86191  -5.82493  -5.82154  -5.81718
  Beta  occ. eigenvalues --   -0.88941  -0.83334  -0.82095  -0.71857  -0.70539
  Beta  occ. eigenvalues --   -0.67682  -0.66379  -0.63804  -0.59608  -0.58615
  Beta  occ. eigenvalues --   -0.55802  -0.53001  -0.52086  -0.47631  -0.46605
  Beta  occ. eigenvalues --   -0.44024  -0.42007  -0.38799  -0.38020  -0.37446
  Beta  occ. eigenvalues --   -0.37249  -0.36938  -0.35844  -0.35243  -0.33850
  Beta  occ. eigenvalues --   -0.33266  -0.31352  -0.30903  -0.30383  -0.30207
  Beta  occ. eigenvalues --   -0.28320  -0.28117  -0.27423  -0.27300  -0.26528
  Beta  occ. eigenvalues --   -0.25476  -0.25149  -0.23828  -0.22389  -0.22135
  Beta  occ. eigenvalues --   -0.19312  -0.17874  -0.17703  -0.14616  -0.10476
  Beta virt. eigenvalues --    0.05824   0.06513   0.07074   0.07245   0.08080
  Beta virt. eigenvalues --    0.08118   0.08446   0.08725   0.09510   0.09940
  Beta virt. eigenvalues --    0.10114   0.10217   0.10567   0.10808   0.11417

 Mulliken charges and spin densities:
               1          2
     1  C    0.138149  -0.675131
     2  C   -0.439822   0.091779
     3  N   -0.068603   0.054312
     4  C    0.162242  -0.652801
     5  C    0.092342   0.055450
     6  C   -0.186353   0.166392
     7  N   -0.080401  -0.001232
     8  C   -0.677253   0.067606
     9  S   -0.031302  -0.226659
    10  N    0.471763   0.078044
    11  C    0.629069  -0.915766
    12  C   -0.334386   0.094313
    13  C    0.844823  -1.361929
    14  C   -1.060964   1.435396
    15  C    0.258548  -0.775906
    16  C    0.795137  -1.360999
    17  H    0.013725   0.140362
    18  H   -0.008832   0.133182
    19  H   -0.083487   0.210268
    20  H    0.030027   0.111421
    21  H    0.187922  -0.006743
    22  H    0.129741   0.075574
    23  H   -0.101448   0.298762
    24  H    0.128139   0.025030
    25  H    0.030691   0.136766
    26  H   -0.122340   0.305534
    27  H   -0.356428   0.477790
    28  H    0.117842   0.030265
    29  H   -0.392392   0.572339
    30  H   -0.471654   0.635462
    31  H   -0.136388   0.284700
    32  H   -0.440126   0.652889
    33  H    0.243943  -0.035031
    34  H   -0.167743   0.329625
    35  H    0.061202   0.065445
    36  H   -0.201060   0.355123
    37  H    0.025676   0.128372
 Sum of Mulliken charges =  -1.00000   1.00000

 Dipole moment (field-independent basis, Debye):
    X=              5.5157    Y=             -2.6523    Z=             -0.8318  Tot=              6.1765
 Quadrupole moment (field-independent basis, Debye-Ang):
   XX=           -220.0657   YY=           -147.7768   ZZ=           -141.0365
   XY=              3.3705   XZ=              6.9488   YZ=             -0.9758

 Summary of Natural Population Analysis:

                                       Natural Population
                Natural  -----------------------------------------------
    Atom  No    Charge         Core      Valence    Rydberg      Total
 -----------------------------------------------------------------------
      C    1   -0.28693      0.99967     2.28263    0.00464     3.28693
      C    2   -0.09032      0.99964     2.08120    0.00947     3.09032
      N    3   -0.33778      0.99975     2.82529    0.01274     3.83778
      C    4   -0.10094      0.99956     2.08895    0.01243     3.10094
      C    5   -0.12859      0.99948     2.11804    0.01107     3.12859
      C    6   -0.00974      0.99944     1.99633    0.01397     3.00974
      N    7   -0.28187      0.99964     2.77155    0.01068     3.78187
      C    8    0.16787      0.99956     1.81369    0.01888     2.83213
      S    9    0.15133      4.99943     2.83036    0.01889     7.84867
      N   10   -0.26265      0.99961     2.75064    0.01240     3.76265
      C   11   -0.08015      0.99960     2.06997    0.01058     3.08015
      C   12   -0.19436      0.99962     2.18555    0.00918     3.19436
      C   13   -0.18835      0.99961     2.17928    0.00946     3.18835
      C   14   -0.11720      0.99960     2.10614    0.01146     3.11720
      C   15   -0.08152      0.99958     2.06977    0.01216     3.08152
      C   16   -0.28762      0.99965     2.28121    0.00677     3.28762
      H   17    0.09820      0.00000     0.40041    0.00139     0.40180
      H   18    0.09809      0.00000     0.40086    0.00105     0.40191
      H   19    0.09564      0.00000     0.40308    0.00128     0.40436
      H   20    0.08637      0.00000     0.41200    0.00163     0.41363
      H   21    0.08623      0.00000     0.41177    0.00200     0.41377
      H   22    0.16934      0.00000     0.32699    0.00367     0.33066
      H   23    0.10013      0.00000     0.39860    0.00127     0.39987
      H   24    0.09808      0.00000     0.40047    0.00145     0.40192
      H   25    0.09605      0.00000     0.40270    0.00124     0.40395
      H   26    0.09095      0.00000     0.40719    0.00186     0.40905
      H   27    0.10242      0.00000     0.39588    0.00170     0.39758
      H   28    0.09660      0.00000     0.40200    0.00140     0.40340
      H   29    0.10411      0.00000     0.39441    0.00149     0.39589
      H   30    0.10180      0.00000     0.39666    0.00154     0.39820
      H   31    0.09903      0.00000     0.39890    0.00206     0.40097
      H   32    0.10052      0.00000     0.39795    0.00152     0.39948
      H   33    0.11443      0.00000     0.38331    0.00226     0.38557
      H   34    0.09210      0.00000     0.40655    0.00135     0.40790
      H   35    0.09923      0.00000     0.39994    0.00083     0.40077
      H   36    0.09947      0.00000     0.39962    0.00091     0.40053
      H   37    0.10001      0.00000     0.39876    0.00123     0.39999
 =======================================================================
   * Total *   -0.00000     19.99346    44.78864    0.21791    65.00000

 Normal termination of Gaussian 16 at Thu Dec 10 22:00:15 2020.
