 Gaussian 16, Revision A.03,

 -----------------------------------------------------------
 # opt freq B3LYP/6-31G(d) empiricaldispersion=gd3bj scf=xqc
 -----------------------------------------------------------

 ------------------------------
 CID_66353859_JID_5944_neutraal
 ------------------------------
 Symbolic Z-matrix:
 Charge =  0 Multiplicity = 1

 SCF Done:  E(RB3LYP) =  -990.659961206     A.U. after   16 cycles
 SCF Done:  E(RB3LYP) =  -990.669541059     A.U. after   12 cycles
 SCF Done:  E(RB3LYP) =  -990.670788973     A.U. after   12 cycles
 SCF Done:  E(RB3LYP) =  -990.670945639     A.U. after   12 cycles
 SCF Done:  E(RB3LYP) =  -990.671041988     A.U. after   11 cycles
 SCF Done:  E(RB3LYP) =  -990.671079461     A.U. after   10 cycles
 SCF Done:  E(RB3LYP) =  -990.671099095     A.U. after   12 cycles
 SCF Done:  E(RB3LYP) =  -990.671111775     A.U. after   11 cycles
 SCF Done:  E(RB3LYP) =  -990.671133535     A.U. after   12 cycles
 SCF Done:  E(RB3LYP) =  -990.671140411     A.U. after   11 cycles
 SCF Done:  E(RB3LYP) =  -990.671150673     A.U. after   11 cycles
 SCF Done:  E(RB3LYP) =  -990.671161813     A.U. after   11 cycles
 SCF Done:  E(RB3LYP) =  -990.671166620     A.U. after   10 cycles
 SCF Done:  E(RB3LYP) =  -990.671167925     A.U. after   10 cycles
 SCF Done:  E(RB3LYP) =  -990.671168878     A.U. after    9 cycles
 SCF Done:  E(RB3LYP) =  -990.671169154     A.U. after    9 cycles
 Optimization completed.
    -- Stationary point found.
 Normal termination of Gaussian 16 at Thu Dec 10 17:38:03 2020.

 --------------------------------------------------------------------
 #N Geom=AllCheck Guess=TCheck SCRF=Check GenChk RB3LYP/6-31G(d) Freq
 --------------------------------------------------------------------

 Structure from the checkpoint file:  "JID_5944.chk"
 ------------------------------
 CID_66353859_JID_5944_neutraal
 ------------------------------
 Charge =  0 Multiplicity = 1

 SCF Done:  E(RB3LYP) =  -990.671169154     A.U. after    1 cycles

  Exact polarizability: 197.024 -12.753 159.305 -19.117  -5.664  98.507
 Approx polarizability: 305.814 -22.729 304.719 -41.669 -16.010 146.333

                      1                      2                      3
                      A                      A                      A
 Frequencies --     12.7209                36.6619                69.4330
 Red. masses --      3.7147                 4.3363                 3.1134
 Frc consts  --      0.0004                 0.0034                 0.0088
 IR Inten    --      1.9640                 2.1794                 0.3454

                      4                      5                      6
                      A                      A                      A
 Frequencies --    101.4561               124.9454               171.6151
 Red. masses --      3.8874                 3.0938                 2.2369
 Frc consts  --      0.0236                 0.0285                 0.0388
 IR Inten    --      2.8871                 0.8397                 0.7870

                      7                      8                      9
                      A                      A                      A
 Frequencies --    180.7181               187.2378               241.5122
 Red. masses --      5.1964                 1.4390                 3.2010
 Frc consts  --      0.1000                 0.0297                 0.1100
 IR Inten    --      1.7355                 0.0355                 1.1673

                     10                     11                     12
                      A                      A                      A
 Frequencies --    251.5555               273.7751               304.1405
 Red. masses --      1.1314                 3.3370                 4.4594
 Frc consts  --      0.0422                 0.1474                 0.2430
 IR Inten    --      2.2762                 2.4421                 8.1016

                     13                     14                     15
                      A                      A                      A
 Frequencies --    340.5973               363.0077               390.8653
 Red. masses --      1.1006                 5.4065                 2.6244
 Frc consts  --      0.0752                 0.4198                 0.2362
 IR Inten    --     38.8148                 3.4161                 4.8071

                     16                     17                     18
                      A                      A                      A
 Frequencies --    426.2166               441.2899               451.5823
 Red. masses --      2.2917                 3.6122                 3.0763
 Frc consts  --      0.2453                 0.4144                 0.3696
 IR Inten    --      9.5101                 4.6488                 6.6734

                     19                     20                     21
                      A                      A                      A
 Frequencies --    491.2877               514.6863               553.3156
 Red. masses --     10.8431                 3.2952                 3.8566
 Frc consts  --      1.5420                 0.5143                 0.6957
 IR Inten    --      0.5059                 3.1952                 0.3466

                     22                     23                     24
                      A                      A                      A
 Frequencies --    593.6371               625.6245               659.4570
 Red. masses --      5.0911                 6.2384                 4.3080
 Frc consts  --      1.0571                 1.4386                 1.1038
 IR Inten    --      7.3036                 2.3766                 9.6820

                     25                     26                     27
                      A                      A                      A
 Frequencies --    699.0288               765.4233               774.7914
 Red. masses --      3.9570                 1.4057                 3.8070
 Frc consts  --      1.1392                 0.4852                 1.3465
 IR Inten    --      5.6084                53.9261                 2.6585

                     28                     29                     30
                      A                      A                      A
 Frequencies --    806.5853               816.6763               862.7226
 Red. masses --      3.7743                 9.5628                 1.5975
 Frc consts  --      1.4467                 3.7578                 0.7005
 IR Inten    --     10.7904                18.0910                 1.1297

                     31                     32                     33
                      A                      A                      A
 Frequencies --    884.7922               894.7901               917.4108
 Red. masses --      4.0521                 1.6963                 2.2624
 Frc consts  --      1.8690                 0.8002                 1.1219
 IR Inten    --     67.8201               130.8556                53.3914

                     34                     35                     36
                      A                      A                      A
 Frequencies --    935.3633               957.0032               962.8694
 Red. masses --      2.9422                 1.3956                 2.2376
 Frc consts  --      1.5166                 0.7531                 1.2223
 IR Inten    --     16.6995                 2.2281                 8.8320

                     37                     38                     39
                      A                      A                      A
 Frequencies --    983.1529               991.9355              1026.3891
 Red. masses --      2.4858                 1.2713                 2.1673
 Frc consts  --      1.4156                 0.7370                 1.3452
 IR Inten    --     20.1858                 0.4518                 1.3667

                     40                     41                     42
                      A                      A                      A
 Frequencies --   1037.2466              1073.9094              1107.4835
 Red. masses --      1.4336                 1.9140                 2.1155
 Frc consts  --      0.9087                 1.3005                 1.5287
 IR Inten    --      1.4048                51.0129                30.3029

                     43                     44                     45
                      A                      A                      A
 Frequencies --   1134.0279              1148.9336              1172.0300
 Red. masses --      1.9365                 1.3205                 1.3059
 Frc consts  --      1.4673                 1.0270                 1.0569
 IR Inten    --     37.1262                12.2422                 0.1973

                     46                     47                     48
                      A                      A                      A
 Frequencies --   1195.2717              1217.1010              1251.7639
 Red. masses --      1.2606                 2.4558                 1.8944
 Frc consts  --      1.0611                 2.1433                 1.7489
 IR Inten    --     15.1690                 5.0521                 6.4960

                     49                     50                     51
                      A                      A                      A
 Frequencies --   1279.6478              1300.8212              1340.3892
 Red. masses --      1.6707                 1.8525                 1.9814
 Frc consts  --      1.6118                 1.8469                 2.0974
 IR Inten    --      8.4784                23.5790                 5.8034

                     52                     53                     54
                      A                      A                      A
 Frequencies --   1355.8558              1365.5694              1406.5184
 Red. masses --      1.5081                 2.1930                 1.3221
 Frc consts  --      1.6334                 2.4094                 1.5410
 IR Inten    --     24.7737                 2.2478                23.1818

                     55                     56                     57
                      A                      A                      A
 Frequencies --   1420.0410              1426.7121              1444.1001
 Red. masses --      3.1899                 1.3701                 1.6100
 Frc consts  --      3.7899                 1.6432                 1.9782
 IR Inten    --      6.0266                10.6610                34.8983

                     58                     59                     60
                      A                      A                      A
 Frequencies --   1456.0962              1484.2916              1499.3172
 Red. masses --      1.8427                 1.3422                 2.4051
 Frc consts  --      2.3018                 1.7422                 3.1854
 IR Inten    --    101.2391                11.3598                10.3752

                     61                     62                     63
                      A                      A                      A
 Frequencies --   1512.7566              1519.5238              1523.2626
 Red. masses --      1.1582                 1.0789                 1.0644
 Frc consts  --      1.5616                 1.4677                 1.4551
 IR Inten    --      5.9372                13.9550                 5.3032

                     64                     65                     66
                      A                      A                      A
 Frequencies --   1534.0371              1535.5746              1557.7360
 Red. masses --      1.0665                 1.1504                 3.6199
 Frc consts  --      1.4786                 1.5983                 5.1752
 IR Inten    --     14.3737                 6.4625                57.8666

                     67                     68                     69
                      A                      A                      A
 Frequencies --   1579.3261              1674.9874              1694.7379
 Red. masses --      5.4751                 5.6802                 1.0936
 Frc consts  --      8.0461                 9.3893                 1.8506
 IR Inten    --     14.2325                18.4179                21.7602

                     70                     71                     72
                      A                      A                      A
 Frequencies --   2991.6320              3021.6443              3035.6656
 Red. masses --      1.0556                 1.0726                 1.0792
 Frc consts  --      5.5663                 5.7700                 5.8594
 IR Inten    --     72.4751                16.6153                75.9782

                     73                     74                     75
                      A                      A                      A
 Frequencies --   3057.7001              3103.6779              3105.9222
 Red. masses --      1.0361                 1.0792                 1.0956
 Frc consts  --      5.7076                 6.1253                 6.2273
 IR Inten    --     11.0792                19.8469                24.6316

                     76                     77                     78
                      A                      A                      A
 Frequencies --   3122.7729              3142.9310              3149.7041
 Red. masses --      1.1013                 1.1024                 1.1043
 Frc consts  --      6.3278                 6.4160                 6.4545
 IR Inten    --     31.0829                29.9719                21.9460

                     79                     80                     81
                      A                      A                      A
 Frequencies --   3188.8759              3201.0119              3215.4933
 Red. masses --      1.0860                 1.0887                 1.0946
 Frc consts  --      6.5063                 6.5722                 6.6680
 IR Inten    --      3.6852                13.3895                21.8192

                     82                     83                     84
                      A                      A                      A
 Frequencies --   3222.9425              3450.0462              3540.3708
 Red. masses --      1.0957                 1.0486                 1.0924
 Frc consts  --      6.7056                 7.3537                 8.0676
 IR Inten    --     14.7756                 3.0090                 0.8312

 - Thermochemistry -
 -------------------
 Temperature   298.150 Kelvin.  Pressure   1.00000 Atm.
 Atom     1 has atomic number  6 and mass  12.00000

 Molecular mass:   221.09867 amu.
 Principal axes and moments of inertia in atomic units:
                           1         2         3
     Eigenvalues --  1915.288624980.017155645.58520
           X            0.99999  -0.00381  -0.00138
           Y            0.00380   0.99997  -0.00640
           Z            0.00141   0.00639   0.99998
 This molecule is an asymmetric top.
 Rotational symmetry number  1.
 Warning -- assumption of classical behavior for rotation
           may cause significant error
 Rotational temperatures (Kelvin)      0.04522     0.01739     0.01534
 Rotational constants (GHZ):           0.94228     0.36240     0.31967
 Zero-point vibrational energy     657262.6 (Joules/Mol)
                                  157.08954 (Kcal/Mol)
 Warning -- explicit consideration of  22 degrees of freedom as
           vibrations may cause significant error
 Vibrational temperatures:     18.30    52.75    99.90   145.97   179.77
          (Kelvin)            246.92   260.01   269.39   347.48   361.93
                              393.90   437.59   490.04   522.29   562.37
                              613.23   634.92   649.73   706.85   740.52
                              796.10   854.11   900.13   948.81  1005.75
                             1101.27  1114.75  1160.50  1175.01  1241.27
                             1273.02  1287.40  1319.95  1345.78  1376.91
                             1385.35  1414.54  1427.17  1476.74  1492.37
                             1545.12  1593.42  1631.61  1653.06  1686.29
                             1719.73  1751.14  1801.01  1841.13  1871.59
                             1928.52  1950.77  1964.75  2023.67  2043.12
                             2052.72  2077.74  2095.00  2135.56  2157.18
                             2176.52  2186.26  2191.64  2207.14  2209.35
                             2241.23  2272.30  2409.93  2438.35  4304.29
                             4347.47  4367.65  4399.35  4465.50  4468.73
                             4492.97  4521.98  4531.72  4588.08  4605.54
                             4626.38  4637.10  4963.85  5093.80

 Zero-point correction=                           0.250338 (Hartree/Particle)
 Thermal correction to Energy=                    0.264948
 Thermal correction to Enthalpy=                  0.265892
 Thermal correction to Gibbs Free Energy=         0.207206
 Sum of electronic and zero-point Energies=           -990.420831
 Sum of electronic and thermal Energies=              -990.406221
 Sum of electronic and thermal Enthalpies=            -990.405277
 Sum of electronic and thermal Free Energies=         -990.463963

                     E (Thermal)             CV                S
                      KCal/Mol        Cal/Mol-Kelvin    Cal/Mol-Kelvin
 Total                  166.257             55.677            123.515
 Electronic               0.000              0.000              0.000
 Translational            0.889              2.981             42.083
 Rotational               0.889              2.981             32.354
 Vibrational            164.480             49.715             49.078
 Vibration     1          0.593              1.987              7.533
 Vibration     2          0.594              1.982              5.432
 Vibration     3          0.598              1.969              4.169
 Vibration     4          0.604              1.948              3.426
 Vibration     5          0.610              1.928              3.022
 Vibration     6          0.626              1.877              2.418
 Vibration     7          0.630              1.866              2.321
 Vibration     8          0.632              1.857              2.255
 Vibration     9          0.658              1.777              1.792
 Vibration    10          0.664              1.760              1.720
 Vibration    11          0.676              1.722              1.572
 Vibration    12          0.695              1.666              1.394
 Vibration    13          0.720              1.594              1.209
 Vibration    14          0.737              1.548              1.109
 Vibration    15          0.759              1.490              0.997
 Vibration    16          0.788              1.413              0.871
 Vibration    17          0.801              1.380              0.823
 Vibration    18          0.810              1.357              0.791
 Vibration    19          0.847              1.269              0.680
 Vibration    20          0.870              1.217              0.622
 Vibration    21          0.909              1.132              0.537
 Vibration    22          0.951              1.045              0.461

                           ! Non-Optimized Parameters !
 Normal termination of Gaussian 16 at Thu Dec 10 17:48:27 2020.

 ----------------------------------------------------------------------
 # B3LYP/6-311++G(d,p) empiricaldispersion=gd3bj scf=xqc pop=npa geom=c
 heck
 ----------------------------------------------------------------------

 --------------------------------------
 CID_66353859_JID_5944_Energie_neutraal
 --------------------------------------
 Structure from the checkpoint file:  "JID_5944.chk"
 Charge =  0 Multiplicity = 1

 SCF Done:  E(RB3LYP) =  -990.860449633     A.U. after   16 cycles
 Normal termination of Gaussian 16 at Thu Dec 10 17:54:32 2020.

 ----------------------------------------------------------------------
 # B3LYP/6-311++G(d,p) empiricaldispersion=gd3bj scf=xqc pop=npa geom=c
 heck
 ----------------------------------------------------------------------

 ------------------------------------
 CID_66353859_JID_5944_Energie_kation
 ------------------------------------
 Structure from the checkpoint file:  "JID_5944.chk"
 Charge =  1 Multiplicity = 2

 SCF Done:  E(UB3LYP) =  -990.585076476     A.U. after   26 cycles
 Normal termination of Gaussian 16 at Thu Dec 10 18:06:52 2020.
 Gaussian 16:  ES64L-G16RevA.03 25-Dec-2016

 ----------------------------------------------------------------------
 # B3LYP/6-311++G(d,p) empiricaldispersion=gd3bj scf=xqc pop=npa geom=c
 heck
 ----------------------------------------------------------------------

 -----------------------------------
 CID_66353859_JID_5944_Energie_anion
 -----------------------------------
 Structure from the checkpoint file:  "JID_5944.chk"
 Charge = -1 Multiplicity = 2

                         Standard orientation:
 ---------------------------------------------------------------------
 Center     Atomic      Atomic             Coordinates (Angstroms)
 Number     Number       Type             X           Y           Z
 ---------------------------------------------------------------------
      1          6           0       -2.555456    0.021580   -2.005564
      2          6           0       -3.017984   -0.855359   -0.841416
      3          6           0       -1.834841   -1.231120    0.077984
      4          7           0       -1.288693   -0.059238    0.779147
      5          6           0       -1.613455    0.050191    2.201643
      6          6           0       -0.029870    0.405676    0.401694
      7          6           0        1.174759   -0.266019    0.176327
      8          6           0        1.504328   -1.647794    0.320340
      9          6           0        2.783456   -2.058921    0.053958
     10          6           0        3.790571   -1.130253   -0.362344
     11          6           0        3.521511    0.205389   -0.493871
     12          6           0        2.201247    0.676892   -0.219019
     13          7           0        1.855824    1.969736   -0.278120
     14         16           0        0.237943    2.092348    0.095382
     15          7           0       -4.126972   -0.183008   -0.156969
     16          1           0       -2.151993    0.970531   -1.634820
     17          1           0       -3.397413    0.243380   -2.666796
     18          1           0       -1.767331   -0.471716   -2.584897
     19          1           0       -3.413603   -1.797331   -1.247702
     20          1           0       -2.162812   -1.970134    0.822462
     21          1           0       -1.052257   -1.705789   -0.521770
     22          1           0       -1.114609   -0.723520    2.808618
     23          1           0       -1.303931    1.030530    2.572085
     24          1           0       -2.694309   -0.042630    2.337160
     25          1           0        0.752214   -2.355861    0.652344
     26          1           0        3.048656   -3.106199    0.165671
     27          1           0        4.790181   -1.502045   -0.568998
     28          1           0        4.277812    0.921252   -0.798204
     29          1           0       -4.471799   -0.759194    0.610380
     30          1           0       -3.772609    0.677158    0.261554
 ---------------------------------------------------------------------

 SCF Done:  E(UB3LYP) =  -990.878941956     A.U. after   24 cycles

 The electronic state is 2-A.
 Alpha  occ. eigenvalues --  -88.72251 -14.19885 -14.19526 -14.14550 -10.09642
 Alpha  occ. eigenvalues --  -10.08591 -10.08458 -10.05796 -10.04974 -10.04916
 Alpha  occ. eigenvalues --  -10.02779 -10.02011 -10.01965 -10.01871 -10.01106
 Alpha  occ. eigenvalues --   -7.80775  -5.77134  -5.76675  -5.76409  -0.82427
 Alpha  occ. eigenvalues --   -0.79253  -0.77870  -0.68634  -0.64769  -0.63212
 Alpha  occ. eigenvalues --   -0.59265  -0.58231  -0.58130  -0.53485  -0.47963
 Alpha  occ. eigenvalues --   -0.46774  -0.43192  -0.42424  -0.39842  -0.37809
 Alpha  occ. eigenvalues --   -0.35673  -0.35118  -0.33362  -0.32056  -0.31409
 Alpha  occ. eigenvalues --   -0.31060  -0.30664  -0.28375  -0.27816  -0.27341
 Alpha  occ. eigenvalues --   -0.26688  -0.25863  -0.24173  -0.23851  -0.21898
 Alpha  occ. eigenvalues --   -0.21309  -0.19084  -0.19054  -0.15506  -0.14908
 Alpha  occ. eigenvalues --   -0.13316  -0.10044  -0.09880  -0.06606   0.03865
 Alpha virt. eigenvalues --    0.06856   0.08510   0.09212   0.09643   0.10247
 Alpha virt. eigenvalues --    0.11163   0.11697   0.12136   0.12256   0.13022
 Alpha virt. eigenvalues --    0.13393   0.13914   0.14535   0.15094   0.15591

  Beta  occ. eigenvalues --  -88.72151 -14.19906 -14.19520 -14.14142 -10.09640
  Beta  occ. eigenvalues --  -10.08574 -10.08411 -10.05315 -10.04983 -10.04970
  Beta  occ. eigenvalues --  -10.02892 -10.01936 -10.01892 -10.01643 -10.00884
  Beta  occ. eigenvalues --   -7.80686  -5.77089  -5.76632  -5.76080  -0.82200
  Beta  occ. eigenvalues --   -0.78983  -0.77669  -0.68256  -0.64688  -0.62730
  Beta  occ. eigenvalues --   -0.59193  -0.57901  -0.57763  -0.53295  -0.47859
  Beta  occ. eigenvalues --   -0.46216  -0.42940  -0.42218  -0.39795  -0.37666
  Beta  occ. eigenvalues --   -0.35601  -0.34917  -0.33254  -0.31875  -0.31180
  Beta  occ. eigenvalues --   -0.30956  -0.30580  -0.28241  -0.27695  -0.27235
  Beta  occ. eigenvalues --   -0.26632  -0.25105  -0.24119  -0.23760  -0.21730
  Beta  occ. eigenvalues --   -0.21052  -0.18636  -0.17783  -0.15237  -0.14120
  Beta  occ. eigenvalues --   -0.12593  -0.09501  -0.08959  -0.04627
  Beta virt. eigenvalues --    0.06751   0.08454   0.09109   0.09457   0.09800
  Beta virt. eigenvalues --    0.10178   0.11108   0.11597   0.12096   0.12231
  Beta virt. eigenvalues --    0.12979   0.13387   0.13904   0.14748   0.15151

 Mulliken charges and spin densities:
               1          2
     1  C   -0.480717  -0.006264
     2  C   -0.009612  -0.149371
     3  C   -0.479470   0.068067
     4  N    0.313063  -0.013251
     5  C   -0.148900  -0.039720
     6  C    0.178206   0.257074
     7  C    0.678685  -0.020664
     8  C   -0.410351   0.156943
     9  C   -0.465117   0.073500
    10  C   -0.201505   0.074405
    11  C   -0.679616   0.125255
    12  C   -0.835368  -0.065189
    13  N   -0.168404   0.166565
    14  S    0.169046   0.227376
    15  N   -0.329105   0.003363
    16  H    0.107563   0.037955
    17  H    0.131622   0.022271
    18  H    0.125441   0.001210
    19  H    0.120845   0.021815
    20  H    0.144501  -0.003952
    21  H    0.105234   0.013879
    22  H    0.085321   0.027732
    23  H    0.129561  -0.011813
    24  H    0.096372   0.022364
    25  H    0.093661  -0.017711
    26  H    0.103507  -0.002896
    27  H    0.095881  -0.005470
    28  H    0.124608  -0.013968
    29  H    0.177000   0.035073
    30  H    0.228046   0.015421
 Sum of Mulliken charges =  -1.00000   1.00000

 Dipole moment (field-independent basis, Debye):
    X=             -5.3337    Y=             -3.2722    Z=              1.5825  Tot=              6.4545
 Quadrupole moment (field-independent basis, Debye-Ang):
   XX=           -144.0812   YY=           -119.9380   ZZ=           -110.0000
   XY=              0.2995   XZ=             -4.6791   YZ=              1.1625

 Summary of Natural Population Analysis:

                                       Natural Population
                Natural  -----------------------------------------------
    Atom  No    Charge         Core      Valence    Rydberg      Total
 -----------------------------------------------------------------------
      C    1   -0.29230      0.99965     2.28667    0.00599     3.29230
      C    2   -0.01783      0.99962     2.00593    0.01228     3.01783
      C    3   -0.08242      0.99959     2.07179    0.01104     3.08242
      N    4   -0.29648      0.99964     2.78064    0.01619     3.79648
      C    5   -0.16150      0.99964     2.15523    0.00663     3.16150
      C    6    0.08015      0.99943     1.90319    0.01722     2.91985
      C    7   -0.10408      0.99942     2.09481    0.00985     3.10408
      C    8   -0.06297      0.99953     2.05528    0.00815     3.06297
      C    9   -0.10871      0.99958     2.09939    0.00974     3.10871
      C   10   -0.10221      0.99958     2.09279    0.00984     3.10221
      C   11   -0.06687      0.99952     2.05752    0.00984     3.06687
      C   12    0.06696      0.99952     1.91939    0.01413     2.93304
      N   13   -0.28633      0.99972     2.76994    0.01668     3.78633
      S   14    0.32375      4.99938     2.64836    0.02852     7.67625
      N   15   -0.42495      0.99977     2.91583    0.00935     3.92495
      H   16    0.10754      0.00000     0.39061    0.00186     0.39246
      H   17    0.09692      0.00000     0.40202    0.00106     0.40308
      H   18    0.10032      0.00000     0.39880    0.00088     0.39968
      H   19    0.08252      0.00000     0.41602    0.00146     0.41748
      H   20    0.08296      0.00000     0.41532    0.00172     0.41704
      H   21    0.10439      0.00000     0.39361    0.00200     0.39561
      H   22    0.07951      0.00000     0.41842    0.00207     0.42049
      H   23    0.10029      0.00000     0.39858    0.00113     0.39971
      H   24    0.08239      0.00000     0.41543    0.00218     0.41761
      H   25    0.08789      0.00000     0.41052    0.00159     0.41211
      H   26    0.08730      0.00000     0.41168    0.00103     0.41270
      H   27    0.08709      0.00000     0.41185    0.00106     0.41291
      H   28    0.09286      0.00000     0.40558    0.00156     0.40714
      H   29    0.16824      0.00000     0.32995    0.00181     0.33176
      H   30    0.17558      0.00000     0.32233    0.00210     0.32442
 =======================================================================
   * Total *   -0.00000     18.99358    39.79748    0.20894    59.00000

 Normal termination of Gaussian 16 at Thu Dec 10 18:17:20 2020.
