 Gaussian 16, Revision A.03,

 -----------------------------------------------------------
 # opt freq B3LYP/6-31G(d) empiricaldispersion=gd3bj scf=xqc
 -----------------------------------------------------------

 -------------------------------
 CID_134574471_JID_2340_neutraal
 -------------------------------
 Symbolic Z-matrix:
 Charge =  0 Multiplicity = 1

 SCF Done:  E(RB3LYP) =  -933.202687212     A.U. after   14 cycles
 SCF Done:  E(RB3LYP) =  -933.213502805     A.U. after   13 cycles
 SCF Done:  E(RB3LYP) =  -933.214578277     A.U. after   12 cycles
 SCF Done:  E(RB3LYP) =  -933.215845990     A.U. after   11 cycles
 SCF Done:  E(RB3LYP) =  -933.216168074     A.U. after   11 cycles
 SCF Done:  E(RB3LYP) =  -933.216351671     A.U. after   11 cycles
 SCF Done:  E(RB3LYP) =  -933.216403394     A.U. after   11 cycles
 SCF Done:  E(RB3LYP) =  -933.216439966     A.U. after   11 cycles
 SCF Done:  E(RB3LYP) =  -933.216448748     A.U. after   10 cycles
 SCF Done:  E(RB3LYP) =  -933.216449995     A.U. after    8 cycles
 SCF Done:  E(RB3LYP) =  -933.216450109     A.U. after    7 cycles
 SCF Done:  E(RB3LYP) =  -933.216450168     A.U. after    7 cycles
 Optimization completed.
    -- Stationary point found.
 Normal termination of Gaussian 16 at Wed Dec  9 17:08:49 2020.

 --------------------------------------------------------------------
 #N Geom=AllCheck Guess=TCheck SCRF=Check GenChk RB3LYP/6-31G(d) Freq
 --------------------------------------------------------------------

 Structure from the checkpoint file:  "JID_2340.chk"
 -------------------------------
 CID_134574471_JID_2340_neutraal
 -------------------------------
 Charge =  0 Multiplicity = 1

 SCF Done:  E(RB3LYP) =  -933.216450168     A.U. after    1 cycles

  Exact polarizability: 110.219   2.480 107.919   0.306   1.776  94.458
 Approx polarizability: 143.576   2.694 151.342   2.141   4.725 154.197

                      1                      2                      3
                      A                      A                      A
 Frequencies --     39.3493                53.3729                56.6580
 Red. masses --      2.7773                 3.1134                 3.3671
 Frc consts  --      0.0025                 0.0052                 0.0064
 IR Inten    --      0.4375                 1.2777                 0.1565

                      4                      5                      6
                      A                      A                      A
 Frequencies --    113.2678               152.5918               177.3300
 Red. masses --      3.9926                 3.4282                 3.0605
 Frc consts  --      0.0302                 0.0470                 0.0567
 IR Inten    --      2.1490                 1.5854                 1.9337

                      7                      8                      9
                      A                      A                      A
 Frequencies --    211.4966               236.8341               300.6146
 Red. masses --      3.4559                 1.2309                 4.9187
 Frc consts  --      0.0911                 0.0407                 0.2619
 IR Inten    --      2.4815                 0.9223                 6.1167

                     10                     11                     12
                      A                      A                      A
 Frequencies --    308.7270               323.5158               342.3139
 Red. masses --      6.3616                 3.3630                 2.7047
 Frc consts  --      0.3572                 0.2074                 0.1867
 IR Inten    --      2.6556                 0.7246                10.0989

                     13                     14                     15
                      A                      A                      A
 Frequencies --    352.4460               416.7182               464.5428
 Red. masses --      2.7754                 2.5678                 3.0751
 Frc consts  --      0.2031                 0.2627                 0.3910
 IR Inten    --      2.1048                 4.5005                19.8432

                     16                     17                     18
                      A                      A                      A
 Frequencies --    467.8858               517.9984               619.9343
 Red. masses --      3.9187                 3.5882                 5.0577
 Frc consts  --      0.5054                 0.5673                 1.1452
 IR Inten    --      3.5168                19.8876                73.6659

                     19                     20                     21
                      A                      A                      A
 Frequencies --    631.2021               738.2093               780.3514
 Red. masses --      2.6812                 3.2883                 1.1851
 Frc consts  --      0.6294                 1.0558                 0.4252
 IR Inten    --    101.1186                 1.1054                 2.6126

                     22                     23                     24
                      A                      A                      A
 Frequencies --    837.6311               848.8924               872.3525
 Red. masses --      1.5089                 1.6084                 2.7442
 Frc consts  --      0.6238                 0.6829                 1.2304
 IR Inten    --     22.7288                 3.8712                28.1997

                     25                     26                     27
                      A                      A                      A
 Frequencies --    909.2033               920.2000               984.0677
 Red. masses --      1.2183                 4.1613                 2.9999
 Frc consts  --      0.5934                 2.0761                 1.7116
 IR Inten    --      1.8236                55.6424                34.3949

                     28                     29                     30
                      A                      A                      A
 Frequencies --    998.4171              1019.3558              1029.1278
 Red. masses --      2.4928                 2.2632                 2.4421
 Frc consts  --      1.4641                 1.3855                 1.5239
 IR Inten    --     13.1225                 1.8258                11.9669

                     31                     32                     33
                      A                      A                      A
 Frequencies --   1040.8937              1066.4757              1090.2682
 Red. masses --      2.9509                 1.3339                 1.3945
 Frc consts  --      1.8837                 0.8939                 0.9766
 IR Inten    --      1.3291                13.9461                 5.4410

                     34                     35                     36
                      A                      A                      A
 Frequencies --   1092.6986              1113.0666              1142.1535
 Red. masses --      1.6955                 5.5564                 1.1308
 Frc consts  --      1.1927                 4.0559                 0.8691
 IR Inten    --      4.1708               166.3093                 4.8711

                     37                     38                     39
                      A                      A                      A
 Frequencies --   1144.1750              1156.0434              1196.9118
 Red. masses --      1.1716                 1.3983                 1.8013
 Frc consts  --      0.9037                 1.1010                 1.5204
 IR Inten    --      8.5255                14.3597                23.5197

                     40                     41                     42
                      A                      A                      A
 Frequencies --   1201.9334              1210.8036              1239.6309
 Red. masses --      2.1289                 1.3567                 1.9264
 Frc consts  --      1.8121                 1.1719                 1.7442
 IR Inten    --     15.4295                 0.5337                 7.5663

                     43                     44                     45
                      A                      A                      A
 Frequencies --   1243.4929              1258.8078              1259.6387
 Red. masses --      1.9858                 1.7007                 1.5010
 Frc consts  --      1.8091                 1.5878                 1.4032
 IR Inten    --     22.6166                 3.8702                 9.9614

                     46                     47                     48
                      A                      A                      A
 Frequencies --   1313.1590              1318.9973              1323.4084
 Red. masses --      3.0137                 1.5752                 2.2582
 Frc consts  --      3.0618                 1.6146                 2.3302
 IR Inten    --     85.5637                 6.5540                51.3570

                     49                     50                     51
                      A                      A                      A
 Frequencies --   1371.0343              1414.0255              1422.2577
 Red. masses --      1.5612                 1.4638                 1.2872
 Frc consts  --      1.7290                 1.7245                 1.5341
 IR Inten    --     11.0069                68.0762                 3.0303

                     52                     53                     54
                      A                      A                      A
 Frequencies --   1474.5276              1484.9017              1514.2562
 Red. masses --      1.1761                 1.0922                 1.0533
 Frc consts  --      1.5066                 1.4188                 1.4230
 IR Inten    --      2.4510                 1.6621                14.8976

                     55                     56                     57
                      A                      A                      A
 Frequencies --   1526.6878              1527.8574              1529.8725
 Red. masses --      1.0598                 1.1623                 1.2485
 Frc consts  --      1.4554                 1.5985                 1.7217
 IR Inten    --      2.4947                 0.8748                 3.2493

                     58                     59                     60
                      A                      A                      A
 Frequencies --   1554.9578              2940.0908              3024.5392
 Red. masses --      1.1143                 1.0603                 1.0643
 Frc consts  --      1.5873                 5.4000                 5.7362
 IR Inten    --      4.6211                81.9785                33.8006

                     61                     62                     63
                      A                      A                      A
 Frequencies --   3048.4491              3079.7882              3106.6209
 Red. masses --      1.0616                 1.0712                 1.1009
 Frc consts  --      5.8126                 5.9862                 6.2600
 IR Inten    --     26.7315                45.9013                36.3652

                     64                     65                     66
                      A                      A                      A
 Frequencies --   3108.0424              3122.9483              3135.3604
 Red. masses --      1.1007                 1.1044                 1.0883
 Frc consts  --      6.2649                 6.3459                 6.3034
 IR Inten    --     35.5415                18.1356                 6.8762

                     67                     68                     69
                      A                      A                      A
 Frequencies --   3155.9950              3161.8875              3176.3651
 Red. masses --      1.0524                 1.0564                 1.0898
 Frc consts  --      6.1758                 6.2228                 6.4782
 IR Inten    --     12.0701                 5.8145                 8.3764

                     70                     71                     72
                      A                      A                      A
 Frequencies --   3235.7692              3251.1600              3514.3220
 Red. masses --      1.1199                 1.1166                 1.0751
 Frc consts  --      6.9085                 6.9539                 7.8235
 IR Inten    --      1.2534                15.0629                28.6283

 - Thermochemistry -
 -------------------
 Temperature   298.150 Kelvin.  Pressure   1.00000 Atm.
 Atom     1 has atomic number  6 and mass  12.00000

 Molecular mass:   190.07760 amu.
 Principal axes and moments of inertia in atomic units:
                           1         2         3
     Eigenvalues --  1888.995542430.027433552.91637
           X            0.99926   0.03843   0.00076
           Y           -0.03843   0.99926  -0.00120
           Z           -0.00081   0.00117   1.00000
 This molecule is an asymmetric top.
 Rotational symmetry number  1.
 Warning -- assumption of classical behavior for rotation
           may cause significant error
 Rotational temperatures (Kelvin)      0.04585     0.03564     0.02438
 Rotational constants (GHZ):           0.95540     0.74268     0.50796
 Zero-point vibrational energy     574320.5 (Joules/Mol)
                                  137.26588 (Kcal/Mol)
 Warning -- explicit consideration of  18 degrees of freedom as
           vibrations may cause significant error
 Vibrational temperatures:     56.61    76.79    81.52   162.97   219.55
          (Kelvin)            255.14   304.30   340.75   432.52   444.19
                              465.47   492.51   507.09   599.56   668.37
                              673.18   745.28   891.95   908.16  1062.12
                             1122.75  1205.16  1221.37  1255.12  1308.14
                             1323.96  1415.85  1436.50  1466.63  1480.69
                             1497.61  1534.42  1568.65  1572.15  1601.45
                             1643.30  1646.21  1663.29  1722.09  1729.31
                             1742.08  1783.55  1789.11  1811.14  1812.34
                             1889.34  1897.74  1904.09  1972.61  2034.47
                             2046.31  2121.52  2136.44  2178.68  2196.56
                             2198.25  2201.15  2237.24  4230.13  4351.64
                             4386.04  4431.13  4469.73  4471.78  4493.23
                             4511.08  4540.77  4549.25  4570.08  4655.55
                             4677.69  5056.33

 Zero-point correction=                           0.218747 (Hartree/Particle)
 Thermal correction to Energy=                    0.231335
 Thermal correction to Enthalpy=                  0.232279
 Thermal correction to Gibbs Free Energy=         0.178944
 Sum of electronic and zero-point Energies=           -932.997703
 Sum of electronic and thermal Energies=              -932.985115
 Sum of electronic and thermal Enthalpies=            -932.984171
 Sum of electronic and thermal Free Energies=         -933.037506

                     E (Thermal)             CV                S
                      KCal/Mol        Cal/Mol-Kelvin    Cal/Mol-Kelvin
 Total                  145.165             46.913            112.254
 Electronic               0.000              0.000              0.000
 Translational            0.889              2.981             41.632
 Rotational               0.889              2.981             31.167
 Vibrational            143.388             40.952             39.454
 Vibration     1          0.594              1.981              5.292
 Vibration     2          0.596              1.976              4.688
 Vibration     3          0.596              1.975              4.570
 Vibration     4          0.607              1.938              3.212
 Vibration     5          0.619              1.900              2.640
 Vibration     6          0.628              1.870              2.356
 Vibration     7          0.643              1.823              2.031
 Vibration     8          0.656              1.784              1.827
 Vibration     9          0.693              1.673              1.413
 Vibration    10          0.698              1.657              1.369
 Vibration    11          0.708              1.628              1.292
 Vibration    12          0.721              1.591              1.201
 Vibration    13          0.729              1.570              1.155
 Vibration    14          0.780              1.434              0.903
 Vibration    15          0.822              1.329              0.753
 Vibration    16          0.825              1.321              0.743
 Vibration    17          0.873              1.210              0.615
 Vibration    18          0.980              0.990              0.417

 Optimization completed.
    -- Stationary point found.
 Normal termination of Gaussian 16 at Wed Dec  9 17:14:49 2020.

 ----------------------------------------------------------------------
 # B3LYP/6-311++G(d,p) empiricaldispersion=gd3bj scf=xqc pop=npa geom=c
 heck
 ----------------------------------------------------------------------

 ---------------------------------------
 CID_134574471_JID_2340_Energie_neutraal
 ---------------------------------------
 Structure from the checkpoint file:  "JID_2340.chk"
 Charge =  0 Multiplicity = 1

 SCF Done:  E(RB3LYP) =  -933.399122071     A.U. after   15 cycles
 Normal termination of Gaussian 16 at Wed Dec  9 17:17:17 2020.

 ----------------------------------------------------------------------
 # B3LYP/6-311++G(d,p) empiricaldispersion=gd3bj scf=xqc pop=npa geom=c
 heck
 ----------------------------------------------------------------------

 -------------------------------------
 CID_134574471_JID_2340_Energie_kation
 -------------------------------------
 Structure from the checkpoint file:  "JID_2340.chk"
 Charge =  1 Multiplicity = 2

 SCF Done:  E(UB3LYP) =  -933.084063594     A.U. after   20 cycles
 Normal termination of Gaussian 16 at Wed Dec  9 17:21:37 2020.
 Gaussian 16:  ES64L-G16RevA.03 25-Dec-2016

 ----------------------------------------------------------------------
 # B3LYP/6-311++G(d,p) empiricaldispersion=gd3bj scf=xqc pop=npa geom=c
 heck
 ----------------------------------------------------------------------

 ------------------------------------
 CID_134574471_JID_2340_Energie_anion
 ------------------------------------
 Structure from the checkpoint file:  "JID_2340.chk"
 Charge = -1 Multiplicity = 2

                         Standard orientation:
 ---------------------------------------------------------------------
 Center     Atomic      Atomic             Coordinates (Angstroms)
 Number     Number       Type             X           Y           Z
 ---------------------------------------------------------------------
      1          6           0       -2.867611    1.827666   -0.257646
      2          7           0       -2.636127    0.443449    0.096963
      3          6           0       -1.955142   -0.415225   -0.897550
      4          6           0       -1.163042   -1.051110    0.261609
      5          6           0       -1.599300    0.156725    1.112227
      6         16           0        0.591653   -1.367453    0.041336
      7          8           0        1.178911   -1.506505    1.378433
      8          8           0        0.719830   -2.421377   -0.972965
      9          7           0        1.203112    0.037590   -0.705162
     10          6           0        2.028718    0.922417    0.093153
     11          6           0        2.476353    2.190102   -0.581366
     12          6           0        1.459296    2.246071    0.531576
     13          1           0       -3.280926    2.362556    0.604318
     14          1           0       -3.599831    1.880499   -1.070703
     15          1           0       -1.949729    2.353549   -0.586019
     16          1           0       -2.613879   -1.073465   -1.471898
     17          1           0       -1.297240    0.141427   -1.581104
     18          1           0       -1.564283   -2.005686    0.608470
     19          1           0       -0.817273    0.925227    1.179788
     20          1           0       -1.978023   -0.057588    2.116168
     21          1           0        1.671071   -0.287091   -1.549884
     22          1           0        2.728430    0.434632    0.766608
     23          1           0        3.489431    2.532071   -0.393233
     24          1           0        2.116081    2.372432   -1.589657
     25          1           0        0.436195    2.466083    0.245660
     26          1           0        1.759074    2.630493    1.501733
 ---------------------------------------------------------------------

 SCF Done:  E(UB3LYP) =  -933.385519355     A.U. after   28 cycles

 The electronic state is 2-A.
 Alpha  occ. eigenvalues --  -88.96949 -19.02874 -19.02739 -14.25451 -14.21669
 Alpha  occ. eigenvalues --  -10.12667 -10.12487 -10.11541 -10.11336 -10.08836
 Alpha  occ. eigenvalues --  -10.08436 -10.08169  -8.03208  -5.99496  -5.99454
 Alpha  occ. eigenvalues --   -5.99260  -1.02872  -0.92030  -0.86261  -0.84466
 Alpha  occ. eigenvalues --   -0.75323  -0.69777  -0.60791  -0.60015  -0.53959
 Alpha  occ. eigenvalues --   -0.51895  -0.50167  -0.47706  -0.44286  -0.42545
 Alpha  occ. eigenvalues --   -0.41726  -0.40540  -0.39332  -0.37200  -0.35553
 Alpha  occ. eigenvalues --   -0.34437  -0.32696  -0.32134  -0.31748  -0.28101
 Alpha  occ. eigenvalues --   -0.27920  -0.26644  -0.25551  -0.25297  -0.24403
 Alpha  occ. eigenvalues --   -0.23249  -0.22326  -0.21809  -0.20423  -0.17990
 Alpha  occ. eigenvalues --   -0.13310   0.04457
 Alpha virt. eigenvalues --    0.06459   0.07295   0.07541   0.08604   0.09444
 Alpha virt. eigenvalues --    0.09513   0.10553   0.10665   0.11928   0.12501
 Alpha virt. eigenvalues --    0.12828   0.13137   0.13748   0.14432   0.14723

  Beta  occ. eigenvalues --  -88.96946 -19.02867 -19.02733 -14.25427 -14.21663
  Beta  occ. eigenvalues --  -10.12660 -10.12481 -10.11529 -10.11317 -10.08785
  Beta  occ. eigenvalues --  -10.08390 -10.08144  -8.03204  -5.99491  -5.99451
  Beta  occ. eigenvalues --   -5.99256  -1.02856  -0.92015  -0.86244  -0.84439
  Beta  occ. eigenvalues --   -0.75291  -0.69751  -0.60746  -0.59979  -0.53911
  Beta  occ. eigenvalues --   -0.51794  -0.50104  -0.47651  -0.44254  -0.42499
  Beta  occ. eigenvalues --   -0.41695  -0.40492  -0.39269  -0.37179  -0.35531
  Beta  occ. eigenvalues --   -0.34395  -0.32663  -0.32092  -0.31723  -0.28068
  Beta  occ. eigenvalues --   -0.27879  -0.26612  -0.25522  -0.25260  -0.24374
  Beta  occ. eigenvalues --   -0.23223  -0.22299  -0.21795  -0.20391  -0.17954
  Beta  occ. eigenvalues --   -0.13273
  Beta virt. eigenvalues --    0.06854   0.07489   0.08040   0.08178   0.09372
  Beta virt. eigenvalues --    0.09871   0.10050   0.10947   0.11304   0.12457
  Beta virt. eigenvalues --    0.12667   0.13241   0.13609   0.13953   0.14521

 Mulliken charges and spin densities:
               1          2
     1  C    1.291645  -1.648430
     2  N   -0.315139   0.225495
     3  C    0.587038  -0.991685
     4  C   -0.923677   0.760781
     5  C    0.184394  -0.479056
     6  S    0.592322  -0.218145
     7  O   -0.190488   0.020665
     8  O   -0.211501  -0.004337
     9  N   -0.238808  -0.039157
    10  C   -1.454576   1.156012
    11  C    1.395474  -1.804850
    12  C    0.005253  -0.258993
    13  H   -0.482932   0.636537
    14  H   -0.552814   0.704863
    15  H   -0.429686   0.543982
    16  H   -0.096028   0.296504
    17  H    0.074211   0.100232
    18  H    0.153019   0.115109
    19  H   -0.201817   0.297083
    20  H   -0.175853   0.380633
    21  H    0.132803   0.204918
    22  H    0.198228   0.053153
    23  H   -0.311357   0.474125
    24  H   -0.466662   0.619851
    25  H    0.795857  -0.669022
    26  H   -0.358905   0.523732
 Sum of Mulliken charges =  -1.00000   1.00000

 Dipole moment (field-independent basis, Debye):
    X=              1.2459    Y=             -4.8679    Z=              1.3070  Tot=              5.1920
 Quadrupole moment (field-independent basis, Debye-Ang):
   XX=           -143.5004   YY=           -136.7139   ZZ=           -118.5976
   XY=              4.8274   XZ=             -2.5127   YZ=              2.6297

 Summary of Natural Population Analysis:

                                       Natural Population
                Natural  -----------------------------------------------
    Atom  No    Charge         Core      Valence    Rydberg      Total
 -----------------------------------------------------------------------
      C    1   -0.17615      0.99964     2.16779    0.00871     3.17615
      N    2   -0.27899      0.99973     2.76420    0.01505     3.77899
      C    3   -0.07760      0.99961     2.06659    0.01140     3.07760
      C    4   -0.21717      0.99950     2.20294    0.01473     3.21717
      C    5   -0.07877      0.99961     2.06783    0.01133     3.07877
      S    6    1.09865      4.99924     1.80316    0.09896     6.90135
      O    7   -0.46301      0.99991     3.45793    0.00517     4.46301
      O    8   -0.46889      0.99991     3.46366    0.00532     4.46889
      N    9   -0.43355      0.99973     2.92036    0.01346     3.93355
      C   10   -0.03232      0.99956     2.01887    0.01389     3.03232
      C   11   -0.19417      0.99962     2.18433    0.01021     3.19417
      C   12   -0.20010      0.99961     2.19020    0.01028     3.20010
      H   13    0.09829      0.00000     0.39984    0.00187     0.40171
      H   14    0.09902      0.00000     0.39888    0.00210     0.40098
      H   15    0.08277      0.00000     0.41481    0.00242     0.41723
      H   16    0.09654      0.00000     0.40203    0.00143     0.40346
      H   17    0.09833      0.00000     0.39966    0.00201     0.40167
      H   18    0.11972      0.00000     0.37920    0.00108     0.38028
      H   19    0.09520      0.00000     0.40274    0.00206     0.40480
      H   20    0.09715      0.00000     0.40145    0.00140     0.40285
      H   21    0.19989      0.00000     0.29782    0.00229     0.30011
      H   22    0.10550      0.00000     0.39301    0.00149     0.39450
      H   23    0.10727      0.00000     0.39071    0.00202     0.39273
      H   24    0.10905      0.00000     0.38889    0.00206     0.39095
      H   25    0.10792      0.00000     0.39014    0.00195     0.39208
      H   26    0.10543      0.00000     0.39334    0.00123     0.39457
 =======================================================================
   * Total *   -0.00000     15.99568    34.76040    0.24392    51.00000

 Normal termination of Gaussian 16 at Wed Dec  9 17:27:57 2020.
