 Gaussian 16, Revision A.03,

 ----------------------------------------------------------------------
 # opt=(cartesian,calcfc) freq B3LYP/6-31G(d) empiricaldispersion=gd3bj
  scf=xqc
 ----------------------------------------------------------------------

 ------------------------------
 CID_79680630_JID_8958_neutraal
 ------------------------------
 Symbolic Z-matrix:
 Charge =  0 Multiplicity = 1

 SCF Done:  E(RB3LYP) =  -872.238344198     A.U. after   15 cycles
 SCF Done:  E(RB3LYP) =  -872.238497347     A.U. after   11 cycles
 SCF Done:  E(RB3LYP) =  -872.238566244     A.U. after   12 cycles
 SCF Done:  E(RB3LYP) =  -872.238527920     A.U. after   12 cycles
 SCF Done:  E(RB3LYP) =  -872.238554836     A.U. after   12 cycles
 SCF Done:  E(RB3LYP) =  -872.238582384     A.U. after    8 cycles
 SCF Done:  E(RB3LYP) =  -872.238585553     A.U. after   11 cycles
 SCF Done:  E(RB3LYP) =  -872.238605422     A.U. after   10 cycles
 SCF Done:  E(RB3LYP) =  -872.238618894     A.U. after   11 cycles
 SCF Done:  E(RB3LYP) =  -872.238628271     A.U. after   11 cycles
 SCF Done:  E(RB3LYP) =  -872.238695444     A.U. after    8 cycles
 SCF Done:  E(RB3LYP) =  -872.238695562     A.U. after    6 cycles
 SCF Done:  E(RB3LYP) =  -872.238695570     A.U. after    5 cycles
 SCF Done:  E(RB3LYP) =  -872.238695528     A.U. after    8 cycles
 SCF Done:  E(RB3LYP) =  -872.238695566     A.U. after    6 cycles
 Optimization completed.
    -- Stationary point found.
 Normal termination of Gaussian 16 at Mon Jan  4 10:56:47 2021.

 --------------------------------------------------------------------
 #N Geom=AllCheck Guess=TCheck SCRF=Check GenChk RB3LYP/6-31G(d) Freq
 --------------------------------------------------------------------

 Structure from the checkpoint file:  "JID_8958.chk"
 ------------------------------
 CID_79680630_JID_8958_neutraal
 ------------------------------
 Charge =  0 Multiplicity = 1

 SCF Done:  E(RB3LYP) =  -872.238695566     A.U. after    1 cycles

  Exact polarizability: 158.361  12.021 127.602  -5.608  11.731 139.815
 Approx polarizability: 212.203  19.289 200.508  -9.469  29.479 234.419

                      1                      2                      3
                      A                      A                      A
 Frequencies --     22.9493                30.1311                57.9454
 Red. masses --      6.8575                 6.7755                 5.7128
 Frc consts  --      0.0021                 0.0036                 0.0113
 IR Inten    --      0.7253                 3.5748                 3.0915

                      4                      5                      6
                      A                      A                      A
 Frequencies --     62.5160               105.4825               130.4395
 Red. masses --      5.2125                 5.3396                 5.6068
 Frc consts  --      0.0120                 0.0350                 0.0562
 IR Inten    --      0.5230                 1.2375                 3.7361

                      7                      8                      9
                      A                      A                      A
 Frequencies --    138.9328               140.3918               163.0608
 Red. masses --      6.1205                 4.8730                 5.7610
 Frc consts  --      0.0696                 0.0566                 0.0903
 IR Inten    --      3.4051                 2.4242                 1.2007

                     10                     11                     12
                      A                      A                      A
 Frequencies --    170.6477               247.7279               260.7257
 Red. masses --      4.4875                 4.5285                 3.5189
 Frc consts  --      0.0770                 0.1637                 0.1409
 IR Inten    --      1.3907                 1.7976                 3.6775

                     13                     14                     15
                      A                      A                      A
 Frequencies --    283.7821               323.6468               348.3331
 Red. masses --      3.0562                 1.9350                 1.9442
 Frc consts  --      0.1450                 0.1194                 0.1390
 IR Inten    --     12.8975                14.2442                 9.6654

                     16                     17                     18
                      A                      A                      A
 Frequencies --    359.1644               409.0102               423.4830
 Red. masses --      2.5678                 4.9224                 2.3746
 Frc consts  --      0.1952                 0.4852                 0.2509
 IR Inten    --      3.1775                 0.3378                 2.8549

                     19                     20                     21
                      A                      A                      A
 Frequencies --    434.1213               455.0536               477.5885
 Red. masses --      5.4523                 3.0098                 3.1769
 Frc consts  --      0.6054                 0.3672                 0.4269
 IR Inten    --      5.2345                 2.0737                14.7804

                     22                     23                     24
                      A                      A                      A
 Frequencies --    536.5008               554.8484               559.3677
 Red. masses --      5.5020                 4.4616                 2.8461
 Frc consts  --      0.9331                 0.8093                 0.5247
 IR Inten    --      3.3944                 3.7380                50.6051

                     25                     26                     27
                      A                      A                      A
 Frequencies --    592.1311               603.4536               625.1732
 Red. masses --      2.3150                 2.5336                 3.3497
 Frc consts  --      0.4782                 0.5436                 0.7714
 IR Inten    --     32.1772                19.2346                29.8421

                     28                     29                     30
                      A                      A                      A
 Frequencies --    657.5767               678.9883               747.9345
 Red. masses --      5.7313                 2.8334                 5.8954
 Frc consts  --      1.4601                 0.7696                 1.9431
 IR Inten    --      1.2833                68.2541                11.8811

                     31                     32                     33
                      A                      A                      A
 Frequencies --    764.0439               801.5187               818.3125
 Red. masses --      5.1129                 1.5892                 1.9972
 Frc consts  --      1.7586                 0.6015                 0.7880
 IR Inten    --     23.6955                27.0110                14.1558

                     34                     35                     36
                      A                      A                      A
 Frequencies --    855.4723               868.5564               895.2387
 Red. masses --      2.4816                 1.3973                 2.9396
 Frc consts  --      1.0700                 0.6211                 1.3881
 IR Inten    --      7.4531                 5.6350                 8.5349

                     37                     38                     39
                      A                      A                      A
 Frequencies --    911.1914               946.6187               967.4644
 Red. masses --      1.5638                 2.5661                 3.3351
 Frc consts  --      0.7650                 1.3548                 1.8392
 IR Inten    --    257.9249                 7.6373                12.5809

                     40                     41                     42
                      A                      A                      A
 Frequencies --    991.1139              1002.6644              1020.7030
 Red. masses --      3.4955                 4.6563                 2.8397
 Frc consts  --      2.0230                 2.7581                 1.7431
 IR Inten    --     13.4014                 9.5190                19.8135

                     43                     44                     45
                      A                      A                      A
 Frequencies --   1039.6840              1058.0019              1061.2435
 Red. masses --      4.0410                 2.2916                 1.4403
 Frc consts  --      2.5736                 1.5113                 0.9557
 IR Inten    --     25.9410                34.6517                25.6051

                     46                     47                     48
                      A                      A                      A
 Frequencies --   1111.5936              1123.6542              1157.9136
 Red. masses --      2.0034                 6.2080                 2.3026
 Frc consts  --      1.4585                 4.6182                 1.8190
 IR Inten    --     18.4200                98.2686                30.0673

                     49                     50                     51
                      A                      A                      A
 Frequencies --   1180.7298              1183.1343              1242.0080
 Red. masses --      2.2792                 3.4271                 3.6022
 Frc consts  --      1.8721                 2.8265                 3.2739
 IR Inten    --     10.0545                 7.4898                 4.6997

                     52                     53                     54
                      A                      A                      A
 Frequencies --   1247.9079              1254.4671              1274.5764
 Red. masses --      2.0915                 1.7917                 1.8489
 Frc consts  --      1.9189                 1.6612                 1.7697
 IR Inten    --     35.3114                18.5003                22.6513

                     55                     56                     57
                      A                      A                      A
 Frequencies --   1300.3898              1316.1572              1341.4976
 Red. masses --      1.2672                 1.2358                 1.2086
 Frc consts  --      1.2625                 1.2613                 1.2815
 IR Inten    --     12.8961                 4.2821                16.9811

                     58                     59                     60
                      A                      A                      A
 Frequencies --   1361.9933              1379.7699              1391.4627
 Red. masses --      1.7518                 1.2517                 1.4581
 Frc consts  --      1.9147                 1.4040                 1.6633
 IR Inten    --     14.1969                44.7050                98.3748

                     61                     62                     63
                      A                      A                      A
 Frequencies --   1394.0438              1397.1706              1407.4169
 Red. masses --      1.3208                 2.6389                 1.4194
 Frc consts  --      1.5123                 3.0351                 1.6566
 IR Inten    --      5.2460               113.4388                 4.6986

                     64                     65                     66
                      A                      A                      A
 Frequencies --   1423.8337              1433.9301              1439.9771
 Red. masses --      1.5320                 1.7388                 1.4564
 Frc consts  --      1.8299                 2.1065                 1.7793
 IR Inten    --     16.3237                18.4841                15.3610

                     67                     68                     69
                      A                      A                      A
 Frequencies --   1461.1601              1485.1665              1492.7502
 Red. masses --      1.5122                 1.0916                 1.0844
 Frc consts  --      1.9022                 1.4186                 1.4237
 IR Inten    --     44.9910                11.0915                 6.9100

                     70                     71                     72
                      A                      A                      A
 Frequencies --   1502.9823              1533.4648              1557.9205
 Red. masses --      1.1072                 1.0965                 8.0823
 Frc consts  --      1.4737                 1.5192                11.5578
 IR Inten    --      6.1290                 1.5626               122.3915

                     73                     74                     75
                      A                      A                      A
 Frequencies --   1632.0326              1724.6697              1761.7285
 Red. masses --      6.0835                 1.0650                 8.6973
 Frc consts  --      9.5469                 1.8665                15.9042
 IR Inten    --      4.4316                34.1341               233.5970

                     76                     77                     78
                      A                      A                      A
 Frequencies --   2373.0253              3019.9314              3029.8356
 Red. masses --     12.6709                 1.0805                 1.0681
 Frc consts  --     42.0401                 5.8056                 5.7769
 IR Inten    --      4.0895                13.7936                47.0115

                     79                     80                     81
                      A                      A                      A
 Frequencies --   3047.6594              3052.2959              3079.5918
 Red. masses --      1.0628                 1.0627                 1.0598
 Frc consts  --      5.8164                 5.8333                 5.9219
 IR Inten    --     32.5523                46.2990                15.1311

                     82                     83                     84
                      A                      A                      A
 Frequencies --   3098.7029              3111.3581              3114.4996
 Red. masses --      1.1038                 1.0957                 1.1021
 Frc consts  --      6.2444                 6.2494                 6.2986
 IR Inten    --      4.4474                30.7345                20.5670

                     85                     86                     87
                      A                      A                      A
 Frequencies --   3135.2878              3269.0729              3293.4236
 Red. masses --      1.1090                 1.0952                 1.0983
 Frc consts  --      6.4229                 6.8960                 7.0190
 IR Inten    --     21.6555                 3.0599                 2.6902

                     88                     89                     90
                      A                      A                      A
 Frequencies --   3460.2625              3552.2630              3594.6665
 Red. masses --      1.0454                 1.0984                 1.0771
 Frc consts  --      7.3746                 8.1660                 8.2003
 IR Inten    --      1.9798                 1.6702                53.0205

 - Thermochemistry -
 -------------------
 Temperature   298.150 Kelvin.  Pressure   1.00000 Atm.
 Atom     1 has atomic number  6 and mass  12.00000

 Molecular mass:   250.10659 amu.
 Principal axes and moments of inertia in atomic units:
                           1         2         3
     Eigenvalues --  2830.359756592.290826873.66409
           X            0.99956   0.02799   0.00938
           Y           -0.02843   0.99833   0.05032
           Z           -0.00796  -0.05057   0.99869
 This molecule is an asymmetric top.
 Rotational symmetry number  1.
 Warning -- assumption of classical behavior for rotation
           may cause significant error
 Rotational temperatures (Kelvin)      0.03060     0.01314     0.01260
 Rotational constants (GHZ):           0.63764     0.27377     0.26256
 Zero-point vibrational energy     677985.4 (Joules/Mol)
                                  162.04241 (Kcal/Mol)
 Warning -- explicit consideration of  26 degrees of freedom as
           vibrations may cause significant error
 Vibrational temperatures:     33.02    43.35    83.37    89.95   151.77
          (Kelvin)            187.67   199.89   201.99   234.61   245.52
                              356.43   375.13   408.30   465.66   501.17
                              516.76   588.47   609.30   624.60   654.72
                              687.14   771.90   798.30   804.81   851.94
                              868.24   899.48   946.11   976.91  1076.11
                             1099.29  1153.21  1177.37  1230.83  1249.66
                             1288.05  1311.00  1361.97  1391.97  1425.99
                             1442.61  1468.56  1495.87  1522.23  1526.89
                             1599.34  1616.69  1665.98  1698.81  1702.27
                             1786.97  1795.46  1804.90  1833.83  1870.97
                             1893.66  1930.12  1959.60  1985.18  2002.00
                             2005.72  2010.22  2024.96  2048.58  2063.11
                             2071.81  2102.28  2136.82  2147.73  2162.46
                             2206.31  2241.50  2348.13  2481.42  2534.73
                             3414.25  4345.01  4359.26  4384.90  4391.57
                             4430.85  4458.34  4476.55  4481.07  4510.98
                             4703.47  4738.50  4978.55  5110.91  5171.92

 Zero-point correction=                           0.258231 (Hartree/Particle)
 Thermal correction to Energy=                    0.274721
 Thermal correction to Enthalpy=                  0.275665
 Thermal correction to Gibbs Free Energy=         0.212557
 Sum of electronic and zero-point Energies=           -871.980465
 Sum of electronic and thermal Energies=              -871.963974
 Sum of electronic and thermal Enthalpies=            -871.963030
 Sum of electronic and thermal Free Energies=         -872.026139

                     E (Thermal)             CV                S
                      KCal/Mol        Cal/Mol-Kelvin    Cal/Mol-Kelvin
 Total                  172.390             62.048            132.823
 Electronic               0.000              0.000              0.000
 Translational            0.889              2.981             42.451
 Rotational               0.889              2.981             33.217
 Vibrational            170.613             56.087             57.156
 Vibration     1          0.593              1.985              6.361
 Vibration     2          0.594              1.984              5.821
 Vibration     3          0.596              1.974              4.526
 Vibration     4          0.597              1.972              4.376
 Vibration     5          0.605              1.945              3.350
 Vibration     6          0.612              1.923              2.940
 Vibration     7          0.615              1.914              2.819
 Vibration     8          0.615              1.913              2.799
 Vibration     9          0.623              1.888              2.514
 Vibration    10          0.626              1.879              2.428
 Vibration    11          0.661              1.767              1.747
 Vibration    12          0.669              1.745              1.657
 Vibration    13          0.682              1.704              1.511
 Vibration    14          0.708              1.628              1.292
 Vibration    15          0.726              1.579              1.174
 Vibration    16          0.734              1.556              1.126
 Vibration    17          0.773              1.451              0.930
 Vibration    18          0.786              1.419              0.880
 Vibration    19          0.795              1.396              0.845
 Vibration    20          0.813              1.350              0.781
 Vibration    21          0.834              1.300              0.717
 Vibration    22          0.892              1.169              0.573
 Vibration    23          0.910              1.129              0.534
 Vibration    24          0.915              1.119              0.525
 Vibration    25          0.950              1.049              0.463
 Vibration    26          0.962              1.024              0.444

 Normal termination of Gaussian 16 at Mon Jan  4 11:09:12 2021.

 ----------------------------------------------------------------------
 # B3LYP/6-311++G(d,p) empiricaldispersion=gd3bj scf=xqc pop=npa geom=c
 heck
 ----------------------------------------------------------------------

 --------------------------------------
 CID_79680630_JID_8958_Energie_neutraal
 --------------------------------------
 Structure from the checkpoint file:  "JID_8958.chk"
 Charge =  0 Multiplicity = 1

 SCF Done:  E(RB3LYP) =  -872.492121356     A.U. after   15 cycles
 Normal termination of Gaussian 16 at Mon Jan  4 11:14:13 2021.

 ----------------------------------------------------------------------
 # B3LYP/6-311++G(d,p) empiricaldispersion=gd3bj scf=xqc pop=npa geom=c
 heck
 ----------------------------------------------------------------------

 ------------------------------------
 CID_79680630_JID_8958_Energie_kation
 ------------------------------------
 Structure from the checkpoint file:  "JID_8958.chk"
 Charge =  1 Multiplicity = 2

 SCF Done:  E(UB3LYP) =  -872.198650944     A.U. after   24 cycles
 Normal termination of Gaussian 16 at Mon Jan  4 11:24:58 2021.
 Gaussian 16:  ES64L-G16RevA.03 25-Dec-2016

 ----------------------------------------------------------------------
 # B3LYP/6-311++G(d,p) empiricaldispersion=gd3bj scf=xqc pop=npa geom=c
 heck
 ----------------------------------------------------------------------

 -----------------------------------
 CID_79680630_JID_8958_Energie_anion
 -----------------------------------
 Structure from the checkpoint file:  "JID_8958.chk"
 Charge = -1 Multiplicity = 2

                         Standard orientation:
 ---------------------------------------------------------------------
 Center     Atomic      Atomic             Coordinates (Angstroms)
 Number     Number       Type             X           Y           Z
 ---------------------------------------------------------------------
      1          6           0       -2.152367   -1.665733   -1.096812
      2          6           0       -1.541758   -0.495717   -1.875063
      3          8           0       -2.177804    0.736256   -1.500605
      4          6           0       -2.022682    0.980978   -0.111258
      5          6           0       -2.713900   -0.142038    0.701797
      6          7           0       -2.205705   -1.457782    0.353787
      7          6           0       -1.114304   -1.969816    1.177404
      8          6           0        0.132396   -1.140560    1.237925
      9          6           0        0.663172   -0.302647    2.181929
     10          6           0        1.804939    0.311029    1.583144
     11          6           0        1.896258   -0.183999    0.304413
     12          8           0        0.879022   -1.079738    0.104265
     13          6           0        2.703355    0.059582   -0.913767
     14          8           0        2.311428   -0.312387   -2.014394
     15          7           0        3.890689    0.738625   -0.776487
     16          7           0        4.620078    0.960774    0.403452
     17          6           0       -2.621534    2.285868    0.199456
     18          7           0       -3.104488    3.293086    0.512492
     19          1           0       -1.601135   -2.588021   -1.305342
     20          1           0       -3.185546   -1.804854   -1.445011
     21          1           0       -0.458990   -0.421611   -1.723901
     22          1           0       -1.737087   -0.606754   -2.944903
     23          1           0       -0.954690    1.027478    0.151418
     24          1           0       -3.785153   -0.096809    0.466636
     25          1           0       -2.591782    0.032345    1.775343
     26          1           0       -1.484418   -2.077552    2.204262
     27          1           0       -0.871132   -2.974329    0.813513
     28          1           0        0.280598   -0.136436    3.179260
     29          1           0        2.449186    1.044039    2.043319
     30          1           0        4.441396    0.774227   -1.625766
     31          1           0        4.234528    1.763461    0.896148
     32          1           0        4.557579    0.147172    1.013179
 ---------------------------------------------------------------------

 SCF Done:  E(UB3LYP) =  -872.500267518     A.U. after   33 cycles
 SCF Done:  E(UB3LYP) =  -872.500267518     a.u. after    1 cycles

 The electronic state is 2-A.
 Alpha  occ. eigenvalues --  -19.03501 -19.02822 -18.92814 -14.22367 -14.22189
 Alpha  occ. eigenvalues --  -14.21640 -14.20598 -10.15843 -10.11741 -10.11028
 Alpha  occ. eigenvalues --  -10.10958 -10.10590 -10.09625 -10.09503 -10.07453
 Alpha  occ. eigenvalues --  -10.06996 -10.03886 -10.02925  -0.96838  -0.95224
 Alpha  occ. eigenvalues --   -0.89310  -0.84423  -0.82521  -0.81595  -0.69408
 Alpha  occ. eigenvalues --   -0.66977  -0.66543  -0.65353  -0.60663  -0.58225
 Alpha  occ. eigenvalues --   -0.55390  -0.49518  -0.47306  -0.46855  -0.44025
 Alpha  occ. eigenvalues --   -0.42072  -0.40543  -0.39707  -0.39277  -0.39120
 Alpha  occ. eigenvalues --   -0.38281  -0.36552  -0.36129  -0.32769  -0.32203
 Alpha  occ. eigenvalues --   -0.31442  -0.29973  -0.29528  -0.28440  -0.28088
 Alpha  occ. eigenvalues --   -0.27583  -0.27180  -0.26461  -0.25583  -0.25045
 Alpha  occ. eigenvalues --   -0.24840  -0.23865  -0.23044  -0.22412  -0.18050
 Alpha  occ. eigenvalues --   -0.17477  -0.15383  -0.12553  -0.11406  -0.11284
 Alpha  occ. eigenvalues --   -0.09606   0.04978
 Alpha virt. eigenvalues --    0.07374   0.08238   0.08998   0.09450   0.10064
 Alpha virt. eigenvalues --    0.10364   0.10789   0.11289   0.11537   0.11970
 Alpha virt. eigenvalues --    0.12123   0.12571   0.13468   0.14192   0.14509

  Beta  occ. eigenvalues --  -19.03498 -19.02466 -18.92499 -14.22362 -14.22184
  Beta  occ. eigenvalues --  -14.21560 -14.20541 -10.15844 -10.11741 -10.11025
  Beta  occ. eigenvalues --  -10.10699 -10.10587 -10.09618 -10.09525 -10.07106
  Beta  occ. eigenvalues --  -10.06795 -10.03993 -10.02709  -0.96245  -0.95210
  Beta  occ. eigenvalues --   -0.88880  -0.84124  -0.82425  -0.81587  -0.69398
  Beta  occ. eigenvalues --   -0.66756  -0.66202  -0.65037  -0.60388  -0.58127
  Beta  occ. eigenvalues --   -0.55216  -0.49049  -0.47137  -0.46687  -0.43970
  Beta  occ. eigenvalues --   -0.41755  -0.40379  -0.39588  -0.39260  -0.39054
  Beta  occ. eigenvalues --   -0.38190  -0.36318  -0.36022  -0.32631  -0.31211
  Beta  occ. eigenvalues --   -0.30959  -0.29771  -0.29308  -0.28322  -0.27974
  Beta  occ. eigenvalues --   -0.27551  -0.27001  -0.26199  -0.25280  -0.24890
  Beta  occ. eigenvalues --   -0.23918  -0.23646  -0.22732  -0.22330  -0.18001
  Beta  occ. eigenvalues --   -0.17306  -0.14160  -0.11511  -0.11012  -0.10889
  Beta  occ. eigenvalues --   -0.08090
  Beta virt. eigenvalues --    0.07358   0.08097   0.08895   0.09467   0.10020
  Beta virt. eigenvalues --    0.10302   0.10652   0.11195   0.11429   0.11520
  Beta virt. eigenvalues --    0.11951   0.12109   0.12542   0.13419   0.14149

 Mulliken charges and spin densities:
               1          2
     1  C   -0.209596  -0.053730
     2  C   -0.231683  -0.013663
     3  O   -0.063324   0.001660
     4  C    0.789396  -0.000005
     5  C   -0.403586  -0.051377
     6  N    0.177421   0.046216
     7  C   -0.694281  -0.285254
     8  C    0.426192   0.323960
     9  C   -0.216233  -0.094891
    10  C   -0.159033   0.224489
    11  C   -0.236389   0.244968
    12  O    0.017195   0.067425
    13  C   -0.016994   0.042393
    14  O   -0.420384   0.118717
    15  N   -0.253522   0.015938
    16  N   -0.416340  -0.012367
    17  C   -1.014828   0.004418
    18  N   -0.243955   0.002475
    19  H    0.054972   0.090854
    20  H    0.106879   0.025278
    21  H    0.270515  -0.007246
    22  H    0.170840  -0.000473
    23  H    0.235561  -0.002999
    24  H    0.167787   0.022177
    25  H    0.142463   0.008783
    26  H    0.129749   0.031484
    27  H    0.000441   0.177354
    28  H    0.110354   0.005970
    29  H    0.083886   0.009635
    30  H    0.302941  -0.003733
    31  H    0.200756   0.025632
    32  H    0.192800   0.035912
 Sum of Mulliken charges =  -1.00000   1.00000

 Dipole moment (field-independent basis, Debye):
    X=             -2.0045    Y=             -2.1618    Z=              2.6060  Tot=              3.9348
 Quadrupole moment (field-independent basis, Debye-Ang):
   XX=           -154.0192   YY=           -138.0850   ZZ=           -122.7268
   XY=             12.8695   XZ=              7.9127   YZ=              0.5730

 Summary of Natural Population Analysis:

                                       Natural Population
                Natural  -----------------------------------------------
    Atom  No    Charge         Core      Valence    Rydberg      Total
 -----------------------------------------------------------------------
      C    1   -0.09867      0.99962     2.08651    0.01254     3.09867
      C    2   -0.02906      0.99957     2.01954    0.00995     3.02906
      O    3   -0.29621      0.99989     3.28764    0.00868     4.29621
      C    4   -0.00422      0.99946     1.99063    0.01413     3.00422
      C    5   -0.08693      0.99960     2.07434    0.01299     3.08693
      N    6   -0.27189      0.99973     2.75796    0.01421     3.77189
      C    7   -0.10428      0.99957     2.09127    0.01345     3.10428
      C    8    0.19114      0.99948     1.79371    0.01567     2.80886
      C    9   -0.18627      0.99950     2.17905    0.00772     3.18627
      C   10   -0.11050      0.99953     2.10299    0.00798     3.11050
      C   11    0.12540      0.99944     1.85852    0.01664     2.87460
      O   12   -0.20530      0.99985     3.19656    0.00889     4.20530
      C   13    0.33959      0.99961     1.63794    0.02285     2.66041
      O   14   -0.30048      0.99988     3.29454    0.00605     4.30048
      N   15   -0.23251      0.99967     2.71958    0.01326     3.73251
      N   16   -0.32423      0.99978     2.81358    0.01087     3.82423
      C   17    0.16107      0.99964     1.82074    0.01854     2.83893
      N   18   -0.18454      0.99979     2.67384    0.01091     3.68454
      H   19    0.10325      0.00000     0.39566    0.00109     0.39675
      H   20    0.08763      0.00000     0.41118    0.00118     0.41237
      H   21    0.11044      0.00000     0.38824    0.00132     0.38956
      H   22    0.08794      0.00000     0.41117    0.00090     0.41206
      H   23    0.11855      0.00000     0.37914    0.00232     0.38145
      H   24    0.09415      0.00000     0.40456    0.00129     0.40585
      H   25    0.10303      0.00000     0.39596    0.00102     0.39697
      H   26    0.09613      0.00000     0.40304    0.00083     0.40387
      H   27    0.10439      0.00000     0.39428    0.00133     0.39561
      H   28    0.09939      0.00000     0.39984    0.00077     0.40061
      H   29    0.09360      0.00000     0.40451    0.00188     0.40640
      H   30    0.17909      0.00000     0.31799    0.00293     0.32091
      H   31    0.16695      0.00000     0.33040    0.00265     0.33305
      H   32    0.17339      0.00000     0.32398    0.00263     0.32661
 =======================================================================
   * Total *   -0.00000     17.99361    47.75890    0.24748    66.00000

 Normal termination of Gaussian 16 at Mon Jan  4 11:39:40 2021.
