 Gaussian 16, Revision A.03,

 -----------------------------------------------------------
 # opt freq B3LYP/6-31G(d) empiricaldispersion=gd3bj scf=xqc
 -----------------------------------------------------------

 -------------------------------
 CID_104316981_JID_3861_neutraal
 -------------------------------
 Symbolic Z-matrix:
 Charge =  0 Multiplicity = 1

 SCF Done:  E(RB3LYP) =  -579.018596209     A.U. after   13 cycles
 SCF Done:  E(RB3LYP) =  -579.019823045     A.U. after   11 cycles
 SCF Done:  E(RB3LYP) =  -579.013454073     A.U. after   11 cycles
 SCF Done:  E(RB3LYP) =  -579.022325934     A.U. after   11 cycles
 SCF Done:  E(RB3LYP) =  -579.022124103     A.U. after   11 cycles
 SCF Done:  E(RB3LYP) =  -579.024649775     A.U. after   10 cycles
 SCF Done:  E(RB3LYP) =  -579.025498331     A.U. after   10 cycles
 SCF Done:  E(RB3LYP) =  -579.025886763     A.U. after   10 cycles
 SCF Done:  E(RB3LYP) =  -579.025989953     A.U. after   10 cycles
 SCF Done:  E(RB3LYP) =  -579.026030878     A.U. after    9 cycles
 SCF Done:  E(RB3LYP) =  -579.026055125     A.U. after    8 cycles
 SCF Done:  E(RB3LYP) =  -579.026058103     A.U. after    9 cycles
 SCF Done:  E(RB3LYP) =  -579.026060506     A.U. after    9 cycles
 SCF Done:  E(RB3LYP) =  -579.026061762     A.U. after    8 cycles
 SCF Done:  E(RB3LYP) =  -579.026061921     A.U. after    7 cycles
 SCF Done:  E(RB3LYP) =  -579.026061948     A.U. after    6 cycles
 Optimization completed.
    -- Stationary point found.
 Normal termination of Gaussian 16 at Sun Dec 13 16:02:17 2020.

 --------------------------------------------------------------------
 #N Geom=AllCheck Guess=TCheck SCRF=Check GenChk RB3LYP/6-31G(d) Freq
 --------------------------------------------------------------------

 Structure from the checkpoint file:  "JID_3861.chk"
 -------------------------------
 CID_104316981_JID_3861_neutraal
 -------------------------------
 Charge =  0 Multiplicity = 1

 SCF Done:  E(RB3LYP) =  -579.026061948     A.U. after    1 cycles

  Exact polarizability: 135.184   2.255 119.894  -2.059  -3.263 106.749
 Approx polarizability: 170.384   2.506 166.402  -1.834  -4.257 159.080

                      1                      2                      3
                      A                      A                      A
 Frequencies --     30.6399                44.2391                75.7163
 Red. masses --      4.3239                 3.0982                 2.7840
 Frc consts  --      0.0024                 0.0036                 0.0094
 IR Inten    --      0.8945                 0.5865                 0.3313

                      4                      5                      6
                      A                      A                      A
 Frequencies --     96.7585               118.0007               132.2721
 Red. masses --      3.3232                 3.5541                 2.4598
 Frc consts  --      0.0183                 0.0292                 0.0254
 IR Inten    --      2.5376                 0.1357                 0.2532

                      7                      8                      9
                      A                      A                      A
 Frequencies --    162.8014               176.8906               209.3074
 Red. masses --      3.2635                 3.3791                 1.8347
 Frc consts  --      0.0510                 0.0623                 0.0474
 IR Inten    --      0.2860                 2.0407                16.0079

                     10                     11                     12
                      A                      A                      A
 Frequencies --    225.8829               239.2111               249.2544
 Red. masses --      1.4899                 1.5064                 1.4815
 Frc consts  --      0.0448                 0.0508                 0.0542
 IR Inten    --     92.3971                12.4686                57.8982

                     13                     14                     15
                      A                      A                      A
 Frequencies --    264.9531               288.5802               325.8234
 Red. masses --      1.9273                 1.4361                 2.2861
 Frc consts  --      0.0797                 0.0705                 0.1430
 IR Inten    --      1.2995                43.0393                 4.5229

                     16                     17                     18
                      A                      A                      A
 Frequencies --    361.3921               369.1696               397.0927
 Red. masses --      1.9915                 2.1583                 2.0672
 Frc consts  --      0.1532                 0.1733                 0.1921
 IR Inten    --      3.8980                 4.1632                 2.1509

                     19                     20                     21
                      A                      A                      A
 Frequencies --    427.1714               469.1622               497.9764
 Red. masses --      3.1518                 2.0666                 2.6140
 Frc consts  --      0.3389                 0.2680                 0.3819
 IR Inten    --     10.6806                 8.7828                 2.3275

                     22                     23                     24
                      A                      A                      A
 Frequencies --    592.2958               604.3230               713.8295
 Red. masses --      2.3437                 2.5467                 2.1788
 Frc consts  --      0.4844                 0.5480                 0.6541
 IR Inten    --      1.4989                 4.8175                 5.9309

                     25                     26                     27
                      A                      A                      A
 Frequencies --    783.5451               788.2931               804.1036
 Red. masses --      1.9794                 1.2674                 1.5095
 Frc consts  --      0.7160                 0.4640                 0.5750
 IR Inten    --      1.7691                 3.1080                 6.5606

                     28                     29                     30
                      A                      A                      A
 Frequencies --    831.1738               846.5456               868.4917
 Red. masses --      2.3572                 1.5143                 2.0312
 Frc consts  --      0.9595                 0.6394                 0.9027
 IR Inten    --      5.5635                31.0518                 0.4815

                     31                     32                     33
                      A                      A                      A
 Frequencies --    884.7523               924.5726               957.7641
 Red. masses --      1.3582                 2.5319                 2.3125
 Frc consts  --      0.6264                 1.2752                 1.2498
 IR Inten    --    114.6659                31.0523                 3.3687

                     34                     35                     36
                      A                      A                      A
 Frequencies --    963.1871               978.6481               989.6952
 Red. masses --      2.3738                 1.7641                 2.0196
 Frc consts  --      1.2975                 0.9955                 1.1655
 IR Inten    --      6.5097                 1.8883                 7.0199

                     37                     38                     39
                      A                      A                      A
 Frequencies --   1008.9680              1022.0667              1058.5816
 Red. masses --      1.8963                 1.9064                 1.7118
 Frc consts  --      1.1374                 1.1733                 1.1302
 IR Inten    --      0.7826                 7.0311                31.7327

                     40                     41                     42
                      A                      A                      A
 Frequencies --   1075.3804              1086.3452              1094.2258
 Red. masses --      1.5449                 1.8446                 1.3598
 Frc consts  --      1.0526                 1.2826                 0.9593
 IR Inten    --     17.6715                30.1768                 0.2955

                     43                     44                     45
                      A                      A                      A
 Frequencies --   1100.0114              1128.0396              1142.4395
 Red. masses --      1.8999                 1.9302                 2.4739
 Frc consts  --      1.3545                 1.4471                 1.9024
 IR Inten    --      1.4523                20.3659                 6.7271

                     46                     47                     48
                      A                      A                      A
 Frequencies --   1155.9067              1162.3471              1179.1809
 Red. masses --      1.2413                 1.7171                 1.5910
 Frc consts  --      0.9772                 1.3669                 1.3034
 IR Inten    --      2.4264                27.1737                19.2114

                     49                     50                     51
                      A                      A                      A
 Frequencies --   1194.2722              1209.5542              1218.7970
 Red. masses --      1.9861                 1.3672                 1.6264
 Frc consts  --      1.6690                 1.1785                 1.4234
 IR Inten    --     47.6119                 1.3254                 5.8784

                     52                     53                     54
                      A                      A                      A
 Frequencies --   1248.8526              1265.3102              1289.5127
 Red. masses --      1.6847                 1.1964                 1.4206
 Frc consts  --      1.5481                 1.1286                 1.3918
 IR Inten    --      4.0823                13.0326                 3.1937

                     55                     56                     57
                      A                      A                      A
 Frequencies --   1293.0183              1331.2815              1365.6132
 Red. masses --      1.5996                 1.2423                 1.1872
 Frc consts  --      1.5757                 1.2972                 1.3044
 IR Inten    --      3.1628                 9.0644                 2.5807

                     58                     59                     60
                      A                      A                      A
 Frequencies --   1372.6350              1388.6872              1391.8894
 Red. masses --      1.3811                 1.3860                 1.3893
 Frc consts  --      1.5331                 1.5748                 1.5859
 IR Inten    --     21.5777                17.2419                 0.5699

                     61                     62                     63
                      A                      A                      A
 Frequencies --   1399.2719              1413.3606              1417.2105
 Red. masses --      1.3747                 1.3375                 1.3455
 Frc consts  --      1.5859                 1.5741                 1.5922
 IR Inten    --     25.6097                18.1221                 8.1331

                     64                     65                     66
                      A                      A                      A
 Frequencies --   1435.6489              1444.2413              1450.8202
 Red. masses --      1.2886                 1.1864                 1.4074
 Frc consts  --      1.5648                 1.4580                 1.7454
 IR Inten    --     11.7811                34.3295                16.1413

                     67                     68                     69
                      A                      A                      A
 Frequencies --   1456.6779              1479.6498              1501.2684
 Red. masses --      1.4066                 1.0943                 1.0869
 Frc consts  --      1.7586                 1.4116                 1.4433
 IR Inten    --      1.2710                 0.7718                 3.9576

                     70                     71                     72
                      A                      A                      A
 Frequencies --   1510.7258              1515.4033              1519.9723
 Red. masses --      1.0793                 1.1083                 1.1206
 Frc consts  --      1.4513                 1.4995                 1.5253
 IR Inten    --      4.1703                 4.2593                 3.9266

                     73                     74                     75
                      A                      A                      A
 Frequencies --   1524.6952              1531.4924              1538.9427
 Red. masses --      1.2166                 1.0702                 1.1208
 Frc consts  --      1.6663                 1.4790                 1.5639
 IR Inten    --      8.6079                 4.2193                 4.4009

                     76                     77                     78
                      A                      A                      A
 Frequencies --   1544.4186              1705.7792              2938.5299
 Red. masses --      1.0893                 1.0871                 1.0738
 Frc consts  --      1.5308                 1.8636                 5.4632
 IR Inten    --      6.0260                17.9808                43.7889

                     79                     80                     81
                      A                      A                      A
 Frequencies --   2954.1210              3021.4780              3033.0008
 Red. masses --      1.0738                 1.0832                 1.0671
 Frc consts  --      5.5212                 5.8262                 5.7835
 IR Inten    --     86.7739                73.1953                 9.4472

                     82                     83                     84
                      A                      A                      A
 Frequencies --   3044.3422              3045.7362              3050.2062
 Red. masses --      1.0643                 1.0550                 1.0563
 Frc consts  --      5.8115                 5.7663                 5.7902
 IR Inten    --     44.7529                 7.4065                17.4103

                     85                     86                     87
                      A                      A                      A
 Frequencies --   3059.9594              3068.3375              3079.8642
 Red. masses --      1.0828                 1.0867                 1.1027
 Frc consts  --      5.9735                 6.0280                 6.1625
 IR Inten    --     48.5500                53.9935                48.9335

                     88                     89                     90
                      A                      A                      A
 Frequencies --   3094.3519              3110.3357              3112.6484
 Red. masses --      1.0855                 1.0949                 1.1009
 Frc consts  --      6.1238                 6.2409                 6.2844
 IR Inten    --     23.9459                34.5532                53.7687

                     91                     92                     93
                      A                      A                      A
 Frequencies --   3123.0968              3132.0073              3150.9566
 Red. masses --      1.0938                 1.1016                 1.0544
 Frc consts  --      6.2859                 6.3669                 6.1680
 IR Inten    --     25.6362                29.5443                14.0936

                     94                     95                     96
                      A                      A                      A
 Frequencies --   3172.3630              3233.4261              3261.1375
 Red. masses --      1.0576                 1.1179                 1.1161
 Frc consts  --      6.2710                 6.8862                 6.9933
 IR Inten    --      8.7217                 5.5362                 8.9752

                     97                     98                     99
                      A                      A                      A
 Frequencies --   3479.6496              3564.1398              3754.6466
 Red. masses --      1.0499                 1.0917                 1.0655
 Frc consts  --      7.4899                 8.1705                 8.8499
 IR Inten    --      4.7825                 1.9548                32.7348

 - Thermochemistry -
 -------------------
 Temperature   298.150 Kelvin.  Pressure   1.00000 Atm.
 Atom     1 has atomic number  6 and mass  12.00000

 Molecular mass:   186.17321 amu.
 Principal axes and moments of inertia in atomic units:
                           1         2         3
     Eigenvalues --  1646.296273857.262534480.66649
           X            0.99990   0.01347  -0.00514
           Y           -0.01343   0.99988   0.00819
           Z            0.00525  -0.00812   0.99995
 This molecule is an asymmetric top.
 Rotational symmetry number  1.
 Warning -- assumption of classical behavior for rotation
           may cause significant error
 Rotational temperatures (Kelvin)      0.05261     0.02245     0.01933
 Rotational constants (GHZ):           1.09624     0.46788     0.40278
 Zero-point vibrational energy     845462.8 (Joules/Mol)
                                  202.07046 (Kcal/Mol)
 Warning -- explicit consideration of  23 degrees of freedom as
           vibrations may cause significant error
 Vibrational temperatures:     44.08    63.65   108.94   139.21   169.78
          (Kelvin)            190.31   234.23   254.51   301.15   325.00
                              344.17   358.62   381.21   415.20   468.79
                              519.96   531.15   571.33   614.60   675.02
                              716.48   852.18   869.49  1027.04  1127.35
                             1134.18  1156.93  1195.87  1217.99  1249.57
                             1272.96  1330.25  1378.01  1385.81  1408.06
                             1423.95  1451.68  1470.53  1523.06  1547.23
                             1563.01  1574.35  1582.67  1623.00  1643.72
                             1663.09  1672.36  1696.58  1718.29  1740.28
                             1753.58  1796.82  1820.50  1855.32  1860.36
                             1915.42  1964.81  1974.92  1998.01  2002.62
                             2013.24  2033.51  2039.05  2065.58  2077.94
                             2087.41  2095.83  2128.89  2159.99  2173.60
                             2180.33  2186.90  2193.70  2203.48  2214.20
                             2222.07  2454.24  4227.89  4250.32  4347.23
                             4363.81  4380.13  4382.14  4388.57  4402.60
                             4414.65  4431.24  4452.08  4475.08  4478.41
                             4493.44  4506.26  4533.52  4564.32  4652.18
                             4692.05  5006.44  5128.00  5402.10

 Zero-point correction=                           0.322020 (Hartree/Particle)
 Thermal correction to Energy=                    0.337471
 Thermal correction to Enthalpy=                  0.338415
 Thermal correction to Gibbs Free Energy=         0.279363
 Sum of electronic and zero-point Energies=           -578.704042
 Sum of electronic and thermal Energies=              -578.688591
 Sum of electronic and thermal Enthalpies=            -578.687647
 Sum of electronic and thermal Free Energies=         -578.746699

                     E (Thermal)             CV                S
                      KCal/Mol        Cal/Mol-Kelvin    Cal/Mol-Kelvin
 Total                  211.766             58.002            124.286
 Electronic               0.000              0.000              0.000
 Translational            0.889              2.981             41.571
 Rotational               0.889              2.981             31.720
 Vibrational            209.989             52.040             50.995
 Vibration     1          0.594              1.984              5.788
 Vibration     2          0.595              1.980              5.060
 Vibration     3          0.599              1.965              3.999
 Vibration     4          0.603              1.951              3.519
 Vibration     5          0.608              1.934              3.133
 Vibration     6          0.612              1.921              2.913
 Vibration     7          0.623              1.888              2.517
 Vibration     8          0.628              1.871              2.361
 Vibration     9          0.642              1.827              2.050
 Vibration    10          0.650              1.802              1.911
 Vibration    11          0.657              1.780              1.809
 Vibration    12          0.662              1.764              1.736
 Vibration    13          0.671              1.737              1.629
 Vibration    14          0.685              1.695              1.482
 Vibration    15          0.710              1.624              1.281
 Vibration    16          0.736              1.552              1.116
 Vibration    17          0.741              1.536              1.083
 Vibration    18          0.764              1.476              0.973
 Vibration    19          0.789              1.411              0.868
 Vibration    20          0.826              1.318              0.740
 Vibration    21          0.853              1.255              0.663
 Vibration    22          0.950              1.048              0.463
 Vibration    23          0.963              1.023              0.442

 Optimization completed.
    -- Stationary point found.
 Normal termination of Gaussian 16 at Sun Dec 13 16:11:48 2020.

 ----------------------------------------------------------------------
 # B3LYP/6-311++G(d,p) empiricaldispersion=gd3bj scf=xqc pop=npa geom=c
 heck
 ----------------------------------------------------------------------

 ---------------------------------------
 CID_104316981_JID_3861_Energie_neutraal
 ---------------------------------------
 Structure from the checkpoint file:  "JID_3861.chk"
 Charge =  0 Multiplicity = 1

 SCF Done:  E(RB3LYP) =  -579.207055249     A.U. after   13 cycles
 Normal termination of Gaussian 16 at Sun Dec 13 16:15:30 2020.

 ----------------------------------------------------------------------
 # B3LYP/6-311++G(d,p) empiricaldispersion=gd3bj scf=xqc pop=npa geom=c
 heck
 ----------------------------------------------------------------------

 -------------------------------------
 CID_104316981_JID_3861_Energie_kation
 -------------------------------------
 Structure from the checkpoint file:  "JID_3861.chk"
 Charge =  1 Multiplicity = 2

 SCF Done:  E(UB3LYP) =  -578.918788140     A.U. after   23 cycles
 Normal termination of Gaussian 16 at Sun Dec 13 16:24:06 2020.
 Gaussian 16:  ES64L-G16RevA.03 25-Dec-2016

 ----------------------------------------------------------------------
 # B3LYP/6-311++G(d,p) empiricaldispersion=gd3bj scf=xqc pop=npa geom=c
 heck
 ----------------------------------------------------------------------

 ------------------------------------
 CID_104316981_JID_3861_Energie_anion
 ------------------------------------
 Structure from the checkpoint file:  "JID_3861.chk"
 Charge = -1 Multiplicity = 2

                         Standard orientation:
 ---------------------------------------------------------------------
 Center     Atomic      Atomic             Coordinates (Angstroms)
 Number     Number       Type             X           Y           Z
 ---------------------------------------------------------------------
      1          6           0       -3.402575   -1.497270   -0.802867
      2          6           0       -3.078168   -0.178075   -0.095163
      3          6           0       -2.086328   -0.338138    1.068562
      4          6           0       -0.675446   -0.866905    0.701769
      5          7           0        0.408279    0.096992    0.905250
      6          6           0        1.680367   -0.524403    1.297700
      7          6           0        2.267396   -1.637414    0.407526
      8          6           0        2.619194   -1.236980   -1.028044
      9          7           0        3.551514   -0.105978   -1.049793
     10          6           0        0.501598    1.101902   -0.115431
     11          6           0       -0.281235    2.388216    0.033704
     12          6           0        1.210997    2.393779    0.217477
     13          8           0       -2.664957    0.812602   -1.038133
     14          1           0       -2.510339   -1.935153   -1.265599
     15          1           0       -4.136629   -1.321089   -1.594858
     16          1           0       -3.814515   -2.232597   -0.101246
     17          1           0       -4.010468    0.220229    0.323207
     18          1           0       -1.975837    0.621578    1.579973
     19          1           0       -2.544012   -1.023788    1.792749
     20          1           0       -0.452211   -1.729943    1.335497
     21          1           0       -0.667718   -1.257722   -0.333290
     22          1           0        2.417531    0.277351    1.401813
     23          1           0        1.537033   -0.944296    2.302456
     24          1           0        3.181608   -1.992018    0.900793
     25          1           0        1.574893   -2.488595    0.372352
     26          1           0        3.118041   -2.086178   -1.510654
     27          1           0        1.688671   -1.063583   -1.598230
     28          1           0        3.873830    0.055354   -2.002077
     29          1           0        3.064107    0.742255   -0.768476
     30          1           0        0.628025    0.750117   -1.147964
     31          1           0       -0.704977    2.840909   -0.857039
     32          1           0       -0.891385    2.489032    0.923061
     33          1           0        1.587064    2.495575    1.230664
     34          1           0        1.830919    2.855849   -0.545976
     35          1           0       -1.727314    0.660520   -1.231681
 ---------------------------------------------------------------------

 SCF Done:  E(UB3LYP) =  -579.193550734     A.U. after   26 cycles

 The electronic state is 2-A.
 Alpha  occ. eigenvalues --  -19.01786 -14.20923 -14.18750 -10.12280 -10.11041
 Alpha  occ. eigenvalues --  -10.09585 -10.09189 -10.08557 -10.08231 -10.07908
 Alpha  occ. eigenvalues --  -10.06753 -10.06010 -10.05910  -0.92191  -0.83755
 Alpha  occ. eigenvalues --   -0.77837  -0.75042  -0.68473  -0.65252  -0.61747
 Alpha  occ. eigenvalues --   -0.57000  -0.54996  -0.51391  -0.49802  -0.48603
 Alpha  occ. eigenvalues --   -0.45479  -0.41378  -0.40747  -0.39319  -0.38268
 Alpha  occ. eigenvalues --   -0.37004  -0.36552  -0.35620  -0.33390  -0.32477
 Alpha  occ. eigenvalues --   -0.31871  -0.30851  -0.29300  -0.28757  -0.27872
 Alpha  occ. eigenvalues --   -0.27554  -0.26560  -0.25794  -0.25258  -0.24425
 Alpha  occ. eigenvalues --   -0.23420  -0.21924  -0.21209  -0.19879  -0.17423
 Alpha  occ. eigenvalues --   -0.14129  -0.11774   0.04418
 Alpha virt. eigenvalues --    0.06268   0.07367   0.07504   0.08677   0.08864
 Alpha virt. eigenvalues --    0.09200   0.09775   0.10011   0.11169   0.11261
 Alpha virt. eigenvalues --    0.11812   0.12168   0.12466   0.13053   0.13532

  Beta  occ. eigenvalues --  -19.01772 -14.20917 -14.18717 -10.12274 -10.11025
  Beta  occ. eigenvalues --  -10.09561 -10.09181 -10.08528 -10.08220 -10.07902
  Beta  occ. eigenvalues --  -10.06740 -10.05996 -10.05879  -0.92160  -0.83739
  Beta  occ. eigenvalues --   -0.77782  -0.75023  -0.68439  -0.65210  -0.61704
  Beta  occ. eigenvalues --   -0.56949  -0.54945  -0.51360  -0.49763  -0.48550
  Beta  occ. eigenvalues --   -0.45428  -0.41341  -0.40710  -0.39277  -0.38230
  Beta  occ. eigenvalues --   -0.36953  -0.36512  -0.35590  -0.33344  -0.32435
  Beta  occ. eigenvalues --   -0.31835  -0.30822  -0.29264  -0.28719  -0.27856
  Beta  occ. eigenvalues --   -0.27524  -0.26529  -0.25764  -0.25228  -0.24386
  Beta  occ. eigenvalues --   -0.23388  -0.21900  -0.21190  -0.19856  -0.17395
  Beta  occ. eigenvalues --   -0.14088  -0.11735
  Beta virt. eigenvalues --    0.06716   0.07286   0.07714   0.07986   0.09182
  Beta virt. eigenvalues --    0.09364   0.09448   0.10105   0.10302   0.11539
  Beta virt. eigenvalues --    0.11700   0.12148   0.12336   0.12689   0.13351

 Mulliken charges and spin densities:
               1          2
     1  C    0.460040  -0.962126
     2  C   -0.517833   0.228056
     3  C    0.532148  -0.726967
     4  C   -0.984937   0.455176
     5  N    0.288098   0.100183
     6  C    0.021618  -0.184173
     7  C    0.223019  -0.421112
     8  C    0.847067  -1.166612
     9  N   -0.419469   0.025314
    10  C   -0.746635   0.070807
    11  C    0.236611  -0.581574
    12  C    0.025128  -0.339805
    13  O   -0.141709  -0.006151
    14  H   -0.548470   0.690549
    15  H   -0.070811   0.219154
    16  H   -0.194063   0.330419
    17  H    0.033547   0.132626
    18  H    0.181750  -0.008099
    19  H   -0.328501   0.511056
    20  H   -0.497014   0.654356
    21  H    1.367875  -1.206191
    22  H    0.026617   0.087051
    23  H   -0.089772   0.262167
    24  H   -0.048808   0.204878
    25  H   -0.118172   0.243194
    26  H   -0.417766   0.604956
    27  H   -0.732003   0.853570
    28  H   -0.211211   0.460676
    29  H    0.337029  -0.119418
    30  H    0.069326   0.112121
    31  H    0.108666   0.076562
    32  H    0.146941  -0.009972
    33  H    0.198119  -0.044204
    34  H   -0.209906   0.361062
    35  H    0.173479   0.092470
 Sum of Mulliken charges =  -1.00000   1.00000

 Dipole moment (field-independent basis, Debye):
    X=             -1.3220    Y=              4.3973    Z=              3.2009  Tot=              5.5973
 Quadrupole moment (field-independent basis, Debye-Ang):
   XX=           -155.1039   YY=           -127.6667   ZZ=           -126.6734
   XY=             -2.1521   XZ=              8.3231   YZ=              4.5033

 Summary of Natural Population Analysis:

                                       Natural Population
                Natural  -----------------------------------------------
    Atom  No    Charge         Core      Valence    Rydberg      Total
 -----------------------------------------------------------------------
      C    1   -0.29783      0.99964     2.29275    0.00543     3.29783
      C    2    0.06366      0.99958     1.92258    0.01419     2.93634
      C    3   -0.20766      0.99960     2.19861    0.00944     3.20766
      C    4   -0.09263      0.99960     2.08008    0.01295     3.09263
      N    5   -0.28390      0.99969     2.77053    0.01367     3.78390
      C    6   -0.08178      0.99960     2.07037    0.01181     3.08178
      C    7   -0.20288      0.99962     2.19457    0.00870     3.20288
      C    8   -0.09061      0.99963     2.07988    0.01109     3.09061
      N    9   -0.42638      0.99977     2.91561    0.01099     3.92638
      C   10   -0.02893      0.99955     2.01513    0.01424     3.02893
      C   11   -0.19793      0.99961     2.18837    0.00995     3.19793
      C   12   -0.20682      0.99961     2.19771    0.00950     3.20682
      O   13   -0.37512      0.99990     3.36879    0.00643     4.37512
      H   14    0.09879      0.00000     0.39978    0.00143     0.40121
      H   15    0.10115      0.00000     0.39787    0.00098     0.39885
      H   16    0.10030      0.00000     0.39838    0.00132     0.39970
      H   17    0.08296      0.00000     0.41589    0.00116     0.41704
      H   18    0.10395      0.00000     0.39452    0.00153     0.39605
      H   19    0.10305      0.00000     0.39571    0.00125     0.39695
      H   20    0.10256      0.00000     0.39584    0.00160     0.39744
      H   21    0.08374      0.00000     0.41370    0.00256     0.41626
      H   22    0.09603      0.00000     0.40264    0.00133     0.40397
      H   23    0.09450      0.00000     0.40440    0.00110     0.40550
      H   24    0.09882      0.00000     0.39994    0.00124     0.40118
      H   25    0.09846      0.00000     0.40000    0.00155     0.40154
      H   26    0.09234      0.00000     0.40620    0.00146     0.40766
      H   27    0.07735      0.00000     0.41981    0.00285     0.42265
      H   28    0.17780      0.00000     0.31954    0.00266     0.32220
      H   29    0.17410      0.00000     0.32352    0.00239     0.32590
      H   30    0.09216      0.00000     0.40526    0.00257     0.40784
      H   31    0.10520      0.00000     0.39404    0.00076     0.39480
      H   32    0.10594      0.00000     0.39291    0.00115     0.39406
      H   33    0.10519      0.00000     0.39387    0.00094     0.39481
      H   34    0.10380      0.00000     0.39513    0.00107     0.39620
      H   35    0.23061      0.00000     0.26603    0.00337     0.26939
 =======================================================================
   * Total *    0.00000     12.99539    38.82995    0.17466    52.00000

 Normal termination of Gaussian 16 at Sun Dec 13 16:33:44 2020.
