 Gaussian 16, Revision A.03,

 -----------------------------------------------------------
 # opt freq B3LYP/6-31G(d) empiricaldispersion=gd3bj scf=xqc
 -----------------------------------------------------------

 -------------------------------
 CID_116425982_JID_9454_neutraal
 -------------------------------
 Symbolic Z-matrix:
 Charge =  0 Multiplicity = 1

 SCF Done:  E(RB3LYP) =  -948.650099489     A.U. after   16 cycles
 SCF Done:  E(RB3LYP) =  -948.659892221     A.U. after   15 cycles
 SCF Done:  E(RB3LYP) =  -948.659243302     A.U. after   15 cycles
 SCF Done:  E(RB3LYP) =  -948.661544486     A.U. after   15 cycles
 SCF Done:  E(RB3LYP) =  -948.664846066     A.U. after   13 cycles
 SCF Done:  E(RB3LYP) =  -948.666430131     A.U. after   14 cycles
 SCF Done:  E(RB3LYP) =  -948.666876630     A.U. after   13 cycles
 SCF Done:  E(RB3LYP) =  -948.666998536     A.U. after   13 cycles
 SCF Done:  E(RB3LYP) =  -948.667041469     A.U. after   12 cycles
 SCF Done:  E(RB3LYP) =  -948.667067412     A.U. after   12 cycles
 SCF Done:  E(RB3LYP) =  -948.667299131     A.U. after   12 cycles
 SCF Done:  E(RB3LYP) =  -948.667300195     A.U. after   12 cycles
 SCF Done:  E(RB3LYP) =  -948.667300296     A.U. after    9 cycles
 SCF Done:  E(RB3LYP) =  -948.667300330     A.U. after   10 cycles
 SCF Done:  E(RB3LYP) =  -948.667300380     A.U. after    9 cycles
 SCF Done:  E(RB3LYP) =  -948.667300390     A.U. after    8 cycles
 Optimization completed.
    -- Stationary point found.
 Normal termination of Gaussian 16 at Mon Dec 14 13:45:32 2020.

 --------------------------------------------------------------------
 #N Geom=AllCheck Guess=TCheck SCRF=Check GenChk RB3LYP/6-31G(d) Freq
 --------------------------------------------------------------------

 Structure from the checkpoint file:  "JID_9454.chk"
 -------------------------------
 CID_116425982_JID_9454_neutraal
 -------------------------------
 Charge =  0 Multiplicity = 1

 SCF Done:  E(RB3LYP) =  -948.667300390     A.U. after    1 cycles

  Exact polarizability: 205.489   0.961 154.887 -20.457   2.281 113.743
 Approx polarizability: 278.268   4.131 256.547 -49.053   0.964 194.317

                      1                      2                      3
                      A                      A                      A
 Frequencies --     15.9790                44.3948                56.9382
 Red. masses --      3.8719                 5.8452                 4.7740
 Frc consts  --      0.0006                 0.0068                 0.0091
 IR Inten    --      0.5819                 0.7706                 1.2962

                      4                      5                      6
                      A                      A                      A
 Frequencies --     76.8695               114.3145               122.8013
 Red. masses --      6.9568                 3.3095                 5.7148
 Frc consts  --      0.0242                 0.0255                 0.0508
 IR Inten    --      1.6371                 2.0801                 0.8428

                      7                      8                      9
                      A                      A                      A
 Frequencies --    160.6485               164.3362               185.1556
 Red. masses --      2.1162                 2.0014                 3.7732
 Frc consts  --      0.0322                 0.0318                 0.0762
 IR Inten    --      1.8320                 4.5987                 0.0469

                     10                     11                     12
                      A                      A                      A
 Frequencies --    187.0872               204.7969               233.2489
 Red. masses --      3.4467                 1.2604                 4.7454
 Frc consts  --      0.0711                 0.0311                 0.1521
 IR Inten    --      2.6424                 0.5613                 6.2942

                     13                     14                     15
                      A                      A                      A
 Frequencies --    246.7236               265.8555               301.9939
 Red. masses --      3.7824                 2.9477                 3.2537
 Frc consts  --      0.1357                 0.1228                 0.1748
 IR Inten    --      2.1055                 4.8134                 0.2661

                     16                     17                     18
                      A                      A                      A
 Frequencies --    321.8939               331.0551               340.0742
 Red. masses --      1.8799                 2.1051                 2.2413
 Frc consts  --      0.1148                 0.1359                 0.1527
 IR Inten    --     39.4071                45.8182                37.6976

                     19                     20                     21
                      A                      A                      A
 Frequencies --    367.3780               401.9343               419.3951
 Red. masses --      3.1529                 3.2323                 3.6409
 Frc consts  --      0.2507                 0.3077                 0.3773
 IR Inten    --      3.9822                 2.3640                 0.9156

                     22                     23                     24
                      A                      A                      A
 Frequencies --    448.9272               451.1990               469.7161
 Red. masses --      2.2866                 3.6907                 2.9938
 Frc consts  --      0.2715                 0.4427                 0.3892
 IR Inten    --      7.1367                 4.5685                 4.4065

                     25                     26                     27
                      A                      A                      A
 Frequencies --    488.0335               516.2730               555.2638
 Red. masses --      3.7122                 4.7393                 3.5698
 Frc consts  --      0.5209                 0.7443                 0.6485
 IR Inten    --      3.7246                 6.1024                 8.0934

                     28                     29                     30
                      A                      A                      A
 Frequencies --    588.8461               654.3775               675.9607
 Red. masses --      5.1880                 4.0025                 6.5251
 Frc consts  --      1.0599                 1.0098                 1.7566
 IR Inten    --      0.2741                 3.3092                12.5701

                     31                     32                     33
                      A                      A                      A
 Frequencies --    700.9907               744.8126               761.2271
 Red. masses --      7.9552                 3.6362                 7.2177
 Frc consts  --      2.3032                 1.1885                 2.4642
 IR Inten    --      3.9755                 0.6264                 2.0938

                     34                     35                     36
                      A                      A                      A
 Frequencies --    798.9723               803.6806               851.5278
 Red. masses --      6.7046                 8.5989                 4.0946
 Frc consts  --      2.5217                 3.2723                 1.7493
 IR Inten    --      6.2039                21.1909                15.5497

                     37                     38                     39
                      A                      A                      A
 Frequencies --    884.6179               892.8707               915.9419
 Red. masses --      1.5412                 4.9456                 2.3143
 Frc consts  --      0.7106                 2.3230                 1.1440
 IR Inten    --      8.2454                34.2763                20.9867

                     40                     41                     42
                      A                      A                      A
 Frequencies --    928.5587               956.3509               981.9631
 Red. masses --      2.9456                 2.2149                 1.8334
 Frc consts  --      1.4964                 1.1936                 1.0416
 IR Inten    --      6.2005                44.4557                 4.1676

                     43                     44                     45
                      A                      A                      A
 Frequencies --    992.4077              1018.5707              1029.6816
 Red. masses --      1.4614                 2.0505                 2.5018
 Frc consts  --      0.8480                 1.2534                 1.5628
 IR Inten    --      1.4195                 9.0638                 7.7653

                     46                     47                     48
                      A                      A                      A
 Frequencies --   1044.1788              1073.7322              1113.9681
 Red. masses --      1.9607                 2.1720                 6.8154
 Frc consts  --      1.2595                 1.4754                 4.9829
 IR Inten    --     15.9074                 8.0819                 4.2952

                     49                     50                     51
                      A                      A                      A
 Frequencies --   1138.8860              1165.3278              1182.9179
 Red. masses --      2.9839                 1.9746                 1.8579
 Frc consts  --      2.2803                 1.5799                 1.5318
 IR Inten    --    223.0131                22.7575                42.9338

                     52                     53                     54
                      A                      A                      A
 Frequencies --   1183.2896              1193.9663              1207.1245
 Red. masses --      1.4369                 2.2155                 1.4696
 Frc consts  --      1.1854                 1.8608                 1.2617
 IR Inten    --     16.3088                27.3011                10.7583

                     55                     56                     57
                      A                      A                      A
 Frequencies --   1223.5092              1259.0271              1278.7346
 Red. masses --      2.0361                 1.9334                 2.1400
 Frc consts  --      1.7958                 1.8057                 2.0617
 IR Inten    --     72.6871                13.8715                69.7716

                     58                     59                     60
                      A                      A                      A
 Frequencies --   1291.7954              1313.1109              1345.5743
 Red. masses --      1.4287                 2.1719                 2.3505
 Frc consts  --      1.4046                 2.2065                 2.5074
 IR Inten    --    100.6839                21.3318                28.0622

                     61                     62                     63
                      A                      A                      A
 Frequencies --   1348.0117              1372.3466              1386.7502
 Red. masses --      3.8726                 1.3574                 1.6218
 Frc consts  --      4.1461                 1.5062                 1.8376
 IR Inten    --    115.0201                 2.8083                22.0844

                     64                     65                     66
                      A                      A                      A
 Frequencies --   1392.0538              1405.1723              1411.5424
 Red. masses --      4.0208                 1.3768                 1.9252
 Frc consts  --      4.5907                 1.6017                 2.2601
 IR Inten    --    132.3456                 0.0645                28.0973

                     67                     68                     69
                      A                      A                      A
 Frequencies --   1417.7672              1434.3942              1451.3166
 Red. masses --      1.4697                 1.5789                 1.5032
 Frc consts  --      1.7406                 1.9141                 1.8655
 IR Inten    --     76.8818                65.8070                45.1401

                     70                     71                     72
                      A                      A                      A
 Frequencies --   1460.5646              1499.8255              1501.6713
 Red. masses --      1.5306                 1.0977                 1.1911
 Frc consts  --      1.9238                 1.4548                 1.5825
 IR Inten    --    127.5756                30.2635                53.8334

                     73                     74                     75
                      A                      A                      A
 Frequencies --   1509.9262              1510.8337              1518.5835
 Red. masses --      1.0758                 1.0492                 1.1487
 Frc consts  --      1.4450                 1.4110                 1.5608
 IR Inten    --      4.9465                 6.9493                12.1805

                     76                     77                     78
                      A                      A                      A
 Frequencies --   1521.6148              1523.1051              1531.1208
 Red. masses --      1.0740                 1.6732                 1.1270
 Frc consts  --      1.4651                 2.2869                 1.5567
 IR Inten    --     52.2938                44.5736                 2.3418

                     79                     80                     81
                      A                      A                      A
 Frequencies --   1534.7775              1569.0938              1581.3253
 Red. masses --      1.0749                 4.4557                 6.3672
 Frc consts  --      1.4918                 6.4635                 9.3808
 IR Inten    --      1.6507               164.4008               117.4329

                     82                     83                     84
                      A                      A                      A
 Frequencies --   1614.3462              1649.7843              3006.4514
 Red. masses --      9.0131                 9.2295                 1.0707
 Frc consts  --     13.8394                14.8008                 5.7020
 IR Inten    --    212.9371               959.2198                21.5358

                     85                     86                     87
                      A                      A                      A
 Frequencies --   3016.2443              3034.6532              3061.0384
 Red. masses --      1.0737                 1.0728                 1.0598
 Frc consts  --      5.7555                 5.8206                 5.8506
 IR Inten    --     42.9368                57.4620                24.0260

                     88                     89                     90
                      A                      A                      A
 Frequencies --   3067.5811              3079.9555              3092.7299
 Red. masses --      1.0370                 1.0291                 1.0924
 Frc consts  --      5.7494                 5.7520                 6.1565
 IR Inten    --      7.5997                42.6253                35.7484

                     91                     92                     93
                      A                      A                      A
 Frequencies --   3104.4907              3137.8899              3148.1025
 Red. masses --      1.1036                 1.1032                 1.1022
 Frc consts  --      6.2668                 6.4002                 6.4358
 IR Inten    --     42.3387                19.5894                19.4517

                     94                     95                     96
                      A                      A                      A
 Frequencies --   3157.4087              3184.4703              3186.7546
 Red. masses --      1.1078                 1.0910                 1.0918
 Frc consts  --      6.5067                 6.5185                 6.5329
 IR Inten    --     18.2043                 4.2951                35.3681

                     97                     98                     99
                      A                      A                      A
 Frequencies --   3188.2495              3190.1201              3722.7913
 Red. masses --      1.1067                 1.0917                 1.0657
 Frc consts  --      6.6281                 6.5457                 8.7023
 IR Inten    --     11.3381                 5.8276                 9.5455

 - Thermochemistry -
 -------------------
 Temperature   298.150 Kelvin.  Pressure   1.00000 Atm.
 Atom     1 has atomic number  6 and mass  12.00000

 Molecular mass:   268.11716 amu.
 Principal axes and moments of inertia in atomic units:
                           1         2         3
     Eigenvalues --  2630.760486863.232418047.74972
           X            0.99998   0.00411  -0.00516
           Y           -0.00418   0.99990  -0.01370
           Z            0.00511   0.01372   0.99989
 This molecule is an asymmetric top.
 Rotational symmetry number  1.
 Warning -- assumption of classical behavior for rotation
           may cause significant error
 Rotational temperatures (Kelvin)      0.03292     0.01262     0.01076
 Rotational constants (GHZ):           0.68602     0.26296     0.22425
 Zero-point vibrational energy     748943.9 (Joules/Mol)
                                  179.00189 (Kcal/Mol)
 Warning -- explicit consideration of  28 degrees of freedom as
           vibrations may cause significant error
 Vibrational temperatures:     22.99    63.87    81.92   110.60   164.47
          (Kelvin)            176.68   231.14   236.44   266.40   269.18
                              294.66   335.59   354.98   382.51   434.50
                              463.13   476.31   489.29   528.58   578.29
                              603.42   645.91   649.17   675.82   702.17
                              742.80   798.90   847.22   941.50   972.56
                             1008.57  1071.62  1095.24  1149.54  1156.32
                             1225.16  1272.77  1284.64  1317.84  1335.99
                             1375.98  1412.83  1427.85  1465.50  1481.48
                             1502.34  1544.86  1602.75  1638.60  1676.65
                             1701.96  1702.49  1717.85  1736.78  1760.36
                             1811.46  1839.81  1858.61  1889.27  1935.98
                             1939.49  1974.50  1995.22  2002.85  2021.73
                             2030.89  2039.85  2063.77  2088.12  2101.43
                             2157.91  2160.57  2172.45  2173.75  2184.90
                             2189.26  2191.41  2202.94  2208.20  2257.58
                             2275.17  2322.68  2373.67  4325.61  4339.70
                             4366.19  4404.15  4413.57  4431.37  4449.75
                             4466.67  4514.72  4529.42  4542.81  4581.74
                             4585.03  4587.18  4589.87  5356.27

 Zero-point correction=                           0.285258 (Hartree/Particle)
 Thermal correction to Energy=                    0.302920
 Thermal correction to Enthalpy=                  0.303864
 Thermal correction to Gibbs Free Energy=         0.238947
 Sum of electronic and zero-point Energies=           -948.382043
 Sum of electronic and thermal Energies=              -948.364381
 Sum of electronic and thermal Enthalpies=            -948.363437
 Sum of electronic and thermal Free Energies=         -948.428354

                     E (Thermal)             CV                S
                      KCal/Mol        Cal/Mol-Kelvin    Cal/Mol-Kelvin
 Total                  190.085             66.893            136.630
 Electronic               0.000              0.000              0.000
 Translational            0.889              2.981             42.658
 Rotational               0.889              2.981             33.341
 Vibrational            188.307             60.932             60.631
 Vibration     1          0.593              1.986              7.080
 Vibration     2          0.595              1.980              5.053
 Vibration     3          0.596              1.975              4.561
 Vibration     4          0.599              1.965              3.969
 Vibration     5          0.607              1.938              3.194
 Vibration     6          0.610              1.930              3.056
 Vibration     7          0.622              1.891              2.542
 Vibration     8          0.623              1.886              2.499
 Vibration     9          0.631              1.860              2.276
 Vibration    10          0.632              1.858              2.256
 Vibration    11          0.640              1.833              2.090
 Vibration    12          0.654              1.790              1.854
 Vibration    13          0.661              1.768              1.754
 Vibration    14          0.672              1.736              1.623
 Vibration    15          0.694              1.670              1.406
 Vibration    16          0.707              1.632              1.300
 Vibration    17          0.713              1.613              1.255
 Vibration    18          0.720              1.595              1.212
 Vibration    19          0.740              1.539              1.091
 Vibration    20          0.768              1.466              0.956
 Vibration    21          0.782              1.428              0.894
 Vibration    22          0.808              1.363              0.799
 Vibration    23          0.810              1.358              0.792
 Vibration    24          0.827              1.317              0.738
 Vibration    25          0.844              1.277              0.689
 Vibration    26          0.871              1.214              0.619
 Vibration    27          0.911              1.128              0.533
 Vibration    28          0.946              1.056              0.469

 Optimization completed.
    -- Stationary point found.
 Normal termination of Gaussian 16 at Mon Dec 14 14:03:21 2020.

 ----------------------------------------------------------------------
 # B3LYP/6-311++G(d,p) empiricaldispersion=gd3bj scf=xqc pop=npa geom=c
 heck
 ----------------------------------------------------------------------

 ---------------------------------------
 CID_116425982_JID_9454_Energie_neutraal
 ---------------------------------------
 Structure from the checkpoint file:  "JID_9454.chk"
 Charge =  0 Multiplicity = 1

 SCF Done:  E(RB3LYP) =  -948.941762059     A.U. after   15 cycles
 Normal termination of Gaussian 16 at Mon Dec 14 14:09:50 2020.

 ----------------------------------------------------------------------
 # B3LYP/6-311++G(d,p) empiricaldispersion=gd3bj scf=xqc pop=npa geom=c
 heck
 ----------------------------------------------------------------------

 -------------------------------------
 CID_116425982_JID_9454_Energie_kation
 -------------------------------------
 Structure from the checkpoint file:  "JID_9454.chk"
 Charge =  1 Multiplicity = 2

 SCF Done:  E(UB3LYP) =  -948.640528622     A.U. after   28 cycles
 Normal termination of Gaussian 16 at Mon Dec 14 14:25:45 2020.
 Gaussian 16:  ES64L-G16RevA.03 25-Dec-2016

 ----------------------------------------------------------------------
 # B3LYP/6-311++G(d,p) empiricaldispersion=gd3bj scf=xqc pop=npa geom=c
 heck
 ----------------------------------------------------------------------

 ------------------------------------
 CID_116425982_JID_9454_Energie_anion
 ------------------------------------
 Structure from the checkpoint file:  "JID_9454.chk"
 Charge = -1 Multiplicity = 2

                         Standard orientation:
 ---------------------------------------------------------------------
 Center     Atomic      Atomic             Coordinates (Angstroms)
 Number     Number       Type             X           Y           Z
 ---------------------------------------------------------------------
      1          6           0       -2.293386    0.270938   -2.019380
      2          6           0       -2.818705    0.631312   -0.631359
      3          6           0       -3.798561   -0.421313   -0.091606
      4          6           0       -3.092681   -1.736323    0.259194
      5          6           0       -1.920558   -1.475437    1.205066
      6          7           0       -1.008891   -0.459324    0.668242
      7          6           0       -1.639714    0.818222    0.355943
      8          6           0        0.284532   -0.763600    0.387562
      9          6           0        1.317682    0.197187    0.255496
     10          6           0        2.565503   -0.243723   -0.225600
     11          7           0        2.807246   -1.531418   -0.477473
     12          6           0        1.802126   -2.371729   -0.204756
     13          7           0        0.578272   -2.074554    0.195997
     14          8           0        3.543549    0.648140   -0.370733
     15          6           0        4.831639    0.153225   -0.770047
     16          7           0        1.178092    1.557610    0.754033
     17          8           0        1.560056    2.484044    0.041610
     18          8           0        0.683005    1.691014    1.877513
     19          8           0       -3.468629    1.893118   -0.790062
     20          1           0       -1.681924    1.092228   -2.405666
     21          1           0       -3.128238    0.111634   -2.708585
     22          1           0       -1.681640   -0.634786   -1.992213
     23          1           0       -4.267749   -0.017851    0.819833
     24          1           0       -4.600898   -0.577119   -0.821009
     25          1           0       -2.720642   -2.227926   -0.646615
     26          1           0       -3.793958   -2.429709    0.738030
     27          1           0       -1.347236   -2.381354    1.388738
     28          1           0       -2.298336   -1.096107    2.166544
     29          1           0       -0.932665    1.499680   -0.110800
     30          1           0       -1.995516    1.290941    1.282434
     31          1           0        2.017082   -3.429332   -0.345582
     32          1           0        4.773304   -0.324687   -1.750605
     33          1           0        5.467756    1.037385   -0.807994
     34          1           0        5.210971   -0.568531   -0.042616
     35          1           0       -3.874454    2.126237    0.060817
 ---------------------------------------------------------------------

 SCF Done:  E(UB3LYP) =  -948.969821386     A.U. after   26 cycles

 The electronic state is 2-A.
 Alpha  occ. eigenvalues --  -19.03509 -19.03043 -18.93651 -18.93613 -14.31073
 Alpha  occ. eigenvalues --  -14.21467 -14.17093 -14.17053 -10.13682 -10.13029
 Alpha  occ. eigenvalues --  -10.11816 -10.11169 -10.09458 -10.09080 -10.08555
 Alpha  occ. eigenvalues --  -10.08006 -10.07832 -10.06534 -10.06030  -1.01855
 Alpha  occ. eigenvalues --   -0.96276  -0.93499  -0.86391  -0.84473  -0.82337
 Alpha  occ. eigenvalues --   -0.74554  -0.70627  -0.67281  -0.66441  -0.60750
 Alpha  occ. eigenvalues --   -0.59934  -0.58175  -0.54155  -0.52575  -0.48902
 Alpha  occ. eigenvalues --   -0.46986  -0.45819  -0.42790  -0.42205  -0.40369
 Alpha  occ. eigenvalues --   -0.37936  -0.37149  -0.36256  -0.35765  -0.35187
 Alpha  occ. eigenvalues --   -0.34811  -0.33760  -0.32733  -0.32001  -0.31683
 Alpha  occ. eigenvalues --   -0.30576  -0.29851  -0.29324  -0.28803  -0.27680
 Alpha  occ. eigenvalues --   -0.27522  -0.26035  -0.25220  -0.24234  -0.23485
 Alpha  occ. eigenvalues --   -0.23096  -0.22650  -0.19610  -0.18158  -0.17973
 Alpha  occ. eigenvalues --   -0.13588  -0.13195  -0.12936  -0.11233  -0.10342
 Alpha  occ. eigenvalues --   -0.08267   0.03717
 Alpha virt. eigenvalues --    0.06578   0.08240   0.08387   0.08728   0.09760
 Alpha virt. eigenvalues --    0.10504   0.11303   0.11621   0.11644   0.12139
 Alpha virt. eigenvalues --    0.12403   0.12566   0.12749   0.13530   0.13840

  Beta  occ. eigenvalues --  -19.03492 -19.03040 -18.93168 -18.93050 -14.30323
  Beta  occ. eigenvalues --  -14.21414 -14.17136 -14.17113 -10.13565 -10.13023
  Beta  occ. eigenvalues --  -10.11635 -10.11169 -10.09459 -10.08773 -10.08554
  Beta  occ. eigenvalues --  -10.08005 -10.07831 -10.06529 -10.06030  -1.00677
  Beta  occ. eigenvalues --   -0.96194  -0.93491  -0.86191  -0.83503  -0.82184
  Beta  occ. eigenvalues --   -0.74481  -0.70574  -0.67042  -0.66318  -0.60660
  Beta  occ. eigenvalues --   -0.59892  -0.57838  -0.53640  -0.52512  -0.48813
  Beta  occ. eigenvalues --   -0.46397  -0.45578  -0.42650  -0.42083  -0.40194
  Beta  occ. eigenvalues --   -0.37876  -0.37012  -0.36011  -0.35456  -0.34820
  Beta  occ. eigenvalues --   -0.34469  -0.32992  -0.32269  -0.31778  -0.30724
  Beta  occ. eigenvalues --   -0.30088  -0.29280  -0.28989  -0.28435  -0.27634
  Beta  occ. eigenvalues --   -0.27417  -0.25913  -0.25039  -0.24133  -0.23343
  Beta  occ. eigenvalues --   -0.22936  -0.22537  -0.19264  -0.18102  -0.17661
  Beta  occ. eigenvalues --   -0.13519  -0.12909  -0.10794  -0.10033  -0.09368
  Beta  occ. eigenvalues --   -0.07588
  Beta virt. eigenvalues --    0.06533   0.08198   0.08361   0.08672   0.09705
  Beta virt. eigenvalues --    0.10422   0.10703   0.11267   0.11671   0.12141
  Beta virt. eigenvalues --    0.12531   0.12585   0.12786   0.13511   0.13722

 Mulliken charges and spin densities:
               1          2
     1  C   -0.474936  -0.007312
     2  C   -0.189865   0.002440
     3  C   -0.216372  -0.013268
     4  C   -0.127900  -0.005940
     5  C   -0.327775  -0.006602
     6  N    0.430336   0.016750
     7  C   -0.429693   0.002675
     8  C   -0.152608   0.114013
     9  C   -0.450516   0.027870
    10  C   -0.057455   0.034025
    11  N   -0.175930  -0.032549
    12  C   -0.104592   0.221412
    13  N   -0.166931  -0.046111
    14  O   -0.080391   0.004396
    15  C   -0.302846   0.004018
    16  N   -0.475717   0.237710
    17  O   -0.073223   0.210199
    18  O   -0.112141   0.180813
    19  O   -0.164856   0.001401
    20  H    0.189569   0.003508
    21  H    0.157150  -0.000286
    22  H    0.157291   0.001033
    23  H    0.097882   0.016407
    24  H    0.153462  -0.000490
    25  H    0.143092  -0.000643
    26  H    0.133199   0.017138
    27  H    0.210862  -0.000728
    28  H    0.119858   0.012627
    29  H    0.218608   0.015342
    30  H    0.198890   0.001982
    31  H    0.157249  -0.016902
    32  H    0.163078   0.000111
    33  H    0.135787   0.002319
    34  H    0.162618   0.003078
    35  H    0.254817  -0.000436
 Sum of Mulliken charges =  -1.00000   1.00000

 Dipole moment (field-independent basis, Debye):
    X=             -5.0252    Y=             -5.0794    Z=             -1.6737  Tot=              7.3385
 Quadrupole moment (field-independent basis, Debye-Ang):
   XX=           -128.8518   YY=           -148.0642   ZZ=           -127.2550
   XY=             -2.1316   XZ=             -7.8231   YZ=             -3.3990

 Summary of Natural Population Analysis:

                                       Natural Population
                Natural  -----------------------------------------------
    Atom  No    Charge         Core      Valence    Rydberg      Total
 -----------------------------------------------------------------------
      C    1   -0.29488      0.99961     2.28886    0.00640     3.29488
      C    2    0.12704      0.99952     1.86108    0.01236     2.87296
      C    3   -0.19954      0.99958     2.19121    0.00875     3.19954
      C    4   -0.19495      0.99963     2.18925    0.00607     3.19495
      C    5   -0.08219      0.99962     2.07393    0.00864     3.08219
      N    6   -0.24270      0.99963     2.72868    0.01439     3.74270
      C    7   -0.09208      0.99956     2.08007    0.01245     3.09208
      C    8    0.24956      0.99948     1.73600    0.01496     2.75044
      C    9   -0.03028      0.99935     2.01546    0.01547     3.03028
      C   10    0.30066      0.99944     1.68499    0.01491     2.69934
      N   11   -0.31111      0.99967     2.80209    0.00935     3.81111
      C   12    0.20194      0.99969     1.77977    0.01860     2.79806
      N   13   -0.30288      0.99968     2.79196    0.01125     3.80288
      O   14   -0.25590      0.99984     3.24669    0.00936     4.25590
      C   15   -0.10177      0.99960     2.09388    0.00828     3.10177
      N   16    0.31374      0.99972     2.15830    0.02825     3.18626
      O   17   -0.17344      0.99990     3.16583    0.00772     4.17344
      O   18   -0.20416      0.99990     3.19540    0.00886     4.20416
      O   19   -0.37482      0.99989     3.36745    0.00748     4.37482
      H   20    0.10870      0.00000     0.39046    0.00084     0.39130
      H   21    0.09588      0.00000     0.40319    0.00093     0.40412
      H   22    0.10687      0.00000     0.39235    0.00078     0.39313
      H   23    0.09085      0.00000     0.40776    0.00139     0.40915
      H   24    0.09875      0.00000     0.40002    0.00122     0.40125
      H   25    0.10012      0.00000     0.39877    0.00111     0.39988
      H   26    0.09244      0.00000     0.40522    0.00234     0.40756
      H   27    0.11796      0.00000     0.38091    0.00113     0.38204
      H   28    0.08519      0.00000     0.41368    0.00113     0.41481
      H   29    0.11987      0.00000     0.37832    0.00181     0.38013
      H   30    0.09648      0.00000     0.40235    0.00117     0.40352
      H   31    0.06943      0.00000     0.42931    0.00126     0.43057
      H   32    0.08724      0.00000     0.41159    0.00117     0.41276
      H   33    0.08582      0.00000     0.41338    0.00080     0.41418
      H   34    0.08738      0.00000     0.41142    0.00120     0.41262
      H   35    0.22478      0.00000     0.27286    0.00235     0.27522
 =======================================================================
   * Total *    0.00000     18.99332    51.76250    0.24418    71.00000

 Normal termination of Gaussian 16 at Mon Dec 14 14:40:10 2020.
