 Gaussian 16, Revision A.03,

 -----------------------------------------------------------
 # opt freq B3LYP/6-31G(d) empiricaldispersion=gd3bj scf=xqc
 -----------------------------------------------------------

 ------------------------------
 CID_90575126_JID_9369_neutraal
 ------------------------------
 Symbolic Z-matrix:
 Charge =  0 Multiplicity = 1

 SCF Done:  E(RB3LYP) =  -826.197321730     A.U. after   16 cycles
 SCF Done:  E(RB3LYP) =  -826.261108591     A.U. after   15 cycles
 SCF Done:  E(RB3LYP) =  -826.296764731     A.U. after   13 cycles
 SCF Done:  E(RB3LYP) =  -826.311101189     A.U. after   14 cycles
 SCF Done:  E(RB3LYP) =  -826.304640029     A.U. after   15 cycles
 SCF Done:  E(RB3LYP) =  -826.312241069     A.U. after   13 cycles
 SCF Done:  E(RB3LYP) =  -826.312959367     A.U. after   13 cycles
 SCF Done:  E(RB3LYP) =  -826.314626649     A.U. after   13 cycles
 SCF Done:  E(RB3LYP) =  -826.315708035     A.U. after   13 cycles
 SCF Done:  E(RB3LYP) =  -826.317301635     A.U. after   14 cycles
 SCF Done:  E(RB3LYP) =  -826.329520134     A.U. after    8 cycles
 SCF Done:  E(RB3LYP) =  -826.329520511     A.U. after    8 cycles
 SCF Done:  E(RB3LYP) =  -826.329520686     A.U. after    8 cycles
 SCF Done:  E(RB3LYP) =  -826.329520717     A.U. after    7 cycles
 Optimization completed.
    -- Stationary point found.
 Normal termination of Gaussian 16 at Sat Dec 12 11:08:29 2020.

 --------------------------------------------------------------------
 #N Geom=AllCheck Guess=TCheck SCRF=Check GenChk RB3LYP/6-31G(d) Freq
 --------------------------------------------------------------------

 Structure from the checkpoint file:  "JID_9369.chk"
 ------------------------------
 CID_90575126_JID_9369_neutraal
 ------------------------------
 Charge =  0 Multiplicity = 1

 SCF Done:  E(RB3LYP) =  -826.329520717     A.U. after    1 cycles

  Exact polarizability: 174.883  13.943 168.214 -22.550  -0.074 146.793
 Approx polarizability: 267.158  30.971 267.417 -45.622  -5.354 243.597

                      1                      2                      3
                      A                      A                      A
 Frequencies --     20.9509                43.5012                45.5571
 Red. masses --      4.3686                 3.7798                 4.3340
 Frc consts  --      0.0011                 0.0042                 0.0053
 IR Inten    --      0.5348                 0.1778                 0.7169

                      4                      5                      6
                      A                      A                      A
 Frequencies --     57.2074                72.6110                79.6924
 Red. masses --      4.5811                 4.4826                 4.8907
 Frc consts  --      0.0088                 0.0139                 0.0183
 IR Inten    --      0.6802                 1.5091                 0.8573

                      7                      8                      9
                      A                      A                      A
 Frequencies --     92.6387               121.2578               135.1082
 Red. masses --      4.9308                 5.4427                 2.8230
 Frc consts  --      0.0249                 0.0472                 0.0304
 IR Inten    --      0.3216                 4.5098                 0.3828

                     10                     11                     12
                      A                      A                      A
 Frequencies --    145.0287               152.4622               189.8512
 Red. masses --      3.0811                 1.1931                 3.8836
 Frc consts  --      0.0382                 0.0163                 0.0825
 IR Inten    --      1.3522                 0.9010                 1.8003

                     13                     14                     15
                      A                      A                      A
 Frequencies --    216.0281               220.2582               233.1451
 Red. masses --      2.6193                 3.1035                 3.3959
 Frc consts  --      0.0720                 0.0887                 0.1088
 IR Inten    --      3.3404                 4.9248                 6.0569

                     16                     17                     18
                      A                      A                      A
 Frequencies --    280.4697               294.8074               331.7598
 Red. masses --      2.4849                 3.6677                 3.8958
 Frc consts  --      0.1152                 0.1878                 0.2526
 IR Inten    --      0.5400                 2.8538                 2.8495

                     19                     20                     21
                      A                      A                      A
 Frequencies --    341.0483               377.5819               422.2815
 Red. masses --      3.4735                 2.0201                 1.9611
 Frc consts  --      0.2380                 0.1697                 0.2060
 IR Inten    --      0.4793                 1.1677                 0.8499

                     22                     23                     24
                      A                      A                      A
 Frequencies --    426.1475               445.2459               470.3268
 Red. masses --      4.3448                 4.8731                 3.5390
 Frc consts  --      0.4649                 0.5692                 0.4612
 IR Inten    --      2.2943                 4.7710                 7.1348

                     25                     26                     27
                      A                      A                      A
 Frequencies --    489.3308               524.7791               548.3739
 Red. masses --      2.5659                 4.6414                 4.6794
 Frc consts  --      0.3620                 0.7531                 0.8291
 IR Inten    --      6.0328                 6.5105                 9.9673

                     28                     29                     30
                      A                      A                      A
 Frequencies --    571.9151               584.0727               628.5291
 Red. masses --      3.9389                 5.4440                 4.4262
 Frc consts  --      0.7591                 1.0942                 1.0302
 IR Inten    --     17.8591                 9.0578                 7.2909

                     31                     32                     33
                      A                      A                      A
 Frequencies --    634.7701               683.4420               736.5071
 Red. masses --      2.0020                 1.4552                 2.5696
 Frc consts  --      0.4753                 0.4005                 0.8212
 IR Inten    --     17.0493                84.9616                20.8053

                     34                     35                     36
                      A                      A                      A
 Frequencies --    750.0382               756.4028               776.8258
 Red. masses --      3.7162                 2.2389                 1.9149
 Frc consts  --      1.2317                 0.7547                 0.6808
 IR Inten    --     22.1725                43.3726                48.2192

                     37                     38                     39
                      A                      A                      A
 Frequencies --    789.0740               807.0838               839.7322
 Red. masses --      2.6111                 3.0639                 4.3616
 Frc consts  --      0.9579                 1.1759                 1.8121
 IR Inten    --      1.7735                 9.5772                 6.8344

                     40                     41                     42
                      A                      A                      A
 Frequencies --    855.0328               879.6297               928.7473
 Red. masses --      2.3716                 1.3703                 1.5872
 Frc consts  --      1.0215                 0.6247                 0.8067
 IR Inten    --      1.4418                 3.2045                11.8312

                     43                     44                     45
                      A                      A                      A
 Frequencies --    933.2258               947.3250               976.3000
 Red. masses --      1.4722                 1.3632                 1.6786
 Frc consts  --      0.7554                 0.7208                 0.9427
 IR Inten    --     21.9092                 2.3541                 9.7101

                     46                     47                     48
                      A                      A                      A
 Frequencies --    984.7185              1011.7613              1013.9636
 Red. masses --      1.2683                 1.5534                 2.9679
 Frc consts  --      0.7246                 0.9369                 1.7978
 IR Inten    --      1.3319                 0.7554                18.9867

                     49                     50                     51
                      A                      A                      A
 Frequencies --   1016.7013              1041.0344              1045.6515
 Red. masses --      3.8906                 1.6205                 1.6808
 Frc consts  --      2.3695                 1.0348                 1.0828
 IR Inten    --     58.8563                 6.0156                 6.0417

                     52                     53                     54
                      A                      A                      A
 Frequencies --   1062.4835              1073.6761              1076.7547
 Red. masses --      1.3250                 1.9990                 1.5098
 Frc consts  --      0.8813                 1.3577                 1.0313
 IR Inten    --     10.1830                 3.0926                 4.2973

                     55                     56                     57
                      A                      A                      A
 Frequencies --   1125.6969              1141.1006              1143.2254
 Red. masses --      3.5946                 1.7496                 1.8376
 Frc consts  --      2.6838                 1.3423                 1.4150
 IR Inten    --     16.0116                 8.9213                32.9225

                     58                     59                     60
                      A                      A                      A
 Frequencies --   1155.9039              1193.8838              1194.5180
 Red. masses --      4.0498                 1.1361                 1.3286
 Frc consts  --      3.1881                 0.9541                 1.1170
 IR Inten    --     26.8428                 4.4620                33.0088

                     61                     62                     63
                      A                      A                      A
 Frequencies --   1213.3439              1253.7593              1265.4651
 Red. masses --      2.3770                 2.4784                 1.3398
 Frc consts  --      2.0618                 2.2954                 1.2641
 IR Inten    --     37.4535                30.3153                50.9951

                     64                     65                     66
                      A                      A                      A
 Frequencies --   1276.5659              1293.4257              1314.2620
 Red. masses --      1.2372                 1.1538                 1.5147
 Frc consts  --      1.1879                 1.1372                 1.5415
 IR Inten    --      2.7650                 7.5798                 0.3811

                     67                     68                     69
                      A                      A                      A
 Frequencies --   1326.2492              1345.0002              1351.4943
 Red. masses --      1.4404                 1.2345                 7.1491
 Frc consts  --      1.4927                 1.3158                 7.6936
 IR Inten    --     41.7096                 5.7602                 0.7731

                     70                     71                     72
                      A                      A                      A
 Frequencies --   1369.7128              1383.0014              1408.8054
 Red. masses --      1.3368                 1.3308                 1.3031
 Frc consts  --      1.4777                 1.4997                 1.5238
 IR Inten    --      8.4891                36.9112                17.1816

                     73                     74                     75
                      A                      A                      A
 Frequencies --   1420.4690              1438.2423              1473.8191
 Red. masses --      1.9143                 1.2539                 1.1815
 Frc consts  --      2.2757                 1.5282                 1.5120
 IR Inten    --     65.9498                 1.5085                 3.3386

                     76                     77                     78
                      A                      A                      A
 Frequencies --   1492.5746              1493.9269              1504.4734
 Red. masses --      1.3355                 1.8365                 1.2708
 Frc consts  --      1.7529                 2.4150                 1.6948
 IR Inten    --     16.0324                10.2440                21.1207

                     79                     80                     81
                      A                      A                      A
 Frequencies --   1510.7958              1516.2474              1520.9696
 Red. masses --      1.1694                 1.1177                 1.0775
 Frc consts  --      1.5726                 1.5139                 1.4686
 IR Inten    --      1.4537                12.6238                 9.5216

                     82                     83                     84
                      A                      A                      A
 Frequencies --   1528.5797              1529.4827              1542.8051
 Red. masses --      1.1393                 1.2511                 2.0289
 Frc consts  --      1.5685                 1.7244                 2.8454
 IR Inten    --     24.5752                10.3851                51.8572

                     85                     86                     87
                      A                      A                      A
 Frequencies --   1639.7896              1664.2166              1734.5758
 Red. masses --      5.6380                 6.2631                 4.4718
 Frc consts  --      8.9320                10.2202                 7.9272
 IR Inten    --      6.8336                 1.6358                 7.2038

                     88                     89                     90
                      A                      A                      A
 Frequencies --   1776.4515              2372.0274              3032.8518
 Red. masses --      7.7824                11.8237                 1.0622
 Frc consts  --     14.4700                39.1962                 5.7568
 IR Inten    --    254.1173                 0.9789                 7.6476

                     91                     92                     93
                      A                      A                      A
 Frequencies --   3038.9100              3048.8721              3053.5777
 Red. masses --      1.0504                 1.0706                 1.0587
 Frc consts  --      5.7151                 5.8636                 5.8163
 IR Inten    --     50.5922                35.4759                20.9021

                     94                     95                     96
                      A                      A                      A
 Frequencies --   3076.7109              3098.6424              3101.2817
 Red. masses --      1.0625                 1.1014                 1.0889
 Frc consts  --      5.9257                 6.2307                 6.1707
 IR Inten    --     11.7645                23.0163                23.5157

                     97                     98                     99
                      A                      A                      A
 Frequencies --   3103.6214              3122.0730              3132.8189
 Red. masses --      1.0955                 1.1034                 1.0925
 Frc consts  --      6.2173                 6.3366                 6.3172
 IR Inten    --     24.3866                16.9893                11.5544

                    100                    101                    102
                      A                      A                      A
 Frequencies --   3137.8904              3149.5779              3178.6457
 Red. masses --      1.1028                 1.0601                 1.0875
 Frc consts  --      6.3979                 6.1959                 6.4737
 IR Inten    --     10.2433                11.5234                11.2354

                    103                    104                    105
                      A                      A                      A
 Frequencies --   3200.3225              3207.0511              3217.2068
 Red. masses --      1.0927                 1.0920                 1.0893
 Frc consts  --      6.5937                 6.6176                 6.6431
 IR Inten    --     17.6673                 1.2968                 8.2036

                    106                    107                    108
                      A                      A                      A
 Frequencies --   3232.7072              3235.9111              3569.6316
 Red. masses --      1.1121                 1.0957                 1.0751
 Frc consts  --      6.8475                 6.7599                 8.0714
 IR Inten    --     18.7628                 2.3882                14.0778

 - Thermochemistry -
 -------------------
 Temperature   298.150 Kelvin.  Pressure   1.00000 Atm.
 Atom     1 has atomic number  6 and mass  12.00000

 Molecular mass:   257.14158 amu.
 Principal axes and moments of inertia in atomic units:
                           1         2         3
     Eigenvalues --  3490.990915596.227606347.77192
           X            0.99999   0.00095  -0.00355
           Y           -0.00087   0.99973   0.02309
           Z            0.00357  -0.02309   0.99973
 This molecule is an asymmetric top.
 Rotational symmetry number  1.
 Warning -- assumption of classical behavior for rotation
           may cause significant error
 Rotational temperatures (Kelvin)      0.02481     0.01548     0.01364
 Rotational constants (GHZ):           0.51697     0.32249     0.28431
 Zero-point vibrational energy     837601.4 (Joules/Mol)
                                  200.19153 (Kcal/Mol)
 Warning -- explicit consideration of  29 degrees of freedom as
           vibrations may cause significant error
 Vibrational temperatures:     30.14    62.59    65.55    82.31   104.47
          (Kelvin)            114.66   133.29   174.46   194.39   208.66
                              219.36   273.15   310.82   316.90   335.44
                              403.53   424.16   477.33   490.69   543.26
                              607.57   613.13   640.61   676.70   704.04
                              755.04   788.99   822.86   840.35   904.31
                              913.29   983.32  1059.67  1079.14  1088.29
                             1117.68  1135.30  1161.21  1208.19  1230.20
                             1265.59  1336.26  1342.70  1362.99  1404.68
                             1416.79  1455.70  1458.87  1462.81  1497.82
                             1504.46  1528.68  1544.78  1549.21  1619.63
                             1641.79  1644.85  1663.09  1717.73  1718.65
                             1745.73  1803.88  1820.72  1836.69  1860.95
                             1890.93  1908.18  1935.16  1944.50  1970.71
                             1989.83  2026.96  2043.74  2069.31  2120.50
                             2147.48  2149.43  2164.60  2173.70  2181.54
                             2188.34  2199.29  2200.58  2219.75  2359.29
                             2394.44  2495.67  2555.92  3412.82  4363.60
                             4372.31  4386.65  4393.42  4426.70  4458.26
                             4462.05  4465.42  4491.97  4507.43  4514.72
                             4531.54  4573.36  4604.55  4614.23  4628.84
                             4651.14  4655.75  5135.90

 Zero-point correction=                           0.319026 (Hartree/Particle)
 Thermal correction to Energy=                    0.338319
 Thermal correction to Enthalpy=                  0.339264
 Thermal correction to Gibbs Free Energy=         0.270157
 Sum of electronic and zero-point Energies=           -826.010495
 Sum of electronic and thermal Energies=              -825.991201
 Sum of electronic and thermal Enthalpies=            -825.990257
 Sum of electronic and thermal Free Energies=         -826.059363

                     E (Thermal)             CV                S
                      KCal/Mol        Cal/Mol-Kelvin    Cal/Mol-Kelvin
 Total                  212.299             71.793            145.446
 Electronic               0.000              0.000              0.000
 Translational            0.889              2.981             42.533
 Rotational               0.889              2.981             33.183
 Vibrational            210.521             65.832             69.730
 Vibration     1          0.593              1.986              6.542
 Vibration     2          0.595              1.980              5.093
 Vibration     3          0.595              1.979              5.001
 Vibration     4          0.596              1.975              4.551
 Vibration     5          0.599              1.967              4.081
 Vibration     6          0.600              1.963              3.898
 Vibration     7          0.602              1.954              3.604
 Vibration     8          0.609              1.931              3.080
 Vibration     9          0.613              1.918              2.872
 Vibration    10          0.616              1.908              2.736
 Vibration    11          0.619              1.900              2.641
 Vibration    12          0.633              1.854              2.229
 Vibration    13          0.645              1.817              1.992
 Vibration    14          0.647              1.810              1.957
 Vibration    15          0.654              1.790              1.855
 Vibration    16          0.680              1.710              1.531
 Vibration    17          0.689              1.683              1.446
 Vibration    18          0.714              1.612              1.252
 Vibration    19          0.721              1.593              1.207
 Vibration    20          0.748              1.518              1.049
 Vibration    21          0.785              1.422              0.884
 Vibration    22          0.788              1.413              0.871
 Vibration    23          0.805              1.371              0.810
 Vibration    24          0.827              1.316              0.737
 Vibration    25          0.845              1.274              0.685
 Vibration    26          0.880              1.195              0.599
 Vibration    27          0.904              1.143              0.548
 Vibration    28          0.928              1.092              0.501
 Vibration    29          0.941              1.066              0.478

                           ! Non-Optimized Parameters !
 Normal termination of Gaussian 16 at Sat Dec 12 11:29:49 2020.

 ----------------------------------------------------------------------
 # B3LYP/6-311++G(d,p) empiricaldispersion=gd3bj scf=xqc pop=npa geom=c
 heck
 ----------------------------------------------------------------------

 --------------------------------------
 CID_90575126_JID_9369_Energie_neutraal
 --------------------------------------
 Structure from the checkpoint file:  "JID_9369.chk"
 Charge =  0 Multiplicity = 1

 SCF Done:  E(RB3LYP) =  -826.561565519     A.U. after   16 cycles
 Normal termination of Gaussian 16 at Sat Dec 12 11:39:21 2020.

 ----------------------------------------------------------------------
 # B3LYP/6-311++G(d,p) empiricaldispersion=gd3bj scf=xqc pop=npa geom=c
 heck
 ----------------------------------------------------------------------

 ------------------------------------
 CID_90575126_JID_9369_Energie_kation
 ------------------------------------
 Structure from the checkpoint file:  "JID_9369.chk"
 Charge =  1 Multiplicity = 2

 SCF Done:  E(UB3LYP) =  -826.258438400     A.U. after   33 cycles
 SCF Done:  E(UB3LYP) =  -826.258438400     a.u. after    1 cycles
 Normal termination of Gaussian 16 at Sat Dec 12 12:07:07 2020.
 Gaussian 16:  ES64L-G16RevA.03 25-Dec-2016

 ----------------------------------------------------------------------
 # B3LYP/6-311++G(d,p) empiricaldispersion=gd3bj scf=xqc pop=npa geom=c
 heck
 ----------------------------------------------------------------------

 -----------------------------------
 CID_90575126_JID_9369_Energie_anion
 -----------------------------------
 Structure from the checkpoint file:  "JID_9369.chk"
 Charge = -1 Multiplicity = 2

                         Standard orientation:
 ---------------------------------------------------------------------
 Center     Atomic      Atomic             Coordinates (Angstroms)
 Number     Number       Type             X           Y           Z
 ---------------------------------------------------------------------
      1          6           0       -3.693004    0.443144    0.981495
      2          6           0       -2.565160    0.798815    0.046589
      3          6           0       -2.048689    2.099242   -0.004500
      4          6           0       -1.004343    2.437621   -0.864185
      5          6           0       -0.452054    1.470909   -1.705721
      6          6           0       -0.955113    0.171460   -1.675526
      7          6           0       -1.996269   -0.158082   -0.807405
      8          8           0       -2.491962   -1.455763   -0.843403
      9          6           0       -2.032305   -2.321178    0.204752
     10          6           0       -0.572009   -2.397494    0.271183
     11          6           0        0.633546   -2.319005    0.300355
     12          6           0        2.089594   -2.143643    0.264815
     13          7           0        2.500951   -1.251873   -0.818910
     14          6           0        2.765775    0.098570   -0.751774
     15          8           0        2.710159    0.786564   -1.764754
     16          6           0        3.185758    0.707418    0.578483
     17          6           0        2.065836    1.572693    1.204321
     18          6           0        0.869158    0.764003    1.616085
     19          6           0        0.519940    0.509480    2.877276
     20          1           0       -3.317774    0.063725    1.941722
     21          1           0       -4.307603    1.321417    1.201696
     22          1           0       -4.333903   -0.330107    0.547974
     23          1           0       -2.479098    2.856825    0.645947
     24          1           0       -0.622205    3.454302   -0.876881
     25          1           0        0.383400    1.709160   -2.354179
     26          1           0       -0.548606   -0.605241   -2.313905
     27          1           0       -2.427227   -1.990828    1.175476
     28          1           0       -2.474795   -3.296101   -0.021053
     29          1           0        2.431769   -1.727262    1.214850
     30          1           0        2.589561   -3.112541    0.140024
     31          1           0        2.170762   -1.517624   -1.740905
     32          1           0        3.522000   -0.042825    1.299933
     33          1           0        4.040573    1.349927    0.345466
     34          1           0        2.480991    2.103327    2.069064
     35          1           0        1.768728    2.323485    0.462310
     36          1           0        0.274362    0.347589    0.808091
     37          1           0       -0.346510   -0.102815    3.112819
     38          1           0        1.079356    0.908562    3.721729
 ---------------------------------------------------------------------

 SCF Done:  E(UB3LYP) =  -826.550264106     A.U. after   33 cycles
 SCF Done:  E(UB3LYP) =  -826.550264106     a.u. after    1 cycles

 The electronic state is 2-A.
 Alpha  occ. eigenvalues --  -19.05528 -19.00020 -14.25224 -10.18570 -10.15837
 Alpha  occ. eigenvalues --  -10.14604 -10.13694 -10.09557 -10.09051 -10.08652
 Alpha  occ. eigenvalues --  -10.08580 -10.08555 -10.08438 -10.08332 -10.08213
 Alpha  occ. eigenvalues --  -10.08202 -10.07988 -10.07620 -10.06633  -0.96959
 Alpha  occ. eigenvalues --   -0.95162  -0.83961  -0.76955  -0.71718  -0.70089
 Alpha  occ. eigenvalues --   -0.68654  -0.66944  -0.65211  -0.63957  -0.60520
 Alpha  occ. eigenvalues --   -0.58568  -0.56563  -0.51948  -0.50184  -0.49414
 Alpha  occ. eigenvalues --   -0.45526  -0.45025  -0.42945  -0.41164  -0.40863
 Alpha  occ. eigenvalues --   -0.39706  -0.39410  -0.39101  -0.37354  -0.36888
 Alpha  occ. eigenvalues --   -0.35744  -0.35026  -0.33920  -0.33134  -0.32885
 Alpha  occ. eigenvalues --   -0.32543  -0.31357  -0.30612  -0.30054  -0.29689
 Alpha  occ. eigenvalues --   -0.28132  -0.27013  -0.26605  -0.26432  -0.25380
 Alpha  occ. eigenvalues --   -0.24117  -0.20501  -0.20032  -0.18052  -0.17548
 Alpha  occ. eigenvalues --   -0.16999  -0.16527  -0.15966  -0.15281   0.04020
 Alpha virt. eigenvalues --    0.05884   0.06220   0.07005   0.07246   0.07463
 Alpha virt. eigenvalues --    0.07885   0.08249   0.08416   0.08974   0.09084
 Alpha virt. eigenvalues --    0.09436   0.10020   0.10344   0.11019   0.11604

  Beta  occ. eigenvalues --  -19.05526 -19.00015 -14.25215 -10.18557 -10.15802
  Beta  occ. eigenvalues --  -10.14564 -10.13686 -10.09545 -10.09032 -10.08649
  Beta  occ. eigenvalues --  -10.08575 -10.08542 -10.08429 -10.08331 -10.08206
  Beta  occ. eigenvalues --  -10.08199 -10.07960 -10.07620 -10.06603  -0.96947
  Beta  occ. eigenvalues --   -0.95145  -0.83936  -0.76937  -0.71695  -0.70056
  Beta  occ. eigenvalues --   -0.68625  -0.66906  -0.65177  -0.63921  -0.60475
  Beta  occ. eigenvalues --   -0.58520  -0.56515  -0.51932  -0.50154  -0.49371
  Beta  occ. eigenvalues --   -0.45482  -0.45000  -0.42913  -0.41119  -0.40832
  Beta  occ. eigenvalues --   -0.39679  -0.39355  -0.39058  -0.37325  -0.36860
  Beta  occ. eigenvalues --   -0.35702  -0.35004  -0.33891  -0.33094  -0.32853
  Beta  occ. eigenvalues --   -0.32519  -0.31320  -0.30586  -0.30023  -0.29660
  Beta  occ. eigenvalues --   -0.28097  -0.26990  -0.26583  -0.26409  -0.25353
  Beta  occ. eigenvalues --   -0.24091  -0.20482  -0.20014  -0.18027  -0.17523
  Beta  occ. eigenvalues --   -0.16970  -0.16504  -0.15937  -0.15225
  Beta virt. eigenvalues --    0.06116   0.06699   0.06924   0.07213   0.07571
  Beta virt. eigenvalues --    0.07657   0.08231   0.08392   0.08749   0.09289
  Beta virt. eigenvalues --    0.09317   0.09911   0.10320   0.10608   0.11338

 Mulliken charges and spin densities:
               1          2
     1  C    2.009050  -2.524707
     2  C   -0.558093   1.585305
     3  C    0.001524   0.020000
     4  C   -0.378597  -0.044964
     5  C    0.063004  -0.485210
     6  C   -0.424697   0.170105
     7  C   -1.543849   0.655666
     8  O   -0.046651  -0.000832
     9  C   -0.295441  -0.516141
    10  C    0.371682  -0.041002
    11  C    0.546833  -0.173121
    12  C    0.054191  -0.771621
    13  N    0.002414   0.023480
    14  C   -0.801521   0.587978
    15  O   -0.304427   0.010675
    16  C    0.902689  -1.019885
    17  C   -1.350326   0.604852
    18  C    0.244880   0.409358
    19  C   -0.118259  -0.341159
    20  H   -0.096726   0.284668
    21  H   -0.024468   0.167870
    22  H   -0.078169   0.260459
    23  H   -0.151413   0.314046
    24  H    0.059800   0.101058
    25  H    0.222821  -0.006596
    26  H   -0.005218   0.206322
    27  H    0.061724   0.115255
    28  H   -0.475378   0.672969
    29  H   -0.039929   0.185362
    30  H   -1.000980   1.240248
    31  H    0.194345   0.081876
    32  H   -0.072380   0.213546
    33  H   -0.142682   0.356520
    34  H   -0.200548   0.370230
    35  H    0.207368   0.002805
    36  H    2.597665  -2.431500
    37  H   -0.252008   0.410553
    38  H   -0.178229   0.305530
 Sum of Mulliken charges =  -1.00000   1.00000

 Dipole moment (field-independent basis, Debye):
    X=             -1.7039    Y=              3.8480    Z=             -2.4516  Tot=              4.8704
 Quadrupole moment (field-independent basis, Debye-Ang):
   XX=           -183.8799   YY=           -168.0254   ZZ=           -159.5748
   XY=              0.6713   XZ=              3.1461   YZ=              1.2252

 Summary of Natural Population Analysis:

                                       Natural Population
                Natural  -----------------------------------------------
    Atom  No    Charge         Core      Valence    Rydberg      Total
 -----------------------------------------------------------------------
      C    1   -0.29638      0.99963     2.29070    0.00604     3.29638
      C    2   -0.03343      0.99946     2.02490    0.00907     3.03343
      C    3   -0.09615      0.99952     2.08740    0.00923     3.09615
      C    4   -0.10628      0.99956     2.09718    0.00954     3.10628
      C    5   -0.10118      0.99956     2.09297    0.00865     3.10118
      C    6   -0.11389      0.99950     2.10530    0.00909     3.11389
      C    7    0.14811      0.99930     1.83870    0.01388     2.85189
      O    8   -0.28772      0.99987     3.27899    0.00886     4.28772
      C    9   -0.04153      0.99949     2.02879    0.01326     3.04153
      C   10   -0.01859      0.99922     2.01141    0.00796     3.01859
      C   11    0.00086      0.99922     1.99141    0.00851     2.99914
      C   12   -0.12456      0.99954     2.11258    0.01245     3.12456
      N   13   -0.31154      0.99967     2.80114    0.01073     3.81154
      C   14    0.34846      0.99966     1.62844    0.02344     2.65154
      O   15   -0.32591      0.99988     3.32023    0.00581     4.32591
      C   16   -0.22686      0.99957     2.21912    0.00816     3.22686
      C   17   -0.20450      0.99960     2.19503    0.00987     3.20450
      C   18   -0.09223      0.99955     2.08087    0.01181     3.09223
      C   19   -0.18658      0.99954     2.17995    0.00709     3.18658
      H   20    0.10781      0.00000     0.39042    0.00178     0.39219
      H   21    0.10275      0.00000     0.39643    0.00082     0.39725
      H   22    0.10799      0.00000     0.39087    0.00114     0.39201
      H   23    0.09961      0.00000     0.39952    0.00086     0.40039
      H   24    0.10018      0.00000     0.39899    0.00083     0.39982
      H   25    0.11268      0.00000     0.38610    0.00122     0.38732
      H   26    0.10760      0.00000     0.39099    0.00141     0.39240
      H   27    0.09732      0.00000     0.40056    0.00212     0.40268
      H   28    0.10509      0.00000     0.39320    0.00171     0.39491
      H   29    0.11693      0.00000     0.38113    0.00194     0.38307
      H   30    0.11252      0.00000     0.38438    0.00310     0.38748
      H   31    0.19283      0.00000     0.30478    0.00239     0.30717
      H   32    0.10149      0.00000     0.39688    0.00163     0.39851
      H   33    0.11375      0.00000     0.38513    0.00112     0.38625
      H   34    0.10012      0.00000     0.39870    0.00118     0.39988
      H   35    0.10697      0.00000     0.39163    0.00140     0.39303
      H   36    0.10015      0.00000     0.39518    0.00467     0.39985
      H   37    0.09523      0.00000     0.40317    0.00160     0.40477
      H   38    0.08886      0.00000     0.40993    0.00122     0.41114
 =======================================================================
   * Total *   -0.00000     18.99133    49.78309    0.22558    69.00000

 Normal termination of Gaussian 16 at Sat Dec 12 12:35:00 2020.
