 Gaussian 16, Revision A.03,

 -----------------------------------------------------------
 # opt freq B3LYP/6-31G(d) empiricaldispersion=gd3bj scf=xqc
 -----------------------------------------------------------

 ------------------------------
 CID_43133195_JID_7023_neutraal
 ------------------------------
 Symbolic Z-matrix:
 Charge =  0 Multiplicity = 1

 SCF Done:  E(RB3LYP) =  -750.189096173     A.U. after   15 cycles
 SCF Done:  E(RB3LYP) =  -750.193462281     A.U. after   13 cycles
 SCF Done:  E(RB3LYP) =  -750.194309598     A.U. after   13 cycles
 SCF Done:  E(RB3LYP) =  -750.194642002     A.U. after   13 cycles
 SCF Done:  E(RB3LYP) =  -750.194705818     A.U. after   12 cycles
 SCF Done:  E(RB3LYP) =  -750.194782686     A.U. after   11 cycles
 SCF Done:  E(RB3LYP) =  -750.194825453     A.U. after   11 cycles
 SCF Done:  E(RB3LYP) =  -750.194829834     A.U. after    9 cycles
 SCF Done:  E(RB3LYP) =  -750.194830861     A.U. after    8 cycles
 SCF Done:  E(RB3LYP) =  -750.194831186     A.U. after    7 cycles
 SCF Done:  E(RB3LYP) =  -750.194831241     A.U. after    7 cycles
 SCF Done:  E(RB3LYP) =  -750.194831268     A.U. after    6 cycles
 Optimization completed.
    -- Stationary point found.
 Normal termination of Gaussian 16 at Mon Dec 14 13:15:37 2020.

 --------------------------------------------------------------------
 #N Geom=AllCheck Guess=TCheck SCRF=Check GenChk RB3LYP/6-31G(d) Freq
 --------------------------------------------------------------------

 Structure from the checkpoint file:  "JID_7023.chk"
 ------------------------------
 CID_43133195_JID_7023_neutraal
 ------------------------------
 Charge =  0 Multiplicity = 1

 SCF Done:  E(RB3LYP) =  -750.194831268     A.U. after    1 cycles

  Exact polarizability: 258.383  -4.865 150.120  -2.880   6.869  95.726
 Approx polarizability: 331.248 -19.409 252.646  -7.636  18.927 151.987

                      1                      2                      3
                      A                      A                      A
 Frequencies --     27.2991                50.9455                61.1619
 Red. masses --      5.2036                 3.3283                 5.8345
 Frc consts  --      0.0023                 0.0051                 0.0129
 IR Inten    --      0.2206                 4.4591                 1.7237

                      4                      5                      6
                      A                      A                      A
 Frequencies --     85.0004               109.8867               113.4052
 Red. masses --      3.5713                 3.5438                 4.5299
 Frc consts  --      0.0152                 0.0252                 0.0343
 IR Inten    --      3.0028                 2.5833                 0.7082

                      7                      8                      9
                      A                      A                      A
 Frequencies --    164.0972               168.8275               184.8535
 Red. masses --      1.0355                 4.1584                 3.1420
 Frc consts  --      0.0164                 0.0698                 0.0633
 IR Inten    --      0.2244                15.1584                 1.1459

                     10                     11                     12
                      A                      A                      A
 Frequencies --    219.9695               231.5961               255.1665
 Red. masses --      5.8233                 2.4774                 2.3988
 Frc consts  --      0.1660                 0.0783                 0.0920
 IR Inten    --      1.6529                 0.7243                 6.3496

                     13                     14                     15
                      A                      A                      A
 Frequencies --    295.1286               316.2641               343.7692
 Red. masses --      2.5196                 1.2901                 2.3132
 Frc consts  --      0.1293                 0.0760                 0.1611
 IR Inten    --     13.4115               126.7038                37.1478

                     16                     17                     18
                      A                      A                      A
 Frequencies --    372.1257               408.1640               423.8777
 Red. masses --      4.7066                 3.0825                 3.1459
 Frc consts  --      0.3840                 0.3026                 0.3330
 IR Inten    --      0.6945                 0.6629                 2.6753

                     19                     20                     21
                      A                      A                      A
 Frequencies --    450.9682               466.8545               474.3884
 Red. masses --      2.1454                 3.3730                 3.0579
 Frc consts  --      0.2571                 0.4331                 0.4055
 IR Inten    --      0.1750                 1.8845                 2.1155

                     22                     23                     24
                      A                      A                      A
 Frequencies --    502.4707               523.8902               559.4322
 Red. masses --      4.6182                 3.1318                 3.3575
 Frc consts  --      0.6870                 0.5064                 0.6191
 IR Inten    --      1.7244                 5.5913                18.8548

                     25                     26                     27
                      A                      A                      A
 Frequencies --    605.7158               610.7869               651.7647
 Red. masses --      2.2665                 3.1452                 6.8940
 Frc consts  --      0.4899                 0.6913                 1.7254
 IR Inten    --     12.4561                29.2619                 0.6902

                     28                     29                     30
                      A                      A                      A
 Frequencies --    693.6942               746.3958               784.5278
 Red. masses --      3.0344                 3.8467                 4.7193
 Frc consts  --      0.8603                 1.2626                 1.7114
 IR Inten    --      1.4666                 2.0008                 0.5303

                     31                     32                     33
                      A                      A                      A
 Frequencies --    813.0750               826.6676               840.1864
 Red. masses --      2.1040                 1.3886                 1.5314
 Frc consts  --      0.8195                 0.5591                 0.6369
 IR Inten    --      7.3466                10.6638                 4.7880

                     34                     35                     36
                      A                      A                      A
 Frequencies --    852.8452               926.9484               948.9687
 Red. masses --      1.5635                 1.9485                 2.1660
 Frc consts  --      0.6700                 0.9864                 1.1493
 IR Inten    --     26.4985                38.8593                21.7060

                     37                     38                     39
                      A                      A                      A
 Frequencies --    952.5862               967.8647               976.9379
 Red. masses --      1.4630                 2.2089                 1.6394
 Frc consts  --      0.7822                 1.2191                 0.9219
 IR Inten    --      0.6460                57.9966                 6.4688

                     40                     41                     42
                      A                      A                      A
 Frequencies --    992.1557               996.7378              1016.1297
 Red. masses --      1.3081                 1.8052                 1.9241
 Frc consts  --      0.7587                 1.0566                 1.1705
 IR Inten    --      2.5253                 9.9070                 8.0198

                     43                     44                     45
                      A                      A                      A
 Frequencies --   1028.9941              1055.5661              1066.3937
 Red. masses --      2.8866                 1.8406                 2.5989
 Frc consts  --      1.8008                 1.2083                 1.7413
 IR Inten    --      0.2621                 1.8224                23.5949

                     46                     47                     48
                      A                      A                      A
 Frequencies --   1076.9999              1104.5430              1107.3759
 Red. masses --      3.1670                 2.3222                 2.1382
 Frc consts  --      2.1643                 1.6692                 1.5448
 IR Inten    --    113.9730                 9.0119                19.6417

                     49                     50                     51
                      A                      A                      A
 Frequencies --   1134.2137              1148.7051              1159.3842
 Red. masses --      2.3290                 2.2437                 1.4195
 Frc consts  --      1.7652                 1.7444                 1.1242
 IR Inten    --      4.8299                 9.4722                 5.2552

                     52                     53                     54
                      A                      A                      A
 Frequencies --   1188.0946              1200.5244              1223.2378
 Red. masses --      1.7206                 1.4114                 1.4267
 Frc consts  --      1.4310                 1.1985                 1.2578
 IR Inten    --     22.2925               116.0879               171.7931

                     55                     56                     57
                      A                      A                      A
 Frequencies --   1231.9320              1277.4252              1291.4048
 Red. masses --      1.3207                 1.5848                 1.4432
 Frc consts  --      1.1809                 1.5237                 1.4181
 IR Inten    --      7.9194               199.4308                24.7844

                     58                     59                     60
                      A                      A                      A
 Frequencies --   1312.2226              1313.7831              1329.3970
 Red. masses --      2.3912                 1.3471                 1.3460
 Frc consts  --      2.4260                 1.3699                 1.4015
 IR Inten    --    204.8099                10.6540                11.7946

                     61                     62                     63
                      A                      A                      A
 Frequencies --   1349.9661              1359.3414              1363.1587
 Red. masses --      1.3436                 2.0369                 2.2493
 Frc consts  --      1.4427                 2.2176                 2.4626
 IR Inten    --     15.0832                 3.6195                 6.1042

                     64                     65                     66
                      A                      A                      A
 Frequencies --   1398.3377              1407.8916              1408.5740
 Red. masses --      1.4525                 1.5173                 1.2909
 Frc consts  --      1.6734                 1.7720                 1.5090
 IR Inten    --     20.3238                 6.5542                10.6602

                     67                     68                     69
                      A                      A                      A
 Frequencies --   1409.8663              1415.4829              1425.0296
 Red. masses --      1.3703                 1.4990                 1.6353
 Frc consts  --      1.6048                 1.7696                 1.9566
 IR Inten    --     79.2563                19.8054                 2.3447

                     70                     71                     72
                      A                      A                      A
 Frequencies --   1437.5152              1442.4626              1476.3103
 Red. masses --      1.4169                 1.3947                 3.1405
 Frc consts  --      1.7251                 1.7098                 4.0327
 IR Inten    --    140.1042                20.0990                47.6617

                     73                     74                     75
                      A                      A                      A
 Frequencies --   1501.1562              1505.6200              1509.0319
 Red. masses --      1.0588                 1.0954                 1.0484
 Frc consts  --      1.4058                 1.4630                 1.4066
 IR Inten    --     11.2273                 0.5503                 8.8355

                     76                     77                     78
                      A                      A                      A
 Frequencies --   1517.5260              1523.8711              1531.2235
 Red. masses --      1.0933                 1.0905                 1.0892
 Frc consts  --      1.4835                 1.4920                 1.5047
 IR Inten    --      7.3081                 1.7420                 9.9676

                     79                     80                     81
                      A                      A                      A
 Frequencies --   1536.3287              1565.9139              1612.3772
 Red. masses --      1.1063                 2.5994                 5.9255
 Frc consts  --      1.5384                 3.7555                 9.0763
 IR Inten    --     22.3734                37.1425                44.4222

                     82                     83                     84
                      A                      A                      A
 Frequencies --   1667.4242              1768.7364              2948.8707
 Red. masses --      5.6012                10.4782                 1.0733
 Frc consts  --      9.1753                19.3136                 5.4989
 IR Inten    --    350.5746               199.2616                40.3931

                     85                     86                     87
                      A                      A                      A
 Frequencies --   2957.3950              2985.9032              3020.3809
 Red. masses --      1.0748                 1.0711                 1.0802
 Frc consts  --      5.5385                 5.6262                 5.8063
 IR Inten    --     82.4555                39.2307                12.7712

                     88                     89                     90
                      A                      A                      A
 Frequencies --   3031.3608              3041.2779              3053.2921
 Red. masses --      1.0619                 1.0612                 1.0382
 Frc consts  --      5.7495                 5.7831                 5.7023
 IR Inten    --     29.1735                47.5967                 3.4612

                     91                     92                     93
                      A                      A                      A
 Frequencies --   3080.2759              3083.0901              3095.8517
 Red. masses --      1.1022                 1.1023                 1.0947
 Frc consts  --      6.1617                 6.1731                 6.1815
 IR Inten    --     34.1942                39.1715                62.6419

                     94                     95                     96
                      A                      A                      A
 Frequencies --   3112.6281              3115.4018              3152.2224
 Red. masses --      1.1000                 1.0891                 1.0878
 Frc consts  --      6.2790                 6.2282                 6.3687
 IR Inten    --     11.6268                21.2832                14.4452

                     97                     98                     99
                      A                      A                      A
 Frequencies --   3169.8177              3202.3319              3206.0722
 Red. masses --      1.1012                 1.0878                 1.0873
 Frc consts  --      6.5190                 6.5726                 6.5851
 IR Inten    --     16.2222                18.0239                 6.5630

                    100                    101                    102
                      A                      A                      A
 Frequencies --   3225.6305              3230.9287              3758.1376
 Red. masses --      1.0930                 1.0916                 1.0662
 Frc consts  --      6.7002                 6.7141                 8.8719
 IR Inten    --      8.3580                11.4011                10.9973

 - Thermochemistry -
 -------------------
 Temperature   298.150 Kelvin.  Pressure   1.00000 Atm.
 Atom     1 has atomic number  6 and mass  12.00000

 Molecular mass:   233.14158 amu.
 Principal axes and moments of inertia in atomic units:
                           1         2         3
     Eigenvalues --   969.90605********************
           X            0.99997   0.00716   0.00340
           Y           -0.00717   0.99997   0.00116
           Z           -0.00339  -0.00118   0.99999
 This molecule is an asymmetric top.
 Rotational symmetry number  1.
 Warning -- assumption of classical behavior for rotation
           may cause significant error
 Rotational temperatures (Kelvin)      0.08930     0.00768     0.00721
 Rotational constants (GHZ):           1.86074     0.16006     0.15033
 Zero-point vibrational energy     818650.9 (Joules/Mol)
                                  195.66226 (Kcal/Mol)
 Warning -- explicit consideration of  26 degrees of freedom as
           vibrations may cause significant error
 Vibrational temperatures:     39.28    73.30    88.00   122.30   158.10
          (Kelvin)            163.16   236.10   242.91   265.96   316.49
                              333.22   367.13   424.62   455.03   494.61
                              535.41   587.26   609.87   648.84   671.70
                              682.54   722.94   753.76   804.90   871.49
                              878.79   937.74   998.07  1073.90  1128.76
                             1169.83  1189.39  1208.84  1227.05  1333.67
                             1365.35  1370.56  1392.54  1405.60  1427.49
                             1434.08  1461.98  1480.49  1518.72  1534.30
                             1549.56  1589.19  1593.27  1631.88  1652.73
                             1668.10  1709.40  1727.29  1759.97  1772.48
                             1837.93  1858.04  1888.00  1890.24  1912.71
                             1942.30  1955.79  1961.28  2011.90  2025.64
                             2026.62  2028.48  2036.56  2050.30  2068.26
                             2075.38  2124.08  2159.83  2166.25  2171.16
                             2183.38  2192.51  2203.09  2210.43  2253.00
                             2319.85  2399.05  2544.82  4242.77  4255.03
                             4296.05  4345.65  4361.45  4375.72  4393.01
                             4431.83  4435.88  4454.24  4478.38  4482.37
                             4535.35  4560.66  4607.44  4612.82  4640.96
                             4648.59  5407.12

 Zero-point correction=                           0.311808 (Hartree/Particle)
 Thermal correction to Energy=                    0.328009
 Thermal correction to Enthalpy=                  0.328953
 Thermal correction to Gibbs Free Energy=         0.267484
 Sum of electronic and zero-point Energies=           -749.883024
 Sum of electronic and thermal Energies=              -749.866823
 Sum of electronic and thermal Enthalpies=            -749.865878
 Sum of electronic and thermal Free Energies=         -749.927348

                     E (Thermal)             CV                S
                      KCal/Mol        Cal/Mol-Kelvin    Cal/Mol-Kelvin
 Total                  205.829             62.460            129.373
 Electronic               0.000              0.000              0.000
 Translational            0.889              2.981             42.241
 Rotational               0.889              2.981             33.240
 Vibrational            204.051             56.499             53.892
 Vibration     1          0.593              1.984              6.017
 Vibration     2          0.595              1.977              4.780
 Vibration     3          0.597              1.973              4.419
 Vibration     4          0.601              1.960              3.772
 Vibration     5          0.606              1.941              3.271
 Vibration     6          0.607              1.938              3.210
 Vibration     7          0.623              1.887              2.502
 Vibration     8          0.625              1.881              2.448
 Vibration     9          0.631              1.861              2.279
 Vibration    10          0.647              1.811              1.959
 Vibration    11          0.653              1.793              1.867
 Vibration    12          0.666              1.754              1.695
 Vibration    13          0.689              1.683              1.444
 Vibration    14          0.703              1.643              1.329
 Vibration    15          0.723              1.588              1.195
 Vibration    16          0.744              1.529              1.071
 Vibration    17          0.773              1.452              0.933
 Vibration    18          0.786              1.418              0.879
 Vibration    19          0.810              1.359              0.793
 Vibration    20          0.824              1.324              0.746
 Vibration    21          0.831              1.307              0.725
 Vibration    22          0.858              1.245              0.652
 Vibration    23          0.879              1.197              0.601
 Vibration    24          0.915              1.119              0.525
 Vibration    25          0.964              1.020              0.440
 Vibration    26          0.970              1.009              0.431

 Optimization completed.
    -- Stationary point found.
 Normal termination of Gaussian 16 at Mon Dec 14 13:27:27 2020.

 ----------------------------------------------------------------------
 # B3LYP/6-311++G(d,p) empiricaldispersion=gd3bj scf=xqc pop=npa geom=c
 heck
 ----------------------------------------------------------------------

 --------------------------------------
 CID_43133195_JID_7023_Energie_neutraal
 --------------------------------------
 Structure from the checkpoint file:  "JID_7023.chk"
 Charge =  0 Multiplicity = 1

 SCF Done:  E(RB3LYP) =  -750.408915075     A.U. after   15 cycles
 Normal termination of Gaussian 16 at Mon Dec 14 13:33:51 2020.

 ----------------------------------------------------------------------
 # B3LYP/6-311++G(d,p) empiricaldispersion=gd3bj scf=xqc pop=npa geom=c
 heck
 ----------------------------------------------------------------------

 ------------------------------------
 CID_43133195_JID_7023_Energie_kation
 ------------------------------------
 Structure from the checkpoint file:  "JID_7023.chk"
 Charge =  1 Multiplicity = 2

 SCF Done:  E(UB3LYP) =  -750.131187314     A.U. after   24 cycles
 Normal termination of Gaussian 16 at Mon Dec 14 13:48:18 2020.
 Gaussian 16:  ES64L-G16RevA.03 25-Dec-2016

 ----------------------------------------------------------------------
 # B3LYP/6-311++G(d,p) empiricaldispersion=gd3bj scf=xqc pop=npa geom=c
 heck
 ----------------------------------------------------------------------

 -----------------------------------
 CID_43133195_JID_7023_Energie_anion
 -----------------------------------
 Structure from the checkpoint file:  "JID_7023.chk"
 Charge = -1 Multiplicity = 2

                         Standard orientation:
 ---------------------------------------------------------------------
 Center     Atomic      Atomic             Coordinates (Angstroms)
 Number     Number       Type             X           Y           Z
 ---------------------------------------------------------------------
      1          6           0        5.696083    0.970761    0.185860
      2          6           0        4.839771   -0.262816   -0.056204
      3          8           0        5.365284   -1.348651   -0.265471
      4          6           0        3.360878   -0.117417   -0.033074
      5          6           0        2.565543   -1.252433   -0.271125
      6          6           0        1.185986   -1.175924   -0.266518
      7          6           0        0.524121    0.048658   -0.015380
      8          6           0        1.321718    1.184691    0.225859
      9          6           0        2.710109    1.097857    0.210215
     10          7           0       -0.873726    0.109166   -0.052349
     11          6           0       -1.625068   -0.913116    0.685422
     12          6           0       -3.044905   -1.058181    0.141956
     13          6           0       -3.786820    0.283316    0.169128
     14          6           0       -2.946765    1.333720   -0.565157
     15          6           0       -1.519116    1.417752   -0.018295
     16          6           0       -5.193378    0.184438   -0.426963
     17          8           0       -6.039088   -0.722818    0.269365
     18          1           0        6.746998    0.681989    0.135239
     19          1           0        5.486624    1.408485    1.169085
     20          1           0        5.494672    1.743530   -0.565304
     21          1           0        3.067318   -2.192353   -0.475734
     22          1           0        0.604575   -2.062244   -0.497004
     23          1           0        0.861391    2.138366    0.453009
     24          1           0        3.286297    1.996338    0.408389
     25          1           0       -1.669975   -0.640940    1.756024
     26          1           0       -1.097605   -1.864441    0.622034
     27          1           0       -3.577668   -1.803182    0.745736
     28          1           0       -2.995630   -1.431955   -0.890723
     29          1           0       -3.895891    0.589521    1.220337
     30          1           0       -2.896089    1.078909   -1.632291
     31          1           0       -3.415015    2.323065   -0.488522
     32          1           0       -0.939180    2.105427   -0.638186
     33          1           0       -1.536436    1.829270    1.008291
     34          1           0       -5.689993    1.158596   -0.364158
     35          1           0       -5.123023   -0.078165   -1.496130
     36          1           0       -5.733807   -1.620455    0.070858
 ---------------------------------------------------------------------

 SCF Done:  E(UB3LYP) =  -750.412451336     A.U. after   33 cycles
 SCF Done:  E(UB3LYP) =  -750.412451336     a.u. after    1 cycles

 The electronic state is 2-A.
 Alpha  occ. eigenvalues --  -19.03993 -18.94691 -14.21823 -10.13053 -10.10452
 Alpha  occ. eigenvalues --  -10.10291 -10.09586 -10.08566 -10.08415 -10.08146
 Alpha  occ. eigenvalues --  -10.07862 -10.04987 -10.04841 -10.04839 -10.04816
 Alpha  occ. eigenvalues --  -10.04306 -10.03405  -0.94066  -0.88548  -0.84447
 Alpha  occ. eigenvalues --   -0.73745  -0.71400  -0.67057  -0.64276  -0.62552
 Alpha  occ. eigenvalues --   -0.61342  -0.59010  -0.54585  -0.53456  -0.49212
 Alpha  occ. eigenvalues --   -0.48099  -0.46573  -0.43101  -0.42454  -0.41853
 Alpha  occ. eigenvalues --   -0.37382  -0.36900  -0.36415  -0.35734  -0.34310
 Alpha  occ. eigenvalues --   -0.33653  -0.32486  -0.32418  -0.31568  -0.31504
 Alpha  occ. eigenvalues --   -0.30068  -0.29155  -0.28473  -0.27576  -0.26542
 Alpha  occ. eigenvalues --   -0.26462  -0.25843  -0.24936  -0.24260  -0.23677
 Alpha  occ. eigenvalues --   -0.23113  -0.22359  -0.21333  -0.19173  -0.16723
 Alpha  occ. eigenvalues --   -0.13679  -0.10826  -0.09261   0.03873
 Alpha virt. eigenvalues --    0.05347   0.06557   0.07414   0.07951   0.08549
 Alpha virt. eigenvalues --    0.09241   0.09778   0.10189   0.10593   0.10785
 Alpha virt. eigenvalues --    0.11214   0.11569   0.11957   0.12603   0.13057

  Beta  occ. eigenvalues --  -19.03970 -18.94311 -14.21827 -10.13040 -10.10447
  Beta  occ. eigenvalues --  -10.10263 -10.09332 -10.08559 -10.08144 -10.08136
  Beta  occ. eigenvalues --  -10.07838 -10.05054 -10.04868 -10.04864 -10.04701
  Beta  occ. eigenvalues --  -10.04207 -10.03330  -0.94020  -0.87847  -0.84339
  Beta  occ. eigenvalues --   -0.73599  -0.71277  -0.67025  -0.63968  -0.62398
  Beta  occ. eigenvalues --   -0.61180  -0.58903  -0.54508  -0.53344  -0.48939
  Beta  occ. eigenvalues --   -0.47995  -0.46431  -0.43025  -0.42358  -0.41531
  Beta  occ. eigenvalues --   -0.37329  -0.36853  -0.36351  -0.35581  -0.34221
  Beta  occ. eigenvalues --   -0.33490  -0.32396  -0.32331  -0.31456  -0.31023
  Beta  occ. eigenvalues --   -0.29997  -0.29088  -0.28414  -0.27309  -0.26421
  Beta  occ. eigenvalues --   -0.26410  -0.25703  -0.24456  -0.24090  -0.23601
  Beta  occ. eigenvalues --   -0.23050  -0.21344  -0.20806  -0.19134  -0.15933
  Beta  occ. eigenvalues --   -0.13215  -0.10482  -0.08617
  Beta virt. eigenvalues --    0.05907   0.06774   0.07465   0.07929   0.08485
  Beta virt. eigenvalues --    0.08863   0.09294   0.09952   0.10212   0.10558
  Beta virt. eigenvalues --    0.10970   0.11207   0.11537   0.12059   0.12599

 Mulliken charges and spin densities:
               1          2
     1  C   -0.452386  -0.021044
     2  C   -0.263232   0.124786
     3  O   -0.379232   0.136088
     4  C    1.356290  -0.048210
     5  C   -0.133484   0.224789
     6  C   -0.205123   0.038332
     7  C   -0.416174   0.104531
     8  C   -0.448440  -0.076045
     9  C   -0.796635   0.108441
    10  N    0.330275   0.062642
    11  C   -0.633669  -0.023022
    12  C    0.568810  -0.828761
    13  C   -0.524579   0.958162
    14  C   -0.211042  -0.381016
    15  C    0.069591  -0.239131
    16  C    0.225132  -0.808860
    17  O   -0.241955   0.004332
    18  H    0.166334  -0.001471
    19  H    0.119468   0.007957
    20  H    0.095630   0.034198
    21  H    0.174509  -0.005530
    22  H    0.059069   0.053469
    23  H    0.067098   0.057766
    24  H    0.119010   0.006290
    25  H    0.035678   0.104644
    26  H    0.108750   0.023771
    27  H   -0.024465   0.121942
    28  H   -0.034006   0.195723
    29  H    0.056049   0.123506
    30  H    0.135266   0.024836
    31  H   -0.031314   0.173946
    32  H    0.113900   0.039339
    33  H    0.029390   0.108026
    34  H   -0.003448   0.171791
    35  H   -0.008747   0.153895
    36  H   -0.022316   0.269890
 Sum of Mulliken charges =  -1.00000   1.00000

 Dipole moment (field-independent basis, Debye):
    X=             -3.9704    Y=              3.1172    Z=             -0.0194  Tot=              5.0479
 Quadrupole moment (field-independent basis, Debye-Ang):
   XX=           -231.5982   YY=           -122.9107   ZZ=           -120.1204
   XY=             10.9569   XZ=              8.1010   YZ=             -0.3608

 Summary of Natural Population Analysis:

                                       Natural Population
                Natural  -----------------------------------------------
    Atom  No    Charge         Core      Valence    Rydberg      Total
 -----------------------------------------------------------------------
      C    1   -0.33142      0.99964     2.32773    0.00405     3.33142
      C    2    0.30017      0.99964     1.68058    0.01960     2.69983
      O    3   -0.27050      0.99988     3.26399    0.00663     4.27050
      C    4   -0.07832      0.99947     2.06724    0.01162     3.07832
      C    5   -0.05112      0.99954     2.04298    0.00859     3.05112
      C    6   -0.13674      0.99953     2.12908    0.00812     3.13674
      C    7    0.13888      0.99949     1.85025    0.01138     2.86112
      C    8   -0.15241      0.99954     2.14514    0.00773     3.15241
      C    9   -0.05522      0.99955     2.04732    0.00835     3.05522
      N   10   -0.26266      0.99965     2.75230    0.01071     3.76266
      C   11   -0.07572      0.99961     2.06471    0.01141     3.07572
      C   12   -0.19946      0.99961     2.18799    0.01187     3.19946
      C   13   -0.12475      0.99958     2.11567    0.00950     3.12475
      C   14   -0.19030      0.99961     2.18293    0.00777     3.19030
      C   15   -0.08045      0.99962     2.07145    0.00938     3.08045
      C   16   -0.00236      0.99956     1.99067    0.01213     3.00236
      O   17   -0.36889      0.99990     3.36241    0.00658     4.36889
      H   18    0.10320      0.00000     0.39556    0.00124     0.39680
      H   19    0.10153      0.00000     0.39756    0.00092     0.39847
      H   20    0.10118      0.00000     0.39684    0.00197     0.39882
      H   21    0.10708      0.00000     0.39181    0.00110     0.39292
      H   22    0.09531      0.00000     0.40361    0.00108     0.40469
      H   23    0.09625      0.00000     0.40230    0.00145     0.40375
      H   24    0.09368      0.00000     0.40525    0.00107     0.40632
      H   25    0.08195      0.00000     0.41658    0.00147     0.41805
      H   26    0.10211      0.00000     0.39664    0.00126     0.39789
      H   27    0.09919      0.00000     0.39953    0.00127     0.40081
      H   28    0.09667      0.00000     0.40162    0.00171     0.40333
      H   29    0.09621      0.00000     0.40169    0.00210     0.40379
      H   30    0.09731      0.00000     0.40113    0.00156     0.40269
      H   31    0.09861      0.00000     0.39999    0.00140     0.40139
      H   32    0.10140      0.00000     0.39689    0.00170     0.39860
      H   33    0.08187      0.00000     0.41607    0.00206     0.41813
      H   34    0.08500      0.00000     0.41360    0.00139     0.41500
      H   35    0.07425      0.00000     0.42418    0.00157     0.42575
      H   36    0.22845      0.00000     0.26798    0.00356     0.27155
 =======================================================================
   * Total *    0.00000     16.99341    45.81128    0.19530    63.00000

 Normal termination of Gaussian 16 at Mon Dec 14 14:08:23 2020.
