 Gaussian 16, Revision A.03,

 -----------------------------------------------------------
 # opt freq B3LYP/6-31G(d) empiricaldispersion=gd3bj scf=xqc
 -----------------------------------------------------------

 -----------------------------
 CID_14147074_JID_305_neutraal
 -----------------------------
 Symbolic Z-matrix:
 Charge =  0 Multiplicity = 1

 SCF Done:  E(RB3LYP) =  -390.710003000     A.U. after   13 cycles
 SCF Done:  E(RB3LYP) =  -390.712945519     A.U. after   11 cycles
 SCF Done:  E(RB3LYP) =  -390.713338901     A.U. after   10 cycles
 SCF Done:  E(RB3LYP) =  -390.713557805     A.U. after   11 cycles
 SCF Done:  E(RB3LYP) =  -390.713664475     A.U. after   10 cycles
 SCF Done:  E(RB3LYP) =  -390.713686716     A.U. after    9 cycles
 SCF Done:  E(RB3LYP) =  -390.713696444     A.U. after    9 cycles
 SCF Done:  E(RB3LYP) =  -390.713697368     A.U. after    8 cycles
 SCF Done:  E(RB3LYP) =  -390.713697365     A.U. after    6 cycles
 Optimization completed.
    -- Stationary point found.
 Normal termination of Gaussian 16 at Tue Dec  8 10:22:30 2020.

 --------------------------------------------------------------------
 #N Geom=AllCheck Guess=TCheck SCRF=Check GenChk RB3LYP/6-31G(d) Freq
 --------------------------------------------------------------------

 Structure from the checkpoint file:  "JID_305.chk"
 -----------------------------
 CID_14147074_JID_305_neutraal
 -----------------------------
 Charge =  0 Multiplicity = 1

 SCF Done:  E(RB3LYP) =  -390.713697365     A.U. after    1 cycles

  Exact polarizability: 124.753   0.001 105.965   0.001  -9.489  74.876
 Approx polarizability: 164.512   0.001 152.507   0.003 -19.857 113.846

                      1                      2                      3
                      A                      A                      A
 Frequencies --     58.4733                74.6663                86.0311
 Red. masses --      2.6628                 2.5207                 2.5648
 Frc consts  --      0.0054                 0.0083                 0.0112
 IR Inten    --      0.0064                 0.0000                 0.0407

                      4                      5                      6
                      A                      A                      A
 Frequencies --    121.5748               174.2971               196.7903
 Red. masses --      2.7654                 2.3516                 1.6138
 Frc consts  --      0.0241                 0.0421                 0.0368
 IR Inten    --      0.0045                 0.8629                 0.1285

                      7                      8                      9
                      A                      A                      A
 Frequencies --    218.2837               270.6667               307.3323
 Red. masses --      1.0782                 1.4458                 2.8992
 Frc consts  --      0.0303                 0.0624                 0.1613
 IR Inten    --      0.0001                 0.0571                 0.1218

                     10                     11                     12
                      A                      A                      A
 Frequencies --    363.8209               389.6438               391.3931
 Red. masses --      2.1436                 1.9634                 2.4127
 Frc consts  --      0.1672                 0.1756                 0.2178
 IR Inten    --      0.0071                 0.0003                 7.8930

                     13                     14                     15
                      A                      A                      A
 Frequencies --    476.0765               566.0382               663.2545
 Red. masses --      3.0537                 2.9617                 2.5086
 Frc consts  --      0.4078                 0.5591                 0.6502
 IR Inten    --      0.7356                 0.9742                 2.4656

                     16                     17                     18
                      A                      A                      A
 Frequencies --    703.9614               770.3806               795.0702
 Red. masses --      1.2897                 3.2400                 1.6528
 Frc consts  --      0.3765                 1.1329                 0.6156
 IR Inten    --     28.9510                 1.0479                 0.6818

                     19                     20                     21
                      A                      A                      A
 Frequencies --    798.4141               802.8072               900.8354
 Red. masses --      1.3438                 2.4156                 2.1264
 Frc consts  --      0.5047                 0.9173                 1.0167
 IR Inten    --      0.6420                 0.3193                 5.3721

                     22                     23                     24
                      A                      A                      A
 Frequencies --    940.9917               942.3161               968.5728
 Red. masses --      1.4629                 2.0453                 1.7838
 Frc consts  --      0.7632                 1.0701                 0.9859
 IR Inten    --      0.2503                 8.0032                 4.1255

                     25                     26                     27
                      A                      A                      A
 Frequencies --    976.2486               992.1394              1013.3090
 Red. masses --      1.3141                 2.7492                 1.9298
 Frc consts  --      0.7379                 1.5944                 1.1675
 IR Inten    --      0.0641                 0.1348                 4.5941

                     28                     29                     30
                      A                      A                      A
 Frequencies --   1017.2588              1059.4845              1079.3283
 Red. masses --      2.4498                 1.7675                 1.6379
 Frc consts  --      1.4936                 1.1689                 1.1242
 IR Inten    --      0.2456                 0.2386                 6.7002

                     31                     32                     33
                      A                      A                      A
 Frequencies --   1107.4522              1140.3684              1158.5548
 Red. masses --      1.7985                 1.1033                 3.6131
 Frc consts  --      1.2996                 0.8453                 2.8574
 IR Inten    --      3.3779                 1.1805                 0.2656

                     34                     35                     36
                      A                      A                      A
 Frequencies --   1165.7432              1175.0007              1196.9950
 Red. masses --      1.6802                 1.1132                 1.1425
 Frc consts  --      1.3453                 0.9055                 0.9644
 IR Inten    --      2.7428                 0.0423                 1.0621

                     37                     38                     39
                      A                      A                      A
 Frequencies --   1260.9657              1306.9119              1308.0117
 Red. masses --      2.4437                 1.2210                 1.4699
 Frc consts  --      2.2893                 1.2287                 1.4817
 IR Inten    --      0.6437                 4.1069                 4.2368

                     40                     41                     42
                      A                      A                      A
 Frequencies --   1316.9649              1342.2572              1372.0073
 Red. masses --      1.3436                 1.6070                 1.4420
 Frc consts  --      1.3730                 1.7058                 1.5992
 IR Inten    --      1.0431                 1.0630                 3.2310

                     43                     44                     45
                      A                      A                      A
 Frequencies --   1373.1523              1393.6315              1432.8027
 Red. masses --      1.5896                 1.8141                 1.2182
 Frc consts  --      1.7659                 2.0759                 1.4734
 IR Inten    --      1.3978                 0.3428                 0.1385

                     46                     47                     48
                      A                      A                      A
 Frequencies --   1436.7515              1500.5669              1505.6869
 Red. masses --      1.2241                 1.0828                 1.0985
 Frc consts  --      1.4888                 1.4366                 1.4673
 IR Inten    --      4.7792                 0.4582                 1.6235

                     49                     50                     51
                      A                      A                      A
 Frequencies --   1516.1806              1525.2894              1527.4214
 Red. masses --      1.0570                 1.0521                 1.0427
 Frc consts  --      1.4317                 1.4421                 1.4333
 IR Inten    --      0.8601                 0.7530                 2.4128

                     52                     53                     54
                      A                      A                      A
 Frequencies --   1528.0643              1538.5941              1540.0145
 Red. masses --      1.0416                 1.0828                 1.0882
 Frc consts  --      1.4329                 1.5102                 1.5206
 IR Inten    --      5.0895                 0.4693                 8.6226

                     55                     56                     57
                      A                      A                      A
 Frequencies --   1707.2668              1765.2119              3003.2272
 Red. masses --      5.9017                 9.3281                 1.0598
 Frc consts  --     10.1351                17.1252                 5.6318
 IR Inten    --      5.1241                 0.0183                67.3073

                     58                     59                     60
                      A                      A                      A
 Frequencies --   3006.1228              3020.8938              3020.9375
 Red. masses --      1.0605                 1.0992                 1.1010
 Frc consts  --      5.6464                 5.9099                 5.9197
 IR Inten    --      0.4352                 6.7727                55.3246

                     61                     62                     63
                      A                      A                      A
 Frequencies --   3032.2607              3035.9825              3046.7179
 Red. masses --      1.0662                 1.0654                 1.0352
 Frc consts  --      5.7757                 5.7860                 5.6615
 IR Inten    --     23.7033                20.5039                23.7606

                     64                     65                     66
                      A                      A                      A
 Frequencies --   3046.7521              3081.0910              3081.6858
 Red. masses --      1.0349                 1.0966                 1.0965
 Frc consts  --      5.6599                 6.1334                 6.1353
 IR Inten    --     58.4496                13.9454                 8.8484

                     67                     68                     69
                      A                      A                      A
 Frequencies --   3113.5406              3113.6749              3118.8481
 Red. masses --      1.1023                 1.1019                 1.1033
 Frc consts  --      6.2961                 6.2940                 6.3231
 IR Inten    --      6.8292                89.9214                 8.6235

                     70                     71                     72
                      A                      A                      A
 Frequencies --   3120.7872              3194.4071              3218.5081
 Red. masses --      1.1031                 1.0852                 1.1033
 Frc consts  --      6.3297                 6.5244                 6.7336
 IR Inten    --     81.2358                 8.8633                41.8867

 - Thermochemistry -
 -------------------
 Temperature   298.150 Kelvin.  Pressure   1.00000 Atm.
 Atom     1 has atomic number  6 and mass  12.00000

 Molecular mass:   136.12520 amu.
 Principal axes and moments of inertia in atomic units:
                           1         2         3
     Eigenvalues --  1004.160501899.102532609.38102
           X            1.00000  -0.00000   0.00000
           Y            0.00000   1.00000   0.00078
           Z           -0.00000  -0.00078   1.00000
 This molecule is an asymmetric top.
 Rotational symmetry number  1.
 Warning -- assumption of classical behavior for rotation
           may cause significant error
 Rotational temperatures (Kelvin)      0.08626     0.04561     0.03319
 Rotational constants (GHZ):           1.79726     0.95031     0.69164
 Zero-point vibrational energy     619167.8 (Joules/Mol)
                                  147.98465 (Kcal/Mol)
 Warning -- explicit consideration of  14 degrees of freedom as
           vibrations may cause significant error
 Vibrational temperatures:     84.13   107.43   123.78   174.92   250.77
          (Kelvin)            283.14   314.06   389.43   442.18   523.46
                              560.61   563.13   684.97   814.40   954.28
                             1012.84  1108.41  1143.93  1148.74  1155.06
                             1296.10  1353.88  1355.78  1393.56  1404.60
                             1427.47  1457.93  1463.61  1524.36  1552.91
                             1593.38  1640.74  1666.90  1677.24  1690.56
                             1722.21  1814.25  1880.35  1881.94  1894.82
                             1931.21  1974.01  1975.66  2005.12  2061.48
                             2067.16  2158.98  2166.35  2181.45  2194.55
                             2197.62  2198.54  2213.69  2215.74  2456.38
                             2539.75  4320.97  4325.14  4346.39  4346.46
                             4362.75  4368.10  4383.55  4383.60  4433.00
                             4433.86  4479.69  4479.88  4487.33  4490.12
                             4596.04  4630.72

 Zero-point correction=                           0.235829 (Hartree/Particle)
 Thermal correction to Energy=                    0.246900
 Thermal correction to Enthalpy=                  0.247844
 Thermal correction to Gibbs Free Energy=         0.198935
 Sum of electronic and zero-point Energies=           -390.477869
 Sum of electronic and thermal Energies=              -390.466797
 Sum of electronic and thermal Enthalpies=            -390.465853
 Sum of electronic and thermal Free Energies=         -390.514762

                     E (Thermal)             CV                S
                      KCal/Mol        Cal/Mol-Kelvin    Cal/Mol-Kelvin
 Total                  154.932             41.243            102.937
 Electronic               0.000              0.000              0.000
 Translational            0.889              2.981             40.637
 Rotational               0.889              2.981             29.988
 Vibrational            153.155             35.282             32.312
 Vibration     1          0.596              1.974              4.508
 Vibration     2          0.599              1.966              4.026
 Vibration     3          0.601              1.959              3.748
 Vibration     4          0.609              1.931              3.075
 Vibration     5          0.627              1.874              2.389
 Vibration     6          0.636              1.844              2.163
 Vibration     7          0.646              1.813              1.973
 Vibration     8          0.674              1.727              1.592
 Vibration     9          0.697              1.660              1.377
 Vibration    10          0.737              1.547              1.106
 Vibration    11          0.758              1.492              1.002
 Vibration    12          0.759              1.489              0.995
 Vibration    13          0.833              1.303              0.721
 Vibration    14          0.922              1.105              0.512

 Optimization completed.
    -- Stationary point found.
 Normal termination of Gaussian 16 at Tue Dec  8 10:27:44 2020.

 ----------------------------------------------------------------------
 # B3LYP/6-311++G(d,p) empiricaldispersion=gd3bj scf=xqc pop=npa geom=c
 heck
 ----------------------------------------------------------------------

 -------------------------------------
 CID_14147074_JID_305_Energie_neutraal
 -------------------------------------
 Structure from the checkpoint file:  "JID_305.chk"
 Charge =  0 Multiplicity = 1

 SCF Done:  E(RB3LYP) =  -390.819295576     A.U. after   12 cycles
 Normal termination of Gaussian 16 at Tue Dec  8 10:29:49 2020.

 ----------------------------------------------------------------------
 # B3LYP/6-311++G(d,p) empiricaldispersion=gd3bj scf=xqc pop=npa geom=c
 heck
 ----------------------------------------------------------------------

 -----------------------------------
 CID_14147074_JID_305_Energie_kation
 -----------------------------------
 Structure from the checkpoint file:  "JID_305.chk"
 Charge =  1 Multiplicity = 2

 SCF Done:  E(UB3LYP) =  -390.529266456     A.U. after   17 cycles
 Normal termination of Gaussian 16 at Tue Dec  8 10:34:20 2020.
 Gaussian 16:  ES64L-G16RevA.03 25-Dec-2016

 ----------------------------------------------------------------------
 # B3LYP/6-311++G(d,p) empiricaldispersion=gd3bj scf=xqc pop=npa geom=c
 heck
 ----------------------------------------------------------------------

 ----------------------------------
 CID_14147074_JID_305_Energie_anion
 ----------------------------------
 Structure from the checkpoint file:  "JID_305.chk"
 Charge = -1 Multiplicity = 2

                         Standard orientation:
 ---------------------------------------------------------------------
 Center     Atomic      Atomic             Coordinates (Angstroms)
 Number     Number       Type             X           Y           Z
 ---------------------------------------------------------------------
      1          6           0        2.003900   -2.128617   -0.625957
      2          6           0        1.584320   -1.177719    0.508338
      3          6           0        0.781624   -0.000001   -0.000019
      4          6           0       -0.557578   -0.000096   -0.000096
      5          6           0       -1.448131   -1.129620    0.513241
      6          6           0       -2.843975   -0.608074    0.275059
      7          6           0       -2.844012    0.607902   -0.274898
      8          6           0       -1.448202    1.129351   -0.513484
      9          6           0        1.584182    1.177868   -0.508269
     10          6           0        2.003275    2.128925    0.626071
     11          1           0        1.123210   -2.551792   -1.121401
     12          1           0        2.614137   -2.955988   -0.245843
     13          1           0        2.589977   -1.601383   -1.387390
     14          1           0        1.013284   -1.739430    1.255991
     15          1           0        2.486256   -0.812844    1.018974
     16          1           0       -1.269610   -2.077226   -0.017585
     17          1           0       -1.271046   -1.348350    1.577952
     18          1           0       -3.731149   -1.179086    0.532850
     19          1           0       -3.731223    1.178964   -0.532456
     20          1           0       -1.269510    2.077090    0.017034
     21          1           0       -1.271357    1.347777   -1.578304
     22          1           0        2.486325    0.813164   -1.018654
     23          1           0        1.013206    1.739390   -1.256109
     24          1           0        2.589287    1.601853    1.387669
     25          1           0        2.613421    2.956412    0.246062
     26          1           0        1.122378    2.551931    1.121290
 ---------------------------------------------------------------------

 SCF Done:  E(UB3LYP) =  -390.801641453     A.U. after   30 cycles

 The electronic state is 2-A.
 Alpha  occ. eigenvalues --  -10.06634 -10.06633 -10.06357 -10.06273 -10.06229
 Alpha  occ. eigenvalues --  -10.06228 -10.06180 -10.05866 -10.05601 -10.05600
 Alpha  occ. eigenvalues --   -0.74747  -0.70202  -0.64838  -0.61556  -0.60655
 Alpha  occ. eigenvalues --   -0.55255  -0.51469  -0.48657  -0.43109  -0.41519
 Alpha  occ. eigenvalues --   -0.38286  -0.35081  -0.33706  -0.33596  -0.31874
 Alpha  occ. eigenvalues --   -0.29796  -0.29158  -0.28607  -0.28074  -0.26478
 Alpha  occ. eigenvalues --   -0.26065  -0.25862  -0.25194  -0.23328  -0.22583
 Alpha  occ. eigenvalues --   -0.20314  -0.15293  -0.11686   0.04677
 Alpha virt. eigenvalues --    0.06833   0.07019   0.08106   0.08829   0.09266
 Alpha virt. eigenvalues --    0.10147   0.10394   0.10755   0.11196   0.11246
 Alpha virt. eigenvalues --    0.12377   0.12767   0.13384   0.13541   0.13873

  Beta  occ. eigenvalues --  -10.06611 -10.06611 -10.06345 -10.06260 -10.06210
  Beta  occ. eigenvalues --  -10.06210 -10.06181 -10.05867 -10.05571 -10.05570
  Beta  occ. eigenvalues --   -0.74726  -0.70178  -0.64800  -0.61525  -0.60611
  Beta  occ. eigenvalues --   -0.55200  -0.51394  -0.48605  -0.43059  -0.41465
  Beta  occ. eigenvalues --   -0.38257  -0.35046  -0.33673  -0.33572  -0.31843
  Beta  occ. eigenvalues --   -0.29764  -0.29128  -0.28561  -0.28039  -0.26437
  Beta  occ. eigenvalues --   -0.26003  -0.25832  -0.25160  -0.23297  -0.22558
  Beta  occ. eigenvalues --   -0.20289  -0.15278  -0.11667
  Beta virt. eigenvalues --    0.06844   0.07743   0.07794   0.08657   0.09473
  Beta virt. eigenvalues --    0.09915   0.10511   0.10689   0.11159   0.11312
  Beta virt. eigenvalues --    0.11788   0.12681   0.12955   0.13805   0.13899

 Mulliken charges and spin densities:
               1          2
     1  C    0.833406  -1.465984
     2  C   -1.800901   1.524234
     3  C    1.915750  -1.038926
     4  C    0.223426   0.184553
     5  C    0.424156  -1.186882
     6  C    0.790122  -0.914652
     7  C    0.789751  -0.914260
     8  C    0.424587  -1.187328
     9  C   -1.800182   1.523433
    10  C    0.832907  -1.465446
    11  H   -0.130378   0.267435
    12  H   -0.348908   0.481495
    13  H   -0.107077   0.234452
    14  H   -0.272057   0.422493
    15  H   -0.187447   0.342750
    16  H   -0.060649   0.195470
    17  H    0.007953   0.133931
    18  H   -0.718228   0.892877
    19  H   -0.718226   0.892878
    20  H   -0.060303   0.195070
    21  H    0.007705   0.134223
    22  H   -0.187319   0.342617
    23  H   -0.271931   0.422403
    24  H   -0.107044   0.234425
    25  H   -0.348721   0.481298
    26  H   -0.130395   0.267440
 Sum of Mulliken charges =  -1.00000   1.00000

 Dipole moment (field-independent basis, Debye):
    X=              0.4913    Y=              0.0009    Z=              0.0001  Tot=              0.4913
 Quadrupole moment (field-independent basis, Debye-Ang):
   XX=           -131.9821   YY=           -113.4801   ZZ=            -93.5051
   XY=              0.0019   XZ=             -0.0008   YZ=              1.4858

 Summary of Natural Population Analysis:

                                       Natural Population
                Natural  -----------------------------------------------
    Atom  No    Charge         Core      Valence    Rydberg      Total
 -----------------------------------------------------------------------
      C    1   -0.27806      0.99966     2.27409    0.00431     3.27806
      C    2   -0.19974      0.99960     2.19134    0.00881     3.19974
      C    3   -0.00944      0.99940     1.99865    0.01139     3.00944
      C    4   -0.00489      0.99944     1.99472    0.01074     3.00489
      C    5   -0.21834      0.99959     2.21073    0.00802     3.21834
      C    6   -0.09119      0.99953     2.08182    0.00985     3.09119
      C    7   -0.09120      0.99953     2.08182    0.00985     3.09120
      C    8   -0.21834      0.99959     2.21073    0.00802     3.21834
      C    9   -0.19974      0.99960     2.19134    0.00880     3.19974
      C   10   -0.27806      0.99966     2.27409    0.00431     3.27806
      H   11    0.09666      0.00000     0.40197    0.00137     0.40334
      H   12    0.09635      0.00000     0.40223    0.00142     0.40365
      H   13    0.09499      0.00000     0.40349    0.00152     0.40501
      H   14    0.09972      0.00000     0.39872    0.00157     0.40028
      H   15    0.09745      0.00000     0.40110    0.00144     0.40255
      H   16    0.10593      0.00000     0.39241    0.00166     0.39407
      H   17    0.10515      0.00000     0.39318    0.00167     0.39485
      H   18    0.09825      0.00000     0.40025    0.00149     0.40175
      H   19    0.09825      0.00000     0.40025    0.00149     0.40175
      H   20    0.10593      0.00000     0.39241    0.00166     0.39407
      H   21    0.10515      0.00000     0.39318    0.00167     0.39485
      H   22    0.09745      0.00000     0.40110    0.00144     0.40255
      H   23    0.09972      0.00000     0.39872    0.00157     0.40028
      H   24    0.09499      0.00000     0.40349    0.00152     0.40501
      H   25    0.09635      0.00000     0.40223    0.00142     0.40365
      H   26    0.09666      0.00000     0.40197    0.00137     0.40334
 =======================================================================
   * Total *    0.00000      9.99559    27.89604    0.10838    38.00000

 Normal termination of Gaussian 16 at Tue Dec  8 10:47:11 2020.
