 Gaussian 16, Revision A.03,

 -----------------------------------------------------------
 # opt freq B3LYP/6-31G(d) empiricaldispersion=gd3bj scf=xqc
 -----------------------------------------------------------

 -------------------------------
 CID_115832587_JID_3143_neutraal
 -------------------------------
 Symbolic Z-matrix:
 Charge =  0 Multiplicity = 1

 SCF Done:  E(RB3LYP) =  -528.359769015     A.U. after   12 cycles
 SCF Done:  E(RB3LYP) =  -528.361945621     A.U. after   10 cycles
 SCF Done:  E(RB3LYP) =  -528.361714278     A.U. after   10 cycles
 SCF Done:  E(RB3LYP) =  -528.362245389     A.U. after   10 cycles
 SCF Done:  E(RB3LYP) =  -528.362680090     A.U. after   10 cycles
 SCF Done:  E(RB3LYP) =  -528.362690589     A.U. after   10 cycles
 SCF Done:  E(RB3LYP) =  -528.362739326     A.U. after    9 cycles
 SCF Done:  E(RB3LYP) =  -528.362741423     A.U. after    8 cycles
 SCF Done:  E(RB3LYP) =  -528.362744494     A.U. after    8 cycles
 SCF Done:  E(RB3LYP) =  -528.362746825     A.U. after    7 cycles
 SCF Done:  E(RB3LYP) =  -528.362747059     A.U. after    7 cycles
 SCF Done:  E(RB3LYP) =  -528.362747191     A.U. after    6 cycles
 Optimization completed.
    -- Stationary point found.
 Normal termination of Gaussian 16 at Wed Dec  9 22:29:34 2020.

 --------------------------------------------------------------------
 #N Geom=AllCheck Guess=TCheck SCRF=Check GenChk RB3LYP/6-31G(d) Freq
 --------------------------------------------------------------------

 Structure from the checkpoint file:  "JID_3143.chk"
 -------------------------------
 CID_115832587_JID_3143_neutraal
 -------------------------------
 Charge =  0 Multiplicity = 1

 SCF Done:  E(RB3LYP) =  -528.362747191     A.U. after    1 cycles

  Exact polarizability: 148.244  -0.420 135.700  -0.751  -0.069 116.972
 Approx polarizability: 183.986   1.449 180.310  -0.784   0.314 179.606

                      1                      2                      3
                      A                      A                      A
 Frequencies --     43.1645                49.7205                65.3957
 Red. masses --      3.0718                 3.0937                 2.9526
 Frc consts  --      0.0034                 0.0045                 0.0074
 IR Inten    --      0.0189                 0.0654                 0.0624

                      4                      5                      6
                      A                      A                      A
 Frequencies --     81.0336                99.0368               117.8345
 Red. masses --      2.5962                 2.4734                 2.5170
 Frc consts  --      0.0100                 0.0143                 0.0206
 IR Inten    --      0.1396                 0.0331                 0.1041

                      7                      8                      9
                      A                      A                      A
 Frequencies --    140.9554               159.1177               196.9770
 Red. masses --      1.7286                 2.7087                 1.5548
 Frc consts  --      0.0202                 0.0404                 0.0355
 IR Inten    --      0.1095                 0.2179                 0.8337

                     10                     11                     12
                      A                      A                      A
 Frequencies --    206.1099               226.3231               234.0231
 Red. masses --      2.0931                 1.3976                 1.4667
 Frc consts  --      0.0524                 0.0422                 0.0473
 IR Inten    --      0.1108                 3.6020                 0.5336

                     13                     14                     15
                      A                      A                      A
 Frequencies --    253.8042               268.8347               284.7325
 Red. masses --      1.5524                 1.2550                 1.9436
 Frc consts  --      0.0589                 0.0534                 0.0928
 IR Inten    --      1.9811                26.3673                 2.1299

                     16                     17                     18
                      A                      A                      A
 Frequencies --    308.5810               323.5102               368.7626
 Red. masses --      2.0500                 1.9649                 2.3625
 Frc consts  --      0.1150                 0.1212                 0.1893
 IR Inten    --      0.8935                 2.7488                 6.0006

                     19                     20                     21
                      A                      A                      A
 Frequencies --    385.7869               425.4687               433.0764
 Red. masses --      1.9461                 2.0812                 2.1200
 Frc consts  --      0.1707                 0.2220                 0.2343
 IR Inten    --      0.8294                 3.4420                 0.2758

                     22                     23                     24
                      A                      A                      A
 Frequencies --    455.2234               509.0218               537.7372
 Red. masses --      2.5410                 2.2401                 2.2777
 Frc consts  --      0.3102                 0.3420                 0.3880
 IR Inten    --      4.1845                 1.7567                 2.0974

                     25                     26                     27
                      A                      A                      A
 Frequencies --    622.2006               727.0124               753.3680
 Red. masses --      2.2386                 1.4757                 1.4236
 Frc consts  --      0.5106                 0.4595                 0.4761
 IR Inten    --      2.9826                 6.1272                 4.9495

                     28                     29                     30
                      A                      A                      A
 Frequencies --    771.4832               788.6100               804.1690
 Red. masses --      1.3805                 1.6456                 1.6497
 Frc consts  --      0.4841                 0.6030                 0.6286
 IR Inten    --      6.5727                 6.9865                 3.8731

                     31                     32                     33
                      A                      A                      A
 Frequencies --    834.2034               846.0359               885.9435
 Red. masses --      2.3768                 1.6710                 1.5088
 Frc consts  --      0.9745                 0.7047                 0.6977
 IR Inten    --      6.0112                60.6468                12.6593

                     34                     35                     36
                      A                      A                      A
 Frequencies --    891.6939               923.5128               944.6016
 Red. masses --      1.6760                 1.6011                 1.9176
 Frc consts  --      0.7852                 0.8046                 1.0081
 IR Inten    --      0.4168                65.1699                33.8681

                     37                     38                     39
                      A                      A                      A
 Frequencies --    954.1571               973.0816               985.2137
 Red. masses --      1.8932                 1.7359                 1.5829
 Frc consts  --      1.0155                 0.9684                 0.9052
 IR Inten    --      2.5180                 1.1336                 1.5196

                     40                     41                     42
                      A                      A                      A
 Frequencies --   1012.6082              1041.2922              1061.1975
 Red. masses --      1.6784                 2.2830                 1.6818
 Frc consts  --      1.0140                 1.4585                 1.1159
 IR Inten    --      0.6134                19.2222                 1.0838

                     43                     44                     45
                      A                      A                      A
 Frequencies --   1071.1859              1077.2551              1098.1674
 Red. masses --      1.6533                 1.5039                 1.3722
 Frc consts  --      1.1177                 1.0283                 0.9750
 IR Inten    --      2.3022                 0.5514                 0.4440

                     46                     47                     48
                      A                      A                      A
 Frequencies --   1107.1952              1112.7500              1129.3355
 Red. masses --      2.2780                 1.4012                 1.9224
 Frc consts  --      1.6453                 1.0222                 1.4446
 IR Inten    --      1.3163                 1.3833                 4.4241

                     49                     50                     51
                      A                      A                      A
 Frequencies --   1149.7820              1166.8694              1185.5019
 Red. masses --      1.9937                 2.2782                 2.0033
 Frc consts  --      1.5529                 1.8276                 1.6588
 IR Inten    --      7.4470                 4.7869                 1.6131

                     52                     53                     54
                      A                      A                      A
 Frequencies --   1217.9770              1249.0158              1253.1375
 Red. masses --      1.5975                 1.4279                 1.3297
 Frc consts  --      1.3963                 1.3125                 1.2303
 IR Inten    --      1.0132                 2.0352                 1.4789

                     55                     56                     57
                      A                      A                      A
 Frequencies --   1280.6543              1290.5500              1318.7326
 Red. masses --      1.2846                 1.3626                 1.2394
 Frc consts  --      1.2414                 1.3371                 1.2699
 IR Inten    --      1.0485                 0.8665                 2.7099

                     58                     59                     60
                      A                      A                      A
 Frequencies --   1331.1601              1338.6960              1343.3125
 Red. masses --      1.2415                 1.1568                 1.1722
 Frc consts  --      1.2962                 1.2215                 1.2463
 IR Inten    --      2.1254                 2.1710                 0.8007

                     61                     62                     63
                      A                      A                      A
 Frequencies --   1368.2845              1379.1914              1387.3002
 Red. masses --      1.3103                 1.4554                 1.3870
 Frc consts  --      1.4453                 1.6311                 1.5727
 IR Inten    --      2.6441                 1.7455                 9.2514

                     64                     65                     66
                      A                      A                      A
 Frequencies --   1397.4544              1407.3715              1410.5222
 Red. masses --      1.3226                 1.3315                 1.4066
 Frc consts  --      1.5218                 1.5538                 1.6488
 IR Inten    --      1.0285                 0.6225                 5.0830

                     67                     68                     69
                      A                      A                      A
 Frequencies --   1414.6771              1425.4479              1428.4561
 Red. masses --      1.4148                 1.4155                 1.2836
 Frc consts  --      1.6682                 1.6946                 1.5431
 IR Inten    --      1.3750                 0.8644                 2.3878

                     70                     71                     72
                      A                      A                      A
 Frequencies --   1439.3780              1442.2422              1444.5972
 Red. masses --      1.3083                 1.2707                 1.2886
 Frc consts  --      1.5970                 1.5573                 1.5844
 IR Inten    --     11.2661                 3.1325                 8.9922

                     73                     74                     75
                      A                      A                      A
 Frequencies --   1447.6665              1508.1687              1511.1015
 Red. masses --      1.3765                 1.0766                 1.0720
 Frc consts  --      1.6996                 1.4428                 1.4423
 IR Inten    --      1.0018                 1.4249                 3.4000

                     76                     77                     78
                      A                      A                      A
 Frequencies --   1520.4106              1522.0912              1526.0051
 Red. masses --      1.0752                 1.0597                 1.0693
 Frc consts  --      1.4644                 1.4464                 1.4672
 IR Inten    --      9.4882                 2.0928                 0.3914

                     79                     80                     81
                      A                      A                      A
 Frequencies --   1526.9058              1527.6379              1534.3416
 Red. masses --      1.0585                 1.0498                 1.0622
 Frc consts  --      1.4541                 1.4435                 1.4733
 IR Inten    --      2.4017                 2.0379                 7.7780

                     82                     83                     84
                      A                      A                      A
 Frequencies --   1536.5043              1537.2282              1540.9576
 Red. masses --      1.0712                 1.0609                 1.0649
 Frc consts  --      1.4901                 1.4771                 1.4898
 IR Inten    --      0.5342                 8.2442                 5.2644

                     85                     86                     87
                      A                      A                      A
 Frequencies --   1543.0527              1545.2607              1693.3442
 Red. masses --      1.0670                 1.0701                 1.0892
 Frc consts  --      1.4969                 1.5054                 1.8402
 IR Inten    --      1.3871                 2.7620                28.2144

                     88                     89                     90
                      A                      A                      A
 Frequencies --   3003.3946              3020.2680              3026.1714
 Red. masses --      1.0795                 1.0745                 1.0696
 Frc consts  --      5.7372                 5.7748                 5.7710
 IR Inten    --     11.3564                18.7045                25.1737

                     91                     92                     93
                      A                      A                      A
 Frequencies --   3028.7972              3034.6856              3037.4753
 Red. masses --      1.0706                 1.0637                 1.0627
 Frc consts  --      5.7865                 5.7716                 5.7767
 IR Inten    --     22.6322                26.0943                12.2511

                     94                     95                     96
                      A                      A                      A
 Frequencies --   3038.2460              3042.9692              3046.2711
 Red. masses --      1.0651                 1.0576                 1.0433
 Frc consts  --      5.7930                 5.7701                 5.7045
 IR Inten    --     27.4842                28.1331                22.6227

                     97                     98                     99
                      A                      A                      A
 Frequencies --   3049.0603              3051.8873              3058.0903
 Red. masses --      1.0401                 1.0445                 1.0729
 Frc consts  --      5.6969                 5.7318                 5.9118
 IR Inten    --     29.3014                53.2070                22.8311

                    100                    101                    102
                      A                      A                      A
 Frequencies --   3060.9406              3064.9658              3068.2924
 Red. masses --      1.0962                 1.0967                 1.0936
 Frc consts  --      6.0514                 6.0700                 6.0661
 IR Inten    --     55.8369                36.7957                34.4848

                    103                    104                    105
                      A                      A                      A
 Frequencies --   3072.9286              3081.4037              3091.8511
 Red. masses --      1.0952                 1.0952                 1.0953
 Frc consts  --      6.0934                 6.1271                 6.1691
 IR Inten    --     18.2056               103.8597                89.0533

                    106                    107                    108
                      A                      A                      A
 Frequencies --   3102.3324              3109.2976              3111.6895
 Red. masses --      1.0987                 1.1013                 1.1017
 Frc consts  --      6.2305                 6.2733                 6.2852
 IR Inten    --      9.4630                41.7465                40.2678

                    109                    110                    111
                      A                      A                      A
 Frequencies --   3116.3242              3119.9642              3123.0396
 Red. masses --      1.0963                 1.1004                 1.1009
 Frc consts  --      6.2726                 6.3112                 6.3261
 IR Inten    --     41.2142                50.6217                50.4670

                    112                    113                    114
                      A                      A                      A
 Frequencies --   3129.2479              3473.4461              3561.6344
 Red. masses --      1.1018                 1.0495                 1.0914
 Frc consts  --      6.3565                 7.4605                 8.1570
 IR Inten    --     48.0966                 3.7384                 1.2417

 - Thermochemistry -
 -------------------
 Temperature   298.150 Kelvin.  Pressure   1.00000 Atm.
 Atom     1 has atomic number  6 and mass  12.00000

 Molecular mass:   185.21435 amu.
 Principal axes and moments of inertia in atomic units:
                           1         2         3
     Eigenvalues --  2110.617503583.592294929.47507
           X            0.99998  -0.00591  -0.00106
           Y            0.00591   0.99997   0.00407
           Z            0.00104  -0.00408   0.99999
 This molecule is an asymmetric top.
 Rotational symmetry number  1.
 Warning -- assumption of classical behavior for rotation
           may cause significant error
 Rotational temperatures (Kelvin)      0.04104     0.02417     0.01757
 Rotational constants (GHZ):           0.85508     0.50361     0.36611
 Zero-point vibrational energy    1001311.2 (Joules/Mol)
                                  239.31913 (Kcal/Mol)
 Warning -- explicit consideration of  24 degrees of freedom as
           vibrations may cause significant error
 Vibrational temperatures:     62.10    71.54    94.09   116.59   142.49
          (Kelvin)            169.54   202.80   228.93   283.41   296.55
                              325.63   336.71   365.17   386.79   409.67
                              443.98   465.46   530.57   555.06   612.15
                              623.10   654.96   732.37   773.68   895.21
                             1046.01  1083.93  1109.99  1134.63  1157.02
                             1200.23  1217.26  1274.68  1282.95  1328.73
                             1359.07  1372.82  1400.05  1417.50  1456.92
                             1498.19  1526.83  1541.20  1549.93  1580.02
                             1593.01  1601.00  1624.86  1654.28  1678.86
                             1705.67  1752.40  1797.06  1802.99  1842.58
                             1856.81  1897.36  1915.24  1926.08  1932.73
                             1968.66  1984.35  1996.02  2010.63  2024.89
                             2029.43  2035.40  2050.90  2055.23  2070.94
                             2075.06  2078.45  2082.87  2169.92  2174.14
                             2187.53  2189.95  2195.58  2196.88  2197.93
                             2207.58  2210.69  2211.73  2217.09  2220.11
                             2223.29  2436.34  4321.21  4345.49  4353.99
                             4357.76  4366.24  4370.25  4371.36  4378.15
                             4382.90  4386.92  4390.99  4399.91  4404.01
                             4409.80  4414.59  4421.26  4433.45  4448.48
                             4463.56  4473.59  4477.03  4483.70  4488.93
                             4493.36  4502.29  4997.51  5124.40

 Zero-point correction=                           0.381379 (Hartree/Particle)
 Thermal correction to Energy=                    0.398043
 Thermal correction to Enthalpy=                  0.398987
 Thermal correction to Gibbs Free Energy=         0.337672
 Sum of electronic and zero-point Energies=           -527.981368
 Sum of electronic and thermal Energies=              -527.964704
 Sum of electronic and thermal Enthalpies=            -527.963760
 Sum of electronic and thermal Free Energies=         -528.025075

                     E (Thermal)             CV                S
                      KCal/Mol        Cal/Mol-Kelvin    Cal/Mol-Kelvin
 Total                  249.776             62.727            129.049
 Electronic               0.000              0.000              0.000
 Translational            0.889              2.981             41.555
 Rotational               0.889              2.981             31.989
 Vibrational            247.998             56.765             55.505
 Vibration     1          0.595              1.980              5.108
 Vibration     2          0.595              1.978              4.828
 Vibration     3          0.597              1.971              4.287
 Vibration     4          0.600              1.962              3.866
 Vibration     5          0.604              1.950              3.473
 Vibration     6          0.608              1.935              3.136
 Vibration     7          0.615              1.912              2.791
 Vibration     8          0.621              1.892              2.560
 Vibration     9          0.636              1.844              2.161
 Vibration    10          0.641              1.831              2.078
 Vibration    11          0.650              1.801              1.908
 Vibration    12          0.654              1.789              1.848
 Vibration    13          0.665              1.756              1.704
 Vibration    14          0.673              1.730              1.604
 Vibration    15          0.683              1.702              1.505
 Vibration    16          0.698              1.657              1.370
 Vibration    17          0.708              1.628              1.292
 Vibration    18          0.741              1.536              1.085
 Vibration    19          0.754              1.501              1.016
 Vibration    20          0.787              1.415              0.874
 Vibration    21          0.794              1.398              0.849
 Vibration    22          0.814              1.349              0.780
 Vibration    23          0.864              1.230              0.636
 Vibration    24          0.893              1.167              0.570

                           ! Non-Optimized Parameters !
 Normal termination of Gaussian 16 at Wed Dec  9 22:42:05 2020.

 ----------------------------------------------------------------------
 # B3LYP/6-311++G(d,p) empiricaldispersion=gd3bj scf=xqc pop=npa geom=c
 heck
 ----------------------------------------------------------------------

 ---------------------------------------
 CID_115832587_JID_3143_Energie_neutraal
 ---------------------------------------
 Structure from the checkpoint file:  "JID_3143.chk"
 Charge =  0 Multiplicity = 1

 SCF Done:  E(RB3LYP) =  -528.517613700     A.U. after   13 cycles
 Normal termination of Gaussian 16 at Wed Dec  9 22:48:38 2020.

 ----------------------------------------------------------------------
 # B3LYP/6-311++G(d,p) empiricaldispersion=gd3bj scf=xqc pop=npa geom=c
 heck
 ----------------------------------------------------------------------

 -------------------------------------
 CID_115832587_JID_3143_Energie_kation
 -------------------------------------
 Structure from the checkpoint file:  "JID_3143.chk"
 Charge =  1 Multiplicity = 2

 SCF Done:  E(UB3LYP) =  -528.201311058     A.U. after   21 cycles
 Normal termination of Gaussian 16 at Wed Dec  9 23:05:38 2020.
 Gaussian 16:  ES64L-G16RevA.03 25-Dec-2016

 ----------------------------------------------------------------------
 # B3LYP/6-311++G(d,p) empiricaldispersion=gd3bj scf=xqc pop=npa geom=c
 heck
 ----------------------------------------------------------------------

 ------------------------------------
 CID_115832587_JID_3143_Energie_anion
 ------------------------------------
 Structure from the checkpoint file:  "JID_3143.chk"
 Charge = -1 Multiplicity = 2

                         Standard orientation:
 ---------------------------------------------------------------------
 Center     Atomic      Atomic             Coordinates (Angstroms)
 Number     Number       Type             X           Y           Z
 ---------------------------------------------------------------------
      1          6           0       -2.092126   -2.875308   -0.288650
      2          6           0       -2.783291   -1.565396   -0.678203
      3          6           0       -2.833492   -0.525159    0.451162
      4          6           0       -1.466826   -0.035670    0.956388
      5          6           0       -0.551282    0.609727   -0.105699
      6          6           0       -1.268150    1.707552   -0.922161
      7          6           0       -1.734261    2.918837   -0.110110
      8          6           0        0.750512    1.134340    0.546660
      9          6           0        1.554768    0.050140    1.309137
     10          6           0        1.846986   -1.282744    0.596713
     11          6           0        2.702029   -1.240311   -0.680130
     12          6           0        4.088782   -0.620184   -0.490172
     13          7           0        1.531712    1.895021   -0.444949
     14          1           0       -1.033257   -2.722764   -0.053362
     15          1           0       -2.144995   -3.607832   -1.101849
     16          1           0       -2.564782   -3.321759    0.595116
     17          1           0       -2.284155   -1.136923   -1.557028
     18          1           0       -3.811996   -1.784552   -0.993321
     19          1           0       -3.431760    0.331883    0.118839
     20          1           0       -3.376698   -0.958786    1.302726
     21          1           0       -1.636489    0.687149    1.765820
     22          1           0       -0.942769   -0.878178    1.420536
     23          1           0       -0.265088   -0.174314   -0.823425
     24          1           0       -0.587847    2.056138   -1.703756
     25          1           0       -2.128902    1.259518   -1.433101
     26          1           0       -0.881947    3.448906    0.326593
     27          1           0       -2.268739    3.628249   -0.751910
     28          1           0       -2.413256    2.635741    0.702673
     29          1           0        0.453670    1.871759    1.305628
     30          1           0        2.500426    0.507785    1.631384
     31          1           0        1.020487   -0.187201    2.238147
     32          1           0        2.353759   -1.936950    1.320296
     33          1           0        0.899316   -1.781791    0.361288
     34          1           0        2.820277   -2.270851   -1.040696
     35          1           0        2.164985   -0.713562   -1.479738
     36          1           0        4.637562   -1.127060    0.312939
     37          1           0        4.686764   -0.698559   -1.404905
     38          1           0        4.024014    0.440546   -0.226708
     39          1           0        2.394264    2.226749   -0.016435
     40          1           0        1.813271    1.286561   -1.210697
 ---------------------------------------------------------------------

 SCF Done:  E(UB3LYP) =  -528.502707833     A.U. after   28 cycles

 The electronic state is 2-A.
 Alpha  occ. eigenvalues --  -14.18989 -10.09600 -10.07151 -10.06901 -10.06733
 Alpha  occ. eigenvalues --  -10.06678 -10.06428 -10.06392 -10.06240 -10.06132
 Alpha  occ. eigenvalues --  -10.06091 -10.05967 -10.05840  -0.79048  -0.71715
 Alpha  occ. eigenvalues --   -0.69555  -0.67968  -0.64280  -0.62537  -0.59162
 Alpha  occ. eigenvalues --   -0.56103  -0.54003  -0.51370  -0.48165  -0.46161
 Alpha  occ. eigenvalues --   -0.43593  -0.39662  -0.37956  -0.36874  -0.36494
 Alpha  occ. eigenvalues --   -0.35641  -0.34496  -0.33374  -0.32824  -0.31111
 Alpha  occ. eigenvalues --   -0.30494  -0.29945  -0.29135  -0.28683  -0.28136
 Alpha  occ. eigenvalues --   -0.27738  -0.26167  -0.25612  -0.24534  -0.24323
 Alpha  occ. eigenvalues --   -0.23926  -0.23253  -0.22492  -0.22340  -0.21398
 Alpha  occ. eigenvalues --   -0.20904  -0.20010  -0.13996   0.04326
 Alpha virt. eigenvalues --    0.06118   0.06724   0.07142   0.08052   0.08387
 Alpha virt. eigenvalues --    0.08715   0.09228   0.09515   0.10445   0.10792
 Alpha virt. eigenvalues --    0.11234   0.11365   0.11764   0.12274   0.12478

  Beta  occ. eigenvalues --  -14.18967 -10.09594 -10.07148 -10.06889 -10.06714
  Beta  occ. eigenvalues --  -10.06666 -10.06413 -10.06381 -10.06226 -10.06126
  Beta  occ. eigenvalues --  -10.06063 -10.05953 -10.05802  -0.79013  -0.71690
  Beta  occ. eigenvalues --   -0.69517  -0.67942  -0.64247  -0.62500  -0.59122
  Beta  occ. eigenvalues --   -0.56051  -0.53959  -0.51316  -0.48115  -0.46103
  Beta  occ. eigenvalues --   -0.43559  -0.39632  -0.37931  -0.36840  -0.36463
  Beta  occ. eigenvalues --   -0.35609  -0.34471  -0.33343  -0.32793  -0.31081
  Beta  occ. eigenvalues --   -0.30464  -0.29907  -0.29101  -0.28656  -0.28108
  Beta  occ. eigenvalues --   -0.27699  -0.26137  -0.25586  -0.24504  -0.24291
  Beta  occ. eigenvalues --   -0.23901  -0.23213  -0.22463  -0.22313  -0.21379
  Beta  occ. eigenvalues --   -0.20881  -0.19986  -0.13973
  Beta virt. eigenvalues --    0.06273   0.06969   0.07216   0.07536   0.08563
  Beta virt. eigenvalues --    0.08837   0.09171   0.09496   0.09781   0.10845
  Beta virt. eigenvalues --    0.11190   0.11555   0.11719   0.12000   0.12485

 Mulliken charges and spin densities:
               1          2
     1  C    0.898637  -1.527045
     2  C   -1.028578   0.907038
     3  C    0.713123  -1.151498
     4  C   -0.519135   0.150140
     5  C   -0.674532   0.993233
     6  C   -0.211884  -0.005571
     7  C   -0.060104  -0.602546
     8  C    0.487762  -0.737423
     9  C    0.624978  -1.294363
    10  C    0.432116  -0.513356
    11  C   -0.972648   0.769047
    12  C    1.380328  -2.015180
    13  N   -0.457812   0.152085
    14  H   -0.007134   0.142273
    15  H   -0.274040   0.405181
    16  H   -0.124548   0.255490
    17  H    0.013515   0.114946
    18  H   -0.294289   0.461328
    19  H    0.195696  -0.057137
    20  H   -0.307362   0.469797
    21  H   -0.044714   0.217066
    22  H    0.417121  -0.280430
    23  H    0.347981  -0.130242
    24  H    0.054233   0.064770
    25  H   -0.027665   0.187273
    26  H   -0.084616   0.259082
    27  H    0.008335   0.123528
    28  H   -0.000290   0.127512
    29  H    0.261015  -0.069696
    30  H   -0.123842   0.309241
    31  H   -0.264914   0.418908
    32  H   -0.372057   0.549057
    33  H   -0.068129   0.237904
    34  H   -0.319503   0.479852
    35  H   -0.137590   0.247727
    36  H   -0.196786   0.338992
    37  H   -0.291029   0.431271
    38  H   -0.121556   0.254728
    39  H    0.002471   0.232393
    40  H    0.147449   0.084621
 Sum of Mulliken charges =  -1.00000   1.00000

 Dipole moment (field-independent basis, Debye):
    X=             -2.6336    Y=              2.9865    Z=             -0.2110  Tot=              3.9875
 Quadrupole moment (field-independent basis, Debye-Ang):
   XX=           -167.0084   YY=           -146.2500   ZZ=           -123.3160
   XY=             -1.7468   XZ=              1.9643   YZ=             -0.2292

 Summary of Natural Population Analysis:

                                       Natural Population
                Natural  -----------------------------------------------
    Atom  No    Charge         Core      Valence    Rydberg      Total
 -----------------------------------------------------------------------
      C    1   -0.28629      0.99966     2.28147    0.00517     3.28629
      C    2   -0.19205      0.99964     2.18432    0.00809     3.19205
      C    3   -0.18841      0.99963     2.18030    0.00849     3.18841
      C    4   -0.19317      0.99961     2.18464    0.00893     3.19317
      C    5   -0.11308      0.99957     2.10359    0.00992     3.11308
      C    6   -0.19068      0.99962     2.18334    0.00772     3.19068
      C    7   -0.28798      0.99966     2.28383    0.00449     3.28798
      C    8   -0.01047      0.99957     1.99776    0.01313     3.01047
      C    9   -0.19622      0.99961     2.18712    0.00949     3.19622
      C   10   -0.19294      0.99961     2.18447    0.00885     3.19294
      C   11   -0.18954      0.99964     2.18169    0.00821     3.18954
      C   12   -0.28728      0.99966     2.28249    0.00513     3.28728
      N   13   -0.42422      0.99977     2.91455    0.00991     3.92422
      H   14    0.09602      0.00000     0.40252    0.00147     0.40398
      H   15    0.09886      0.00000     0.40019    0.00094     0.40114
      H   16    0.09560      0.00000     0.40329    0.00110     0.40440
      H   17    0.09285      0.00000     0.40592    0.00123     0.40715
      H   18    0.09479      0.00000     0.40418    0.00103     0.40521
      H   19    0.09531      0.00000     0.40357    0.00113     0.40469
      H   20    0.09599      0.00000     0.40298    0.00103     0.40401
      H   21    0.09739      0.00000     0.40145    0.00116     0.40261
      H   22    0.10025      0.00000     0.39825    0.00150     0.39975
      H   23    0.09590      0.00000     0.40164    0.00246     0.40410
      H   24    0.10507      0.00000     0.39361    0.00133     0.39493
      H   25    0.09284      0.00000     0.40592    0.00123     0.40716
      H   26    0.10073      0.00000     0.39825    0.00102     0.39927
      H   27    0.09579      0.00000     0.40338    0.00082     0.40421
      H   28    0.09371      0.00000     0.40532    0.00097     0.40629
      H   29    0.08857      0.00000     0.40967    0.00175     0.41143
      H   30    0.09678      0.00000     0.40198    0.00124     0.40322
      H   31    0.10080      0.00000     0.39804    0.00116     0.39920
      H   32    0.09738      0.00000     0.40142    0.00120     0.40262
      H   33    0.09573      0.00000     0.40226    0.00201     0.40427
      H   34    0.09737      0.00000     0.40145    0.00117     0.40263
      H   35    0.08702      0.00000     0.41140    0.00158     0.41298
      H   36    0.09726      0.00000     0.40147    0.00127     0.40274
      H   37    0.09923      0.00000     0.39963    0.00114     0.40077
      H   38    0.09461      0.00000     0.40396    0.00143     0.40539
      H   39    0.17461      0.00000     0.32357    0.00182     0.32539
      H   40    0.17188      0.00000     0.32591    0.00221     0.32812
 =======================================================================
   * Total *   -0.00000     12.99525    39.86081    0.14393    53.00000

 Normal termination of Gaussian 16 at Wed Dec  9 23:25:37 2020.
