 Gaussian 16, Revision A.03,

 -----------------------------------------------------------
 # opt freq B3LYP/6-31G(d) empiricaldispersion=gd3bj scf=xqc
 -----------------------------------------------------------

 -----------------------------
 CID_89085865_JID_760_neutraal
 -----------------------------
 Symbolic Z-matrix:
 Charge =  0 Multiplicity = 1

 SCF Done:  E(RB3LYP) =  -436.439398218     A.U. after   14 cycles
 SCF Done:  E(RB3LYP) =  -436.442303863     A.U. after   12 cycles
 SCF Done:  E(RB3LYP) =  -436.442659272     A.U. after   12 cycles
 SCF Done:  E(RB3LYP) =  -436.442819891     A.U. after   12 cycles
 SCF Done:  E(RB3LYP) =  -436.442947181     A.U. after   12 cycles
 SCF Done:  E(RB3LYP) =  -436.443009930     A.U. after   12 cycles
 SCF Done:  E(RB3LYP) =  -436.442971575     A.U. after   11 cycles
 SCF Done:  E(RB3LYP) =  -436.443261604     A.U. after   12 cycles
 SCF Done:  E(RB3LYP) =  -436.440804436     A.U. after   15 cycles
 SCF Done:  E(RB3LYP) =  -436.443376291     A.U. after   13 cycles
 SCF Done:  E(RB3LYP) =  -436.444783293     A.U. after   12 cycles
 SCF Done:  E(RB3LYP) =  -436.444810952     A.U. after   10 cycles
 SCF Done:  E(RB3LYP) =  -436.444817205     A.U. after   11 cycles
 SCF Done:  E(RB3LYP) =  -436.444818354     A.U. after    9 cycles
 SCF Done:  E(RB3LYP) =  -436.444818529     A.U. after    8 cycles
 Optimization completed.
    -- Stationary point found.
 Normal termination of Gaussian 16 at Tue Dec  8 13:29:14 2020.

 --------------------------------------------------------------------
 #N Geom=AllCheck Guess=TCheck SCRF=Check GenChk RB3LYP/6-31G(d) Freq
 --------------------------------------------------------------------

 Structure from the checkpoint file:  "JID_760.chk"
 -----------------------------
 CID_89085865_JID_760_neutraal
 -----------------------------
 Charge =  0 Multiplicity = 1

 SCF Done:  E(RB3LYP) =  -436.444818529     A.U. after    1 cycles

  Exact polarizability: 131.972   1.899 104.750  -3.869  -0.164  44.000
 Approx polarizability: 199.900   1.942 180.071  -8.977  -0.460  69.899

                      1                      2                      3
                      A                      A                      A
 Frequencies --     55.1828               129.7999               199.3473
 Red. masses --      4.8610                 3.9331                 3.7887
 Frc consts  --      0.0087                 0.0390                 0.0887
 IR Inten    --      4.3074                 5.2290                 0.9131

                      4                      5                      6
                      A                      A                      A
 Frequencies --    237.5762               304.9398               378.0425
 Red. masses --      2.8384                 3.8017                 1.8333
 Frc consts  --      0.0944                 0.2083                 0.1544
 IR Inten    --      3.8267                 7.1528                69.8307

                      7                      8                      9
                      A                      A                      A
 Frequencies --    394.9623               433.4598               458.7909
 Red. masses --      1.2462                 1.9722                 2.2093
 Frc consts  --      0.1145                 0.2183                 0.2740
 IR Inten    --     21.0830                98.9866                32.7183

                     10                     11                     12
                      A                      A                      A
 Frequencies --    490.4844               528.6468               562.1208
 Red. masses --      2.1662                 3.3665                 3.2046
 Frc consts  --      0.3070                 0.5543                 0.5966
 IR Inten    --    101.7218                18.5874                 4.9570

                     13                     14                     15
                      A                      A                      A
 Frequencies --    583.5530               633.0796               682.9503
 Red. masses --      3.8174                 2.3430                 3.1136
 Frc consts  --      0.7659                 0.5533                 0.8556
 IR Inten    --      3.8227                24.0413                58.1222

                     16                     17                     18
                      A                      A                      A
 Frequencies --    702.3533               752.0609               761.7545
 Red. masses --      1.5852                 3.0721                 1.4262
 Frc consts  --      0.4607                 1.0237                 0.4876
 IR Inten    --    213.1084                 8.4437               112.3326

                     19                     20                     21
                      A                      A                      A
 Frequencies --    804.5250               855.0562               867.2314
 Red. masses --      4.3640                 1.6639                 3.0677
 Frc consts  --      1.6642                 0.7167                 1.3593
 IR Inten    --     18.2827                 1.9847                13.2663

                     22                     23                     24
                      A                      A                      A
 Frequencies --    925.6690               952.3847               970.7586
 Red. masses --      1.3246                 1.1994                 1.3655
 Frc consts  --      0.6687                 0.6410                 0.7582
 IR Inten    --      5.1117                 0.2342                 4.4984

                     25                     26                     27
                      A                      A                      A
 Frequencies --   1065.4130              1082.9850              1104.6676
 Red. masses --      2.3316                 1.9994                 1.7167
 Frc consts  --      1.5594                 1.3817                 1.2343
 IR Inten    --      6.3946                14.4504                10.4456

                     28                     29                     30
                      A                      A                      A
 Frequencies --   1179.2663              1192.1681              1229.5251
 Red. masses --      1.2242                 1.0950                 2.7691
 Frc consts  --      1.0031                 0.9169                 2.4664
 IR Inten    --      9.9896                 4.4428                20.3242

                     31                     32                     33
                      A                      A                      A
 Frequencies --   1277.6309              1312.1105              1340.8920
 Red. masses --      2.5629                 2.3081                 2.2095
 Frc consts  --      2.4648                 2.3412                 2.3406
 IR Inten    --     38.9729                43.9152                27.7915

                     34                     35                     36
                      A                      A                      A
 Frequencies --   1380.7911              1455.3511              1506.5117
 Red. masses --      3.0630                 1.2984                 2.5124
 Frc consts  --      3.4408                 1.6202                 3.3596
 IR Inten    --     10.6912                 3.8037                 9.2845

                     37                     38                     39
                      A                      A                      A
 Frequencies --   1546.4269              1632.7852              1650.9816
 Red. masses --      2.6322                 2.9623                 3.0611
 Frc consts  --      3.7087                 4.6530                 4.9161
 IR Inten    --     63.4774                 6.1363                12.4897

                     40                     41                     42
                      A                      A                      A
 Frequencies --   1654.6807              1676.0698              1748.9064
 Red. masses --      1.3418                 1.6832                 5.0344
 Frc consts  --      2.1646                 2.7859                 9.0725
 IR Inten    --     21.8362               180.2600               385.5831

                     43                     44                     45
                      A                      A                      A
 Frequencies --   3146.7702              3172.5329              3185.5681
 Red. masses --      1.0894                 1.0866                 1.0870
 Frc consts  --      6.3556                 6.4436                 6.4994
 IR Inten    --     42.5015                13.2439                 4.9404

                     46                     47                     48
                      A                      A                      A
 Frequencies --   3195.4076              3209.0139              3516.8400
 Red. masses --      1.0920                 1.0972                 1.0482
 Frc consts  --      6.5693                 6.6569                 7.6382
 IR Inten    --     27.6407                24.6688                14.8186

                     49                     50                     51
                      A                      A                      A
 Frequencies --   3551.6842              3631.2688              3671.6356
 Red. masses --      1.0475                 1.0969                 1.1002
 Frc consts  --      7.7850                 8.5217                 8.7389
 IR Inten    --     15.0198                14.6261                32.7762

 - Thermochemistry -
 -------------------
 Temperature   298.150 Kelvin.  Pressure   1.00000 Atm.
 Atom     1 has atomic number  6 and mass  12.00000

 Molecular mass:   135.07965 amu.
 Principal axes and moments of inertia in atomic units:
                           1         2         3
     Eigenvalues --   822.910961587.383582251.72896
           X            0.99994  -0.00959   0.00456
           Y            0.00962   0.99993  -0.00618
           Z           -0.00450   0.00623   0.99997
 This molecule is an asymmetric top.
 Rotational symmetry number  1.
 Warning -- assumption of classical behavior for rotation
           may cause significant error
 Rotational temperatures (Kelvin)      0.10525     0.05456     0.03847
 Rotational constants (GHZ):           2.19312     1.13693     0.80149
 Zero-point vibrational energy     412607.7 (Joules/Mol)
                                   98.61560 (Kcal/Mol)
 Warning -- explicit consideration of  13 degrees of freedom as
           vibrations may cause significant error
 Vibrational temperatures:     79.40   186.75   286.82   341.82   438.74
          (Kelvin)            543.92   568.26   623.65   660.10   705.70
                              760.60   808.77   839.60   910.86   982.61
                             1010.53  1082.05  1095.99  1157.53  1230.24
                             1247.75  1331.83  1370.27  1396.71  1532.89
                             1558.17  1589.37  1696.70  1715.26  1769.01
                             1838.23  1887.83  1929.24  1986.65  2093.93
                             2167.53  2224.96  2349.21  2375.39  2380.72
                             2411.49  2516.29  4527.50  4564.57  4583.32
                             4597.48  4617.06  5059.95  5110.08  5224.59
                             5282.66

 Zero-point correction=                           0.157154 (Hartree/Particle)
 Thermal correction to Energy=                    0.166028
 Thermal correction to Enthalpy=                  0.166972
 Thermal correction to Gibbs Free Energy=         0.123357
 Sum of electronic and zero-point Energies=           -436.287665
 Sum of electronic and thermal Energies=              -436.278791
 Sum of electronic and thermal Enthalpies=            -436.277847
 Sum of electronic and thermal Free Energies=         -436.321461

                     E (Thermal)             CV                S
                      KCal/Mol        Cal/Mol-Kelvin    Cal/Mol-Kelvin
 Total                  104.184             35.154             91.795
 Electronic               0.000              0.000              0.000
 Translational            0.889              2.981             40.614
 Rotational               0.889              2.981             29.466
 Vibrational            102.407             29.192             21.715
 Vibration     1          0.596              1.976              4.622
 Vibration     2          0.612              1.923              2.949
 Vibration     3          0.637              1.841              2.139
 Vibration     4          0.656              1.783              1.821
 Vibration     5          0.696              1.664              1.390
 Vibration     6          0.748              1.517              1.047
 Vibration     7          0.762              1.481              0.981
 Vibration     8          0.794              1.397              0.847
 Vibration     9          0.817              1.341              0.770
 Vibration    10          0.846              1.271              0.682
 Vibration    11          0.884              1.187              0.590
 Vibration    12          0.918              1.113              0.520
 Vibration    13          0.940              1.067              0.479

 Optimization completed.
    -- Stationary point found.
 Normal termination of Gaussian 16 at Tue Dec  8 13:32:40 2020.

 ----------------------------------------------------------------------
 # B3LYP/6-311++G(d,p) empiricaldispersion=gd3bj scf=xqc pop=npa geom=c
 heck
 ----------------------------------------------------------------------

 -------------------------------------
 CID_89085865_JID_760_Energie_neutraal
 -------------------------------------
 Structure from the checkpoint file:  "JID_760.chk"
 Charge =  0 Multiplicity = 1

 SCF Done:  E(RB3LYP) =  -436.578127303     A.U. after   15 cycles
 Normal termination of Gaussian 16 at Tue Dec  8 13:38:37 2020.

 ----------------------------------------------------------------------
 # B3LYP/6-311++G(d,p) empiricaldispersion=gd3bj scf=xqc pop=npa geom=c
 heck
 ----------------------------------------------------------------------

 -----------------------------------
 CID_89085865_JID_760_Energie_kation
 -----------------------------------
 Structure from the checkpoint file:  "JID_760.chk"
 Charge =  1 Multiplicity = 2

 SCF Done:  E(UB3LYP) =  -436.312066617     A.U. after   21 cycles
 Normal termination of Gaussian 16 at Tue Dec  8 13:46:00 2020.
 Gaussian 16:  ES64L-G16RevA.03 25-Dec-2016

 ----------------------------------------------------------------------
 # B3LYP/6-311++G(d,p) empiricaldispersion=gd3bj scf=xqc pop=npa geom=c
 heck
 ----------------------------------------------------------------------

 ----------------------------------
 CID_89085865_JID_760_Energie_anion
 ----------------------------------
 Structure from the checkpoint file:  "JID_760.chk"
 Charge = -1 Multiplicity = 2

                         Standard orientation:
 ---------------------------------------------------------------------
 Center     Atomic      Atomic             Coordinates (Angstroms)
 Number     Number       Type             X           Y           Z
 ---------------------------------------------------------------------
      1          6           0       -2.405770   -0.916768    0.184434
      2          6           0       -1.386193   -1.794643   -0.182387
      3          6           0       -0.104781   -1.295516   -0.425225
      4          6           0        0.173305    0.072888   -0.307919
      5          6           0       -0.871656    0.962789    0.049477
      6          6           0       -2.150331    0.449271    0.297414
      7          7           0       -0.574770    2.316881    0.195892
      8          7           0        1.413350    0.664834   -0.628951
      9          6           0        2.512494    0.207619   -0.154312
     10          7           0        2.707534   -0.871578    0.675864
     11          1           0       -3.407317   -1.291010    0.377677
     12          1           0       -1.583188   -2.857387   -0.287679
     13          1           0        0.687709   -1.964043   -0.749939
     14          1           0       -2.946938    1.133280    0.581344
     15          1           0       -1.345332    2.940778   -0.010437
     16          1           0        0.277111    2.568909   -0.296820
     17          1           0        3.440091    0.698363   -0.454823
     18          1           0        3.562480   -0.884906    1.214492
     19          1           0        1.890172   -1.228784    1.157653
 ---------------------------------------------------------------------

 SCF Done:  E(UB3LYP) =  -436.564125205     A.U. after   33 cycles
 SCF Done:  E(UB3LYP) =  -436.564125205     a.u. after    1 cycles

 The electronic state is 2-A.
 Alpha  occ. eigenvalues --  -14.21906 -14.20580 -14.18619 -10.13646 -10.10328
 Alpha  occ. eigenvalues --  -10.09386 -10.06687 -10.06497 -10.06289 -10.06226
 Alpha  occ. eigenvalues --   -0.85191  -0.81226  -0.76436  -0.72710  -0.63642
 Alpha  occ. eigenvalues --   -0.62037  -0.53528  -0.50255  -0.47442  -0.42635
 Alpha  occ. eigenvalues --   -0.42290  -0.40537  -0.39333  -0.34986  -0.32828
 Alpha  occ. eigenvalues --   -0.32487  -0.31588  -0.28944  -0.27289  -0.25795
 Alpha  occ. eigenvalues --   -0.24496  -0.20870  -0.18603  -0.15504  -0.12603
 Alpha  occ. eigenvalues --   -0.09363   0.04760
 Alpha virt. eigenvalues --    0.06511   0.07386   0.08320   0.08991   0.09273
 Alpha virt. eigenvalues --    0.10396   0.10531   0.11817   0.12375   0.13339
 Alpha virt. eigenvalues --    0.14314   0.14975   0.16229   0.16913   0.17635

  Beta  occ. eigenvalues --  -14.21820 -14.20551 -14.18625 -10.13616 -10.10328
  Beta  occ. eigenvalues --  -10.09380 -10.06679 -10.06487 -10.06276 -10.06221
  Beta  occ. eigenvalues --   -0.85137  -0.81175  -0.76355  -0.72683  -0.63611
  Beta  occ. eigenvalues --   -0.62000  -0.53468  -0.50213  -0.47391  -0.42476
  Beta  occ. eigenvalues --   -0.42238  -0.40496  -0.39280  -0.34937  -0.32797
  Beta  occ. eigenvalues --   -0.32459  -0.31532  -0.28913  -0.27260  -0.25762
  Beta  occ. eigenvalues --   -0.24467  -0.20847  -0.18580  -0.15473  -0.12574
  Beta  occ. eigenvalues --   -0.09342
  Beta virt. eigenvalues --    0.07045   0.07838   0.08361   0.08484   0.09510
  Beta virt. eigenvalues --    0.10125   0.10505   0.11024   0.12387   0.12992
  Beta virt. eigenvalues --    0.13437   0.14783   0.14922   0.16341   0.16938

 Mulliken charges and spin densities:
               1          2
     1  C    0.597755  -0.897660
     2  C    0.200729  -0.499057
     3  C    0.568510  -0.668696
     4  C    0.757254  -1.120180
     5  C   -0.755442   0.852223
     6  C   -0.852848   0.785606
     7  N   -0.299178  -0.010757
     8  N   -0.151250   0.037375
     9  C    0.960749  -0.987333
    10  N    0.006401  -0.363756
    11  H   -0.004683   0.136633
    12  H   -0.088967   0.228611
    13  H   -0.004731   0.199772
    14  H   -0.480412   0.621015
    15  H   -0.153118   0.392257
    16  H    0.193690   0.063695
    17  H   -0.805690   0.992843
    18  H   -0.778149   1.079669
    19  H    0.089380   0.157740
 Sum of Mulliken charges =  -1.00000   1.00000

 Dipole moment (field-independent basis, Debye):
    X=             -6.2299    Y=             -0.7779    Z=             -2.5031  Tot=              6.7588
 Quadrupole moment (field-independent basis, Debye-Ang):
   XX=           -131.3510   YY=            -91.2832   ZZ=            -87.4997
   XY=              7.8633   XZ=             -9.0742   YZ=              1.5516

 Summary of Natural Population Analysis:

                                       Natural Population
                Natural  -----------------------------------------------
    Atom  No    Charge         Core      Valence    Rydberg      Total
 -----------------------------------------------------------------------
      C    1   -0.10479      0.99957     2.09533    0.00990     3.10479
      C    2   -0.12227      0.99957     2.11221    0.01049     3.12227
      C    3   -0.11666      0.99953     2.10846    0.00868     3.11666
      C    4    0.04853      0.99943     1.93892    0.01311     2.95147
      C    5    0.08104      0.99946     1.90687    0.01263     2.91896
      C    6   -0.12519      0.99953     2.11562    0.01005     3.12519
      N    7   -0.39687      0.99971     2.88723    0.00993     3.89687
      N    8   -0.29297      0.99965     2.77978    0.01354     3.79297
      C    9    0.16972      0.99962     1.81214    0.01851     2.83028
      N   10   -0.39856      0.99974     2.88907    0.00975     3.89856
      H   11    0.09700      0.00000     0.40215    0.00085     0.40300
      H   12    0.09762      0.00000     0.40148    0.00090     0.40238
      H   13    0.10406      0.00000     0.39442    0.00152     0.39594
      H   14    0.09884      0.00000     0.39986    0.00131     0.40116
      H   15    0.18270      0.00000     0.31497    0.00233     0.31730
      H   16    0.19628      0.00000     0.30148    0.00224     0.30372
      H   17    0.08466      0.00000     0.41283    0.00250     0.41534
      H   18    0.20365      0.00000     0.25966    0.03669     0.29635
      H   19    0.19322      0.00000     0.30408    0.00270     0.30678
 =======================================================================
   * Total *    0.00000      9.99581    25.83657    0.16763    36.00000

 Normal termination of Gaussian 16 at Tue Dec  8 13:51:52 2020.
