 Gaussian 16, Revision A.03,

 -----------------------------------------------------------
 # opt freq B3LYP/6-31G(d) empiricaldispersion=gd3bj scf=xqc
 -----------------------------------------------------------

 -------------------------------
 CID_130887424_JID_5862_neutraal
 -------------------------------
 Symbolic Z-matrix:
 Charge =  0 Multiplicity = 1

 SCF Done:  E(RB3LYP) =  -690.004558191     A.U. after   14 cycles
 SCF Done:  E(RB3LYP) =  -690.011403980     A.U. after   12 cycles
 SCF Done:  E(RB3LYP) =  -690.011193446     A.U. after   14 cycles
 SCF Done:  E(RB3LYP) =  -690.014360681     A.U. after   12 cycles
 SCF Done:  E(RB3LYP) =  -690.015731168     A.U. after   12 cycles
 SCF Done:  E(RB3LYP) =  -690.014148329     A.U. after   14 cycles
 SCF Done:  E(RB3LYP) =  -690.016564230     A.U. after   13 cycles
 SCF Done:  E(RB3LYP) =  -690.016709036     A.U. after   12 cycles
 SCF Done:  E(RB3LYP) =  -690.017069443     A.U. after   13 cycles
 SCF Done:  E(RB3LYP) =  -690.017226310     A.U. after   12 cycles
 SCF Done:  E(RB3LYP) =  -690.017270685     A.U. after    8 cycles
 SCF Done:  E(RB3LYP) =  -690.017272233     A.U. after    8 cycles
 SCF Done:  E(RB3LYP) =  -690.017273460     A.U. after    8 cycles
 SCF Done:  E(RB3LYP) =  -690.017273822     A.U. after    7 cycles
 Optimization completed.
    -- Stationary point found.
 Normal termination of Gaussian 16 at Thu Dec 10 17:25:49 2020.

 --------------------------------------------------------------------
 #N Geom=AllCheck Guess=TCheck SCRF=Check GenChk RB3LYP/6-31G(d) Freq
 --------------------------------------------------------------------

 Structure from the checkpoint file:  "JID_5862.chk"
 -------------------------------
 CID_130887424_JID_5862_neutraal
 -------------------------------
 Charge =  0 Multiplicity = 1

 SCF Done:  E(RB3LYP) =  -690.017273822     A.U. after    1 cycles

  Exact polarizability: 124.815  -2.306 135.277   3.322   0.358 113.770
 Approx polarizability: 163.894   1.518 206.044  -0.672   2.859 176.429

                      1                      2                      3
                      A                      A                      A
 Frequencies --     45.4071                68.2091                83.5561
 Red. masses --      5.9705                 5.0365                 7.7080
 Frc consts  --      0.0073                 0.0138                 0.0317
 IR Inten    --      2.0395                 3.3881                10.4484

                      4                      5                      6
                      A                      A                      A
 Frequencies --    102.1419               124.0229               151.4441
 Red. masses --      3.8798                 4.8750                 3.2075
 Frc consts  --      0.0238                 0.0442                 0.0433
 IR Inten    --      0.7539                 0.2197                 0.3767

                      7                      8                      9
                      A                      A                      A
 Frequencies --    171.8146               233.2859               255.3349
 Red. masses --      4.8705                 2.6004                 2.6588
 Frc consts  --      0.0847                 0.0834                 0.1021
 IR Inten    --      2.0832                 0.1503                 2.9663

                     10                     11                     12
                      A                      A                      A
 Frequencies --    283.9483               327.3161               338.3369
 Red. masses --      2.5171                 2.3123                 2.1592
 Frc consts  --      0.1196                 0.1460                 0.1456
 IR Inten    --     16.8786                 5.3708                 2.3968

                     13                     14                     15
                      A                      A                      A
 Frequencies --    367.7590               407.6296               431.2949
 Red. masses --      2.8055                 2.5454                 2.4866
 Frc consts  --      0.2236                 0.2492                 0.2725
 IR Inten    --      2.4501                 2.6572                18.2975

                     16                     17                     18
                      A                      A                      A
 Frequencies --    450.1720               477.9314               495.1585
 Red. masses --      2.3245                 3.5065                 1.2979
 Frc consts  --      0.2776                 0.4719                 0.1875
 IR Inten    --      5.2955                 6.9058                46.9940

                     19                     20                     21
                      A                      A                      A
 Frequencies --    519.0552               537.1456               573.3113
 Red. masses --      1.8875                 3.6766                 2.5169
 Frc consts  --      0.2996                 0.6250                 0.4874
 IR Inten    --     55.4313                10.2967                17.2751

                     22                     23                     24
                      A                      A                      A
 Frequencies --    617.1549               682.9792               735.4015
 Red. masses --      3.2289                 4.5535                 3.2483
 Frc consts  --      0.7246                 1.2514                 1.0350
 IR Inten    --     18.4056                11.0346                 0.7045

                     25                     26                     27
                      A                      A                      A
 Frequencies --    794.1453               812.3942               847.3498
 Red. masses --      3.8094                 2.8093                 1.6980
 Frc consts  --      1.4155                 1.0924                 0.7183
 IR Inten    --      3.9981                 3.0789                 2.8620

                     28                     29                     30
                      A                      A                      A
 Frequencies --    870.3727               887.7942               896.2699
 Red. masses --      2.2081                 3.4467                 1.9892
 Frc consts  --      0.9855                 1.6006                 0.9415
 IR Inten    --      1.3688                 2.3150                 3.6670

                     31                     32                     33
                      A                      A                      A
 Frequencies --    923.3339               933.4320               949.3873
 Red. masses --      1.8168                 1.9549                 2.0205
 Frc consts  --      0.9126                 1.0035                 1.0730
 IR Inten    --      2.5997                 4.0776                 8.1993

                     34                     35                     36
                      A                      A                      A
 Frequencies --    999.1966              1017.4936              1019.4736
 Red. masses --      1.8401                 1.7289                 2.3302
 Frc consts  --      1.0824                 1.0546                 1.4269
 IR Inten    --      4.4801                 2.6686                 3.4746

                     37                     38                     39
                      A                      A                      A
 Frequencies --   1041.5710              1060.0204              1080.9672
 Red. masses --      2.1120                 2.2512                 1.9898
 Frc consts  --      1.3500                 1.4903                 1.3699
 IR Inten    --     12.2960                27.5350                 3.2960

                     40                     41                     42
                      A                      A                      A
 Frequencies --   1086.4407              1092.0245              1114.3855
 Red. masses --      1.7693                 2.2931                 2.3649
 Frc consts  --      1.2304                 1.6112                 1.7304
 IR Inten    --      6.2576                13.6523                12.2485

                     43                     44                     45
                      A                      A                      A
 Frequencies --   1155.7142              1162.3584              1178.9237
 Red. masses --      1.9901                 1.7635                 1.7842
 Frc consts  --      1.5661                 1.4038                 1.4610
 IR Inten    --     24.0876                 8.4966                 8.0179

                     46                     47                     48
                      A                      A                      A
 Frequencies --   1200.8106              1225.3460              1249.4372
 Red. masses --      1.2551                 1.3279                 1.3023
 Frc consts  --      1.0663                 1.1748                 1.1978
 IR Inten    --      6.2062                 5.5544                 6.2575

                     49                     50                     51
                      A                      A                      A
 Frequencies --   1258.3535              1278.3242              1282.2361
 Red. masses --      1.7129                 1.7537                 1.8697
 Frc consts  --      1.5980                 1.6884                 1.8112
 IR Inten    --      9.1104                26.6336                45.0760

                     52                     53                     54
                      A                      A                      A
 Frequencies --   1298.4582              1310.7613              1323.3613
 Red. masses --      1.4430                 1.2317                 1.8300
 Frc consts  --      1.4334                 1.2468                 1.8883
 IR Inten    --     20.0406                 8.9104                 9.4007

                     55                     56                     57
                      A                      A                      A
 Frequencies --   1351.3398              1365.5966              1366.4232
 Red. masses --      1.3285                 1.3137                 1.4903
 Frc consts  --      1.4293                 1.4434                 1.6394
 IR Inten    --      7.9646                13.8385                 2.2663

                     58                     59                     60
                      A                      A                      A
 Frequencies --   1377.9625              1386.3683              1401.4265
 Red. masses --      1.4104                 1.4435                 1.4694
 Frc consts  --      1.5778                 1.6347                 1.7003
 IR Inten    --      9.2830                 3.5587                 7.6989

                     61                     62                     63
                      A                      A                      A
 Frequencies --   1405.6009              1414.9492              1420.6142
 Red. masses --      1.3972                 1.3419                 1.2945
 Frc consts  --      1.6264                 1.5829                 1.5392
 IR Inten    --      1.5328                 3.9380                 5.2109

                     64                     65                     66
                      A                      A                      A
 Frequencies --   1425.6305              1451.2453              1471.6217
 Red. masses --      1.3171                 1.3246                 1.8546
 Frc consts  --      1.5772                 1.6437                 2.3664
 IR Inten    --     21.1303                 1.8830                28.7348

                     67                     68                     69
                      A                      A                      A
 Frequencies --   1498.7995              1505.3299              1506.1356
 Red. masses --      1.0997                 1.0893                 1.0995
 Frc consts  --      1.4555                 1.4543                 1.4695
 IR Inten    --     10.5542                11.0082                 5.1306

                     70                     71                     72
                      A                      A                      A
 Frequencies --   1515.0510              1524.4888              1544.1829
 Red. masses --      1.0884                 1.0992                 1.0900
 Frc consts  --      1.4719                 1.5052                 1.5314
 IR Inten    --      8.9795                 2.3988                 1.9534

                     73                     74                     75
                      A                      A                      A
 Frequencies --   1572.2122              1826.0075              1830.3620
 Red. masses --      1.0895                10.1185                10.1190
 Frc consts  --      1.5867                19.8779                19.9738
 IR Inten    --      7.3071               113.2622               419.0226

                     76                     77                     78
                      A                      A                      A
 Frequencies --   2908.3177              3004.0068              3015.4504
 Red. masses --      1.0840                 1.0668                 1.0799
 Frc consts  --      5.4021                 5.6722                 5.7856
 IR Inten    --     78.2703                27.0081                22.4260

                     79                     80                     81
                      A                      A                      A
 Frequencies --   3017.8599              3027.7851              3036.4288
 Red. masses --      1.0751                 1.0618                 1.0665
 Frc consts  --      5.7692                 5.7349                 5.7933
 IR Inten    --     67.4926                20.0559                16.6169

                     82                     83                     84
                      A                      A                      A
 Frequencies --   3040.2398              3046.4308              3055.0836
 Red. masses --      1.0619                 1.0624                 1.0755
 Frc consts  --      5.7832                 5.8093                 5.9143
 IR Inten    --     28.2105                23.5646                26.2496

                     85                     86                     87
                      A                      A                      A
 Frequencies --   3067.0561              3069.2700              3075.6153
 Red. masses --      1.1040                 1.0807                 1.0940
 Frc consts  --      6.1190                 5.9984                 6.0971
 IR Inten    --     16.6138                47.7953                62.8392

                     88                     89                     90
                      A                      A                      A
 Frequencies --   3086.3108              3092.9064              3097.8586
 Red. masses --      1.0965                 1.1013                 1.1055
 Frc consts  --      6.1539                 6.2070                 6.2507
 IR Inten    --     45.0993                25.7612                54.3011

                     91                     92                     93
                      A                      A                      A
 Frequencies --   3134.3914              3150.9230              3631.7354
 Red. masses --      1.0918                 1.0926                 1.0778
 Frc consts  --      6.3198                 6.3913                 8.3759
 IR Inten    --      2.9975                 9.7328                28.8405

 - Thermochemistry -
 -------------------
 Temperature   298.150 Kelvin.  Pressure   1.00000 Atm.
 Atom     1 has atomic number  6 and mass  12.00000

 Molecular mass:   210.13683 amu.
 Principal axes and moments of inertia in atomic units:
                           1         2         3
     Eigenvalues --  2351.930453319.566334296.94552
           X            0.99634  -0.08329   0.01932
           Y            0.08325   0.99652   0.00297
           Z           -0.01950  -0.00135   0.99981
 This molecule is an asymmetric top.
 Rotational symmetry number  1.
 Warning -- assumption of classical behavior for rotation
           may cause significant error
 Rotational temperatures (Kelvin)      0.03683     0.02609     0.02016
 Rotational constants (GHZ):           0.76734     0.54367     0.42001
 Zero-point vibrational energy     762912.2 (Joules/Mol)
                                  182.34040 (Kcal/Mol)
 Warning -- explicit consideration of  22 degrees of freedom as
           vibrations may cause significant error
 Vibrational temperatures:     65.33    98.14   120.22   146.96   178.44
          (Kelvin)            217.89   247.20   335.65   367.37   408.54
                              470.93   486.79   529.12   586.49   620.54
                              647.70   687.64   712.42   746.80   772.83
                              824.87   887.95   982.65  1058.08  1142.60
                             1168.85  1219.15  1252.27  1277.34  1289.53
                             1328.47  1343.00  1365.96  1437.62  1463.95
                             1466.80  1498.59  1525.13  1555.27  1563.15
                             1571.18  1603.35  1662.81  1672.37  1696.21
                             1727.70  1763.00  1797.66  1810.49  1839.22
                             1844.85  1868.19  1885.89  1904.02  1944.28
                             1964.79  1965.98  1982.58  1994.67  2016.34
                             2022.35  2035.80  2043.95  2051.16  2088.02
                             2117.34  2156.44  2165.83  2166.99  2179.82
                             2193.40  2221.73  2262.06  2627.22  2633.48
                             4184.42  4322.10  4338.56  4342.03  4356.31
                             4368.74  4374.23  4383.13  4395.58  4412.81
                             4415.99  4425.12  4440.51  4450.00  4457.13
                             4509.69  4533.48  5225.26

 Zero-point correction=                           0.290578 (Hartree/Particle)
 Thermal correction to Energy=                    0.304386
 Thermal correction to Enthalpy=                  0.305330
 Thermal correction to Gibbs Free Energy=         0.250002
 Sum of electronic and zero-point Energies=           -689.726696
 Sum of electronic and thermal Energies=              -689.712888
 Sum of electronic and thermal Enthalpies=            -689.711944
 Sum of electronic and thermal Free Energies=         -689.767272

                     E (Thermal)             CV                S
                      KCal/Mol        Cal/Mol-Kelvin    Cal/Mol-Kelvin
 Total                  191.005             54.034            116.447
 Electronic               0.000              0.000              0.000
 Translational            0.889              2.981             41.932
 Rotational               0.889              2.981             31.884
 Vibrational            189.228             48.072             42.632
 Vibration     1          0.595              1.979              5.008
 Vibration     2          0.598              1.969              4.204
 Vibration     3          0.600              1.960              3.806
 Vibration     4          0.604              1.947              3.413
 Vibration     5          0.610              1.929              3.037
 Vibration     6          0.619              1.901              2.654
 Vibration     7          0.626              1.877              2.416
 Vibration     8          0.654              1.790              1.854
 Vibration     9          0.666              1.754              1.693
 Vibration    10          0.682              1.703              1.510
 Vibration    11          0.711              1.621              1.273
 Vibration    12          0.719              1.599              1.220
 Vibration    13          0.740              1.539              1.089
 Vibration    14          0.772              1.454              0.935
 Vibration    15          0.792              1.402              0.854
 Vibration    16          0.809              1.361              0.795
 Vibration    17          0.834              1.299              0.716
 Vibration    18          0.851              1.261              0.670
 Vibration    19          0.874              1.208              0.612
 Vibration    20          0.892              1.168              0.571
 Vibration    21          0.930              1.089              0.498
 Vibration    22          0.977              0.996              0.421

 Optimization completed.
    -- Stationary point found.
 Normal termination of Gaussian 16 at Thu Dec 10 17:39:43 2020.

 ----------------------------------------------------------------------
 # B3LYP/6-311++G(d,p) empiricaldispersion=gd3bj scf=xqc pop=npa geom=c
 heck
 ----------------------------------------------------------------------

 ---------------------------------------
 CID_130887424_JID_5862_Energie_neutraal
 ---------------------------------------
 Structure from the checkpoint file:  "JID_5862.chk"
 Charge =  0 Multiplicity = 1

 SCF Done:  E(RB3LYP) =  -690.215576496     A.U. after   14 cycles
 Normal termination of Gaussian 16 at Thu Dec 10 17:45:47 2020.

 ----------------------------------------------------------------------
 # B3LYP/6-311++G(d,p) empiricaldispersion=gd3bj scf=xqc pop=npa geom=c
 heck
 ----------------------------------------------------------------------

 -------------------------------------
 CID_130887424_JID_5862_Energie_kation
 -------------------------------------
 Structure from the checkpoint file:  "JID_5862.chk"
 Charge =  1 Multiplicity = 2

 SCF Done:  E(UB3LYP) =  -689.918253168     A.U. after   33 cycles
 SCF Done:  E(UB3LYP) =  -689.918253168     a.u. after    1 cycles
 Normal termination of Gaussian 16 at Thu Dec 10 18:05:53 2020.
 Gaussian 16:  ES64L-G16RevA.03 25-Dec-2016

 ----------------------------------------------------------------------
 # B3LYP/6-311++G(d,p) empiricaldispersion=gd3bj scf=xqc pop=npa geom=c
 heck
 ----------------------------------------------------------------------

 ------------------------------------
 CID_130887424_JID_5862_Energie_anion
 ------------------------------------
 Structure from the checkpoint file:  "JID_5862.chk"
 Charge = -1 Multiplicity = 2

                         Standard orientation:
 ---------------------------------------------------------------------
 Center     Atomic      Atomic             Coordinates (Angstroms)
 Number     Number       Type             X           Y           Z
 ---------------------------------------------------------------------
      1          6           0       -2.472869    1.617698   -0.798685
      2          6           0       -1.961164    2.166459    0.533937
      3          6           0       -0.631237    1.501419    0.884368
      4          7           0       -0.770168    0.044553    0.952713
      5          6           0       -1.281438   -0.570698   -0.269554
      6          6           0       -2.606016    0.095803   -0.709609
      7          6           0       -1.629268   -2.022079    0.002047
      8          8           0       -1.294252   -2.958527   -0.690799
      9          6           0        0.303855   -0.665248    1.644148
     10          6           0        1.741677   -0.779665    1.067278
     11          6           0        2.450748    0.563543    0.808462
     12          6           0        2.267654    0.822783   -0.688269
     13          8           0        2.413530    1.876524   -1.284848
     14          7           0        1.905367   -0.376165   -1.242379
     15          6           0        1.855111   -1.492105   -0.308170
     16          1           0       -3.439168    2.061510   -1.065151
     17          1           0       -1.765553    1.880511   -1.597246
     18          1           0       -1.819613    3.252135    0.480758
     19          1           0       -2.692080    1.962022    1.326780
     20          1           0        0.115881    1.823993    0.141700
     21          1           0       -0.282857    1.843832    1.865824
     22          1           0       -0.570115   -0.527557   -1.108162
     23          1           0       -3.385767   -0.151916    0.023633
     24          1           0       -2.907989   -0.333559   -1.671660
     25          1           0       -2.279334   -2.165966    0.894449
     26          1           0        0.397726   -0.196050    2.632503
     27          1           0       -0.043751   -1.690124    1.830381
     28          1           0        2.289618   -1.365668    1.814247
     29          1           0        3.529297    0.482260    0.996017
     30          1           0        2.080868    1.401061    1.401620
     31          1           0        1.859263   -0.482290   -2.246325
     32          1           0        2.776693   -2.090380   -0.356774
     33          1           0        1.013944   -2.153958   -0.525481
 ---------------------------------------------------------------------

 SCF Done:  E(UB3LYP) =  -690.207365533     A.U. after   33 cycles
 SCF Done:  E(UB3LYP) =  -690.207365533     a.u. after    1 cycles

 The electronic state is 2-A.
 Alpha  occ. eigenvalues --  -18.99302 -18.98809 -14.23550 -14.20266 -10.16833
 Alpha  occ. eigenvalues --  -10.12152 -10.10212 -10.09438 -10.08981 -10.08977
 Alpha  occ. eigenvalues --  -10.07866 -10.07322 -10.07210 -10.07182 -10.06875
 Alpha  occ. eigenvalues --   -0.93673  -0.92602  -0.83961  -0.82413  -0.71017
 Alpha  occ. eigenvalues --   -0.68241  -0.66763  -0.61945  -0.59263  -0.54762
 Alpha  occ. eigenvalues --   -0.53133  -0.48863  -0.48397  -0.46462  -0.45136
 Alpha  occ. eigenvalues --   -0.40207  -0.39264  -0.38527  -0.37149  -0.35517
 Alpha  occ. eigenvalues --   -0.34447  -0.33989  -0.33189  -0.32488  -0.31633
 Alpha  occ. eigenvalues --   -0.31201  -0.30597  -0.29665  -0.29144  -0.28602
 Alpha  occ. eigenvalues --   -0.27067  -0.26300  -0.25137  -0.24379  -0.23613
 Alpha  occ. eigenvalues --   -0.23320  -0.22713  -0.21809  -0.15853  -0.15224
 Alpha  occ. eigenvalues --   -0.13674  -0.11065   0.04526
 Alpha virt. eigenvalues --    0.06377   0.06654   0.07725   0.08568   0.09051
 Alpha virt. eigenvalues --    0.09319   0.09755   0.10815   0.10860   0.11569
 Alpha virt. eigenvalues --    0.11825   0.12113   0.12907   0.13334   0.13709

  Beta  occ. eigenvalues --  -18.99022 -18.98808 -14.23543 -14.20240 -10.16832
  Beta  occ. eigenvalues --  -10.11887 -10.10198 -10.09459 -10.08966 -10.08939
  Beta  occ. eigenvalues --  -10.07851 -10.07301 -10.07190 -10.07158 -10.06866
  Beta  occ. eigenvalues --   -0.93668  -0.92069  -0.83940  -0.82365  -0.70967
  Beta  occ. eigenvalues --   -0.68194  -0.66660  -0.61899  -0.59197  -0.54548
  Beta  occ. eigenvalues --   -0.53070  -0.48829  -0.48261  -0.46237  -0.44954
  Beta  occ. eigenvalues --   -0.40143  -0.39187  -0.38472  -0.37081  -0.35386
  Beta  occ. eigenvalues --   -0.34352  -0.33914  -0.33051  -0.32397  -0.31576
  Beta  occ. eigenvalues --   -0.31076  -0.30565  -0.29622  -0.29010  -0.28268
  Beta  occ. eigenvalues --   -0.26912  -0.25559  -0.24998  -0.24320  -0.23558
  Beta  occ. eigenvalues --   -0.23282  -0.22554  -0.21622  -0.15832  -0.15210
  Beta  occ. eigenvalues --   -0.13457  -0.11030
  Beta virt. eigenvalues --    0.06721   0.07488   0.08033   0.08655   0.09094
  Beta virt. eigenvalues --    0.09644   0.09833   0.10199   0.10923   0.11175
  Beta virt. eigenvalues --    0.11724   0.12109   0.12323   0.13001   0.13461

 Mulliken charges and spin densities:
               1          2
     1  C   -0.226196  -0.084922
     2  C    0.374685  -0.918859
     3  C   -0.382810   0.291824
     4  N    0.208990   0.127465
     5  C   -0.028698  -0.341094
     6  C   -0.416797  -0.109189
     7  C   -0.293561   0.282332
     8  O   -0.223552   0.083487
     9  C    0.315769  -0.805616
    10  C    1.018970  -0.583840
    11  C   -0.136224  -0.310616
    12  C    0.178590  -0.244252
    13  O   -0.331182   0.000735
    14  N   -0.192591   0.002214
    15  C   -0.155045  -0.289821
    16  H   -0.111707   0.289668
    17  H    0.119913   0.001746
    18  H   -0.010844   0.171500
    19  H    0.022532   0.105841
    20  H    0.313856  -0.154299
    21  H   -0.077386   0.225166
    22  H    0.301847  -0.064631
    23  H    0.160368  -0.029163
    24  H    0.112008   0.043048
    25  H    0.028448   0.065797
    26  H   -0.395646   0.577547
    27  H    0.009719   0.144464
    28  H   -0.801033   1.057301
    29  H   -0.524204   0.737938
    30  H    0.030836   0.154394
    31  H    0.209612   0.090908
    32  H   -0.364922   0.570901
    33  H    0.266254  -0.087973
 Sum of Mulliken charges =  -1.00000   1.00000

 Dipole moment (field-independent basis, Debye):
    X=             -4.7732    Y=              1.6018    Z=             -2.7669  Tot=              5.7450
 Quadrupole moment (field-independent basis, Debye-Ang):
   XX=           -149.7204   YY=           -140.3151   ZZ=           -126.4626
   XY=             -0.0165   XZ=             -8.9482   YZ=              5.8042

 Summary of Natural Population Analysis:

                                       Natural Population
                Natural  -----------------------------------------------
    Atom  No    Charge         Core      Valence    Rydberg      Total
 -----------------------------------------------------------------------
      C    1   -0.19049      0.99963     2.18216    0.00871     3.19049
      C    2   -0.19194      0.99963     2.18398    0.00834     3.19194
      C    3   -0.08414      0.99960     2.07395    0.01058     3.08414
      N    4   -0.28469      0.99970     2.77016    0.01483     3.78469
      C    5   -0.05403      0.99955     2.04217    0.01231     3.05403
      C    6   -0.18403      0.99961     2.17679    0.00763     3.18403
      C    7    0.25640      0.99970     1.72276    0.02113     2.74360
      O    8   -0.26248      0.99988     3.25586    0.00674     4.26248
      C    9   -0.07761      0.99958     2.06353    0.01450     3.07761
      C   10   -0.12285      0.99960     2.10953    0.01373     3.12285
      C   11   -0.23578      0.99957     2.22676    0.00945     3.23578
      C   12    0.34275      0.99966     1.63281    0.02477     2.65725
      O   13   -0.32524      0.99987     3.31991    0.00546     4.32524
      N   14   -0.32168      0.99967     2.81367    0.00834     3.82168
      C   15   -0.09123      0.99960     2.08048    0.01115     3.09123
      H   16    0.09759      0.00000     0.40135    0.00106     0.40241
      H   17    0.09554      0.00000     0.40324    0.00122     0.40446
      H   18    0.09798      0.00000     0.40123    0.00079     0.40202
      H   19    0.09479      0.00000     0.40374    0.00148     0.40521
      H   20    0.08615      0.00000     0.41138    0.00247     0.41385
      H   21    0.09573      0.00000     0.40309    0.00117     0.40427
      H   22    0.09047      0.00000     0.40697    0.00256     0.40953
      H   23    0.09496      0.00000     0.40345    0.00159     0.40504
      H   24    0.10002      0.00000     0.39914    0.00083     0.39998
      H   25    0.04328      0.00000     0.45434    0.00237     0.45672
      H   26    0.09778      0.00000     0.40058    0.00164     0.40222
      H   27    0.10003      0.00000     0.39856    0.00141     0.39997
      H   28    0.10909      0.00000     0.38534    0.00557     0.39091
      H   29    0.11644      0.00000     0.38158    0.00198     0.38356
      H   30    0.11111      0.00000     0.38773    0.00116     0.38889
      H   31    0.19522      0.00000     0.30298    0.00181     0.30478
      H   32    0.09161      0.00000     0.40692    0.00147     0.40839
      H   33    0.10924      0.00000     0.38878    0.00197     0.39076
 =======================================================================
   * Total *   -0.00000     14.99485    41.79493    0.21022    57.00000

 Normal termination of Gaussian 16 at Thu Dec 10 18:25:37 2020.
