 Gaussian 16, Revision A.03,

 -----------------------------------------------------------
 # opt freq B3LYP/6-31G(d) empiricaldispersion=gd3bj scf=xqc
 -----------------------------------------------------------

 ------------------------------
 CID_63811755_JID_3003_neutraal
 ------------------------------
 Symbolic Z-matrix:
 Charge =  0 Multiplicity = 1

 SCF Done:  E(RB3LYP) =  -575.469313946     A.U. after   14 cycles
 SCF Done:  E(RB3LYP) =  -575.471011639     A.U. after   14 cycles
 SCF Done:  E(RB3LYP) =  -575.472342587     A.U. after   14 cycles
 SCF Done:  E(RB3LYP) =  -575.472863628     A.U. after   14 cycles
 SCF Done:  E(RB3LYP) =  -575.474009245     A.U. after   13 cycles
 SCF Done:  E(RB3LYP) =  -575.474128607     A.U. after   12 cycles
 SCF Done:  E(RB3LYP) =  -575.474133656     A.U. after   12 cycles
 SCF Done:  E(RB3LYP) =  -575.474216657     A.U. after   11 cycles
 SCF Done:  E(RB3LYP) =  -575.474220580     A.U. after    9 cycles
 SCF Done:  E(RB3LYP) =  -575.474221122     A.U. after    8 cycles
 SCF Done:  E(RB3LYP) =  -575.474221328     A.U. after    7 cycles
 SCF Done:  E(RB3LYP) =  -575.474221434     A.U. after    7 cycles
 Optimization completed.
    -- Stationary point found.
 Normal termination of Gaussian 16 at Wed Dec  9 22:22:15 2020.

 --------------------------------------------------------------------
 #N Geom=AllCheck Guess=TCheck SCRF=Check GenChk RB3LYP/6-31G(d) Freq
 --------------------------------------------------------------------

 Structure from the checkpoint file:  "JID_3003.chk"
 ------------------------------
 CID_63811755_JID_3003_neutraal
 ------------------------------
 Charge =  0 Multiplicity = 1

 SCF Done:  E(RB3LYP) =  -575.474221434     A.U. after    1 cycles

  Exact polarizability: 107.435   5.190 122.510   0.807  -4.154 106.968
 Approx polarizability: 134.894   9.676 188.424   3.203 -14.169 179.352

                      1                      2                      3
                      A                      A                      A
 Frequencies --     37.2977                57.7156                60.0002
 Red. masses --      3.2043                 5.7860                 3.6870
 Frc consts  --      0.0026                 0.0114                 0.0078
 IR Inten    --      0.3321                 1.0771                 2.2750

                      4                      5                      6
                      A                      A                      A
 Frequencies --     78.3217                89.9574               109.8588
 Red. masses --      2.9012                 3.4972                 4.5670
 Frc consts  --      0.0105                 0.0167                 0.0325
 IR Inten    --      1.5403                 0.8459                 0.1694

                      7                      8                      9
                      A                      A                      A
 Frequencies --    151.5003               198.7647               258.1347
 Red. masses --      2.4248                 1.9860                 3.0344
 Frc consts  --      0.0328                 0.0462                 0.1191
 IR Inten    --      0.2841                 0.2239                 3.3148

                     10                     11                     12
                      A                      A                      A
 Frequencies --    275.6619               327.0334               353.3941
 Red. masses --      1.6509                 4.0677                 2.1739
 Frc consts  --      0.0739                 0.2563                 0.1600
 IR Inten    --      0.4298                 0.5903                 3.4664

                     13                     14                     15
                      A                      A                      A
 Frequencies --    395.5200               465.7777               489.9027
 Red. masses --      2.0080                 2.4494                 2.3451
 Frc consts  --      0.1851                 0.3131                 0.3316
 IR Inten    --      0.3925                 4.5548                 8.1403

                     16                     17                     18
                      A                      A                      A
 Frequencies --    544.5084               610.9709               623.3297
 Red. masses --      2.7624                 3.1466                 3.9040
 Frc consts  --      0.4825                 0.6920                 0.8937
 IR Inten    --     12.7358                 8.8371                 5.6030

                     19                     20                     21
                      A                      A                      A
 Frequencies --    627.6202               667.8448               682.2628
 Red. masses --      4.0725                 1.6919                 1.2875
 Frc consts  --      0.9452                 0.4446                 0.3531
 IR Inten    --      9.8030                92.5910                 7.0658

                     22                     23                     24
                      A                      A                      A
 Frequencies --    735.9194               739.9760               789.2562
 Red. masses --      1.3371                 1.1552                 3.3537
 Frc consts  --      0.4266                 0.3727                 1.2308
 IR Inten    --      2.5659               108.4031                 3.5038

                     25                     26                     27
                      A                      A                      A
 Frequencies --    809.0692               817.8229               845.5605
 Red. masses --      1.5524                 1.5810                 2.9920
 Frc consts  --      0.5987                 0.6230                 1.2604
 IR Inten    --      8.4309                 2.2915                 9.1040

                     28                     29                     30
                      A                      A                      A
 Frequencies --    865.2164               893.5858               897.8020
 Red. masses --      1.2376                 1.9034                 4.2633
 Frc consts  --      0.5458                 0.8955                 2.0247
 IR Inten    --      0.0105                 0.5679                 0.1536

                     31                     32                     33
                      A                      A                      A
 Frequencies --    960.5237               970.8922               997.7251
 Red. masses --      2.1052                 1.6139                 1.9971
 Frc consts  --      1.1444                 0.8964                 1.1713
 IR Inten    --      7.6062                 1.3158                 9.4111

                     34                     35                     36
                      A                      A                      A
 Frequencies --   1002.7104              1064.8304              1092.3077
 Red. masses --      1.8383                 1.5103                 2.0677
 Frc consts  --      1.0889                 1.0089                 1.4535
 IR Inten    --      5.4251                 4.9044                 3.8086

                     37                     38                     39
                      A                      A                      A
 Frequencies --   1099.8297              1103.8170              1120.3829
 Red. masses --      1.7428                 1.6758                 1.3216
 Frc consts  --      1.2421                 1.2030                 0.9774
 IR Inten    --      9.8990                 4.0001                25.0220

                     40                     41                     42
                      A                      A                      A
 Frequencies --   1151.0717              1168.8178              1206.1559
 Red. masses --      1.9084                 2.5333                 1.3303
 Frc consts  --      1.4898                 2.0391                 1.1403
 IR Inten    --      5.0619                 2.9127                20.8959

                     43                     44                     45
                      A                      A                      A
 Frequencies --   1265.6730              1285.7030              1309.4621
 Red. masses --      1.2798                 1.3156                 1.2947
 Frc consts  --      1.2079                 1.2813                 1.3080
 IR Inten    --      2.4910                 4.0870                 8.6106

                     46                     47                     48
                      A                      A                      A
 Frequencies --   1328.4957              1338.5090              1359.0166
 Red. masses --      4.2585                 1.1524                 1.3457
 Frc consts  --      4.4282                 1.2165                 1.4643
 IR Inten    --     40.9827                 5.0967                20.7769

                     49                     50                     51
                      A                      A                      A
 Frequencies --   1375.0810              1401.4839              1410.2496
 Red. masses --      1.7593                 1.6847                 1.5002
 Frc consts  --      1.9600                 1.9496                 1.7578
 IR Inten    --     77.8839                19.4132                 5.1860

                     52                     53                     54
                      A                      A                      A
 Frequencies --   1429.3536              1439.2171              1445.8581
 Red. masses --      1.5437                 3.8338                 1.2895
 Frc consts  --      1.8582                 4.6787                 1.5882
 IR Inten    --      6.7844                 6.4322                 2.0949

                     55                     56                     57
                      A                      A                      A
 Frequencies --   1448.5641              1506.3971              1507.1420
 Red. masses --      2.4978                 1.1392                 1.4766
 Frc consts  --      3.0880                 1.5231                 1.9762
 IR Inten    --     20.4654                 5.8119                35.6048

                     58                     59                     60
                      A                      A                      A
 Frequencies --   1511.9038              1523.0094              1528.7300
 Red. masses --      1.3437                 1.0734                 1.1470
 Frc consts  --      1.8097                 1.4670                 1.5794
 IR Inten    --     32.5804                 1.0382                11.8777

                     61                     62                     63
                      A                      A                      A
 Frequencies --   1536.1057              1539.8025              1550.2455
 Red. masses --      1.0824                 1.0861                 2.1632
 Frc consts  --      1.5048                 1.5173                 3.0630
 IR Inten    --      6.8658                 2.3981                37.8506

                     64                     65                     66
                      A                      A                      A
 Frequencies --   1576.3892              1789.2557              3037.2390
 Red. masses --      3.9962                 7.7929                 1.0712
 Frc consts  --      5.8509                14.6993                 5.8222
 IR Inten    --      2.0850               371.3462                13.0486

                     67                     68                     69
                      A                      A                      A
 Frequencies --   3040.9937              3045.2667              3067.1838
 Red. masses --      1.0411                 1.0588                 1.0727
 Frc consts  --      5.6728                 5.7854                 5.9455
 IR Inten    --      9.6466                36.7517                40.1810

                     70                     71                     72
                      A                      A                      A
 Frequencies --   3074.5124              3086.8537              3103.9567
 Red. masses --      1.0957                 1.0583                 1.1016
 Frc consts  --      6.1022                 5.9414                 6.2532
 IR Inten    --     16.8188                19.8144                68.9163

                     73                     74                     75
                      A                      A                      A
 Frequencies --   3116.0999              3127.2587              3135.3607
 Red. masses --      1.1011                 1.0922                 1.1013
 Frc consts  --      6.2994                 6.2936                 6.3789
 IR Inten    --     37.4216                12.9810                18.6640

                     76                     77                     78
                      A                      A                      A
 Frequencies --   3138.5398              3251.2532              3261.7334
 Red. masses --      1.1024                 1.0877                 1.0926
 Frc consts  --      6.3979                 6.7744                 6.8486
 IR Inten    --      8.7336                 3.4417                 5.5597

                     79                     80                     81
                      A                      A                      A
 Frequencies --   3274.7259              3283.8760              3587.2655
 Red. masses --      1.1010                 1.1051                 1.0753
 Frc consts  --      6.9562                 7.0211                 8.1525
 IR Inten    --      2.7721                 1.7272                16.1120

 - Thermochemistry -
 -------------------
 Temperature   298.150 Kelvin.  Pressure   1.00000 Atm.
 Atom     1 has atomic number  6 and mass  12.00000

 Molecular mass:   180.12626 amu.
 Principal axes and moments of inertia in atomic units:
                           1         2         3
     Eigenvalues --  1826.536952896.640903885.27411
           X            0.99943  -0.03351  -0.00492
           Y            0.03360   0.99927   0.01826
           Z            0.00431  -0.01841   0.99982
 This molecule is an asymmetric top.
 Rotational symmetry number  1.
 Warning -- assumption of classical behavior for rotation
           may cause significant error
 Rotational temperatures (Kelvin)      0.04742     0.02990     0.02229
 Rotational constants (GHZ):           0.98807     0.62305     0.46451
 Zero-point vibrational energy     666777.1 (Joules/Mol)
                                  159.36354 (Kcal/Mol)
 Warning -- explicit consideration of  17 degrees of freedom as
           vibrations may cause significant error
 Vibrational temperatures:     53.66    83.04    86.33   112.69   129.43
          (Kelvin)            158.06   217.98   285.98   371.40   396.62
                              470.53   508.46   569.06   670.15   704.86
                              783.43   879.05   896.83   903.01   960.88
                              981.62  1058.82  1064.66  1135.56  1164.07
                             1176.66  1216.57  1244.85  1285.67  1291.74
                             1381.98  1396.90  1435.50  1442.68  1532.05
                             1571.59  1582.41  1588.15  1611.98  1656.14
                             1681.67  1735.39  1821.02  1849.84  1884.02
                             1911.41  1925.82  1955.32  1978.43  2016.42
                             2029.03  2056.52  2070.71  2080.27  2084.16
                             2167.37  2168.44  2175.29  2191.27  2199.50
                             2210.11  2215.43  2230.46  2268.07  2574.34
                             4369.91  4375.31  4381.46  4412.99  4423.54
                             4441.29  4465.90  4483.37  4499.43  4511.08
                             4515.66  4677.83  4692.91  4711.60  4724.77
                             5161.27

 Zero-point correction=                           0.253962 (Hartree/Particle)
 Thermal correction to Energy=                    0.267251
 Thermal correction to Enthalpy=                  0.268195
 Thermal correction to Gibbs Free Energy=         0.212865
 Sum of electronic and zero-point Energies=           -575.220259
 Sum of electronic and thermal Energies=              -575.206970
 Sum of electronic and thermal Enthalpies=            -575.206026
 Sum of electronic and thermal Free Energies=         -575.261356

                     E (Thermal)             CV                S
                      KCal/Mol        Cal/Mol-Kelvin    Cal/Mol-Kelvin
 Total                  167.703             49.532            116.451
 Electronic               0.000              0.000              0.000
 Translational            0.889              2.981             41.472
 Rotational               0.889              2.981             31.397
 Vibrational            165.925             43.571             43.582
 Vibration     1          0.594              1.982              5.398
 Vibration     2          0.596              1.974              4.534
 Vibration     3          0.597              1.973              4.457
 Vibration     4          0.600              1.964              3.932
 Vibration     5          0.602              1.956              3.661
 Vibration     6          0.606              1.941              3.271
 Vibration     7          0.619              1.901              2.653
 Vibration     8          0.637              1.842              2.145
 Vibration     9          0.667              1.749              1.674
 Vibration    10          0.677              1.718              1.560
 Vibration    11          0.711              1.621              1.275
 Vibration    12          0.730              1.568              1.151
 Vibration    13          0.762              1.480              0.979
 Vibration    14          0.823              1.326              0.749
 Vibration    15          0.846              1.272              0.684
 Vibration    16          0.900              1.152              0.556
 Vibration    17          0.970              1.009              0.431

                           ! Non-Optimized Parameters !
 Normal termination of Gaussian 16 at Wed Dec  9 22:29:38 2020.

 ----------------------------------------------------------------------
 # B3LYP/6-311++G(d,p) empiricaldispersion=gd3bj scf=xqc pop=npa geom=c
 heck
 ----------------------------------------------------------------------

 --------------------------------------
 CID_63811755_JID_3003_Energie_neutraal
 --------------------------------------
 Structure from the checkpoint file:  "JID_3003.chk"
 Charge =  0 Multiplicity = 1

 SCF Done:  E(RB3LYP) =  -575.641356755     A.U. after   14 cycles
 Normal termination of Gaussian 16 at Wed Dec  9 22:32:23 2020.

 ----------------------------------------------------------------------
 # B3LYP/6-311++G(d,p) empiricaldispersion=gd3bj scf=xqc pop=npa geom=c
 heck
 ----------------------------------------------------------------------

 ------------------------------------
 CID_63811755_JID_3003_Energie_kation
 ------------------------------------
 Structure from the checkpoint file:  "JID_3003.chk"
 Charge =  1 Multiplicity = 2

 SCF Done:  E(UB3LYP) =  -575.340474830     A.U. after   27 cycles
 Normal termination of Gaussian 16 at Wed Dec  9 22:39:18 2020.
 Gaussian 16:  ES64L-G16RevA.03 25-Dec-2016

 ----------------------------------------------------------------------
 # B3LYP/6-311++G(d,p) empiricaldispersion=gd3bj scf=xqc pop=npa geom=c
 heck
 ----------------------------------------------------------------------

 -----------------------------------
 CID_63811755_JID_3003_Energie_anion
 -----------------------------------
 Structure from the checkpoint file:  "JID_3003.chk"
 Charge = -1 Multiplicity = 2

                         Standard orientation:
 ---------------------------------------------------------------------
 Center     Atomic      Atomic             Coordinates (Angstroms)
 Number     Number       Type             X           Y           Z
 ---------------------------------------------------------------------
      1          6           0        3.843560   -0.926276   -0.227768
      2          6           0        2.409143   -1.182002   -0.701666
      3          6           0        1.357428   -1.152380    0.414920
      4          6           0        1.280817    0.179828    1.176461
      5          7           0        1.100587    1.348390    0.320498
      6          6           0       -0.052253    1.956413   -0.080619
      7          8           0       -0.062335    2.827002   -0.942988
      8          6           0       -1.361152    1.523175    0.595130
      9          7           0       -1.759346    0.185463    0.191760
     10          6           0       -2.104337   -0.848549    1.034060
     11          6           0       -2.394213   -1.953188    0.261097
     12          6           0       -2.218272   -1.573593   -1.101077
     13          6           0       -1.827702   -0.250739   -1.113457
     14          1           0        3.969079    0.081890    0.186382
     15          1           0        4.556640   -1.027989   -1.052888
     16          1           0        4.133392   -1.638309    0.554753
     17          1           0        2.135935   -0.449659   -1.472991
     18          1           0        2.360462   -2.161892   -1.192181
     19          1           0        0.375306   -1.381020   -0.007990
     20          1           0        1.578883   -1.938555    1.150503
     21          1           0        0.461001    0.142821    1.896947
     22          1           0        2.196627    0.342214    1.755986
     23          1           0        1.901158    1.645985   -0.224750
     24          1           0       -1.273137    1.537356    1.685003
     25          1           0       -2.113064    2.258213    0.297043
     26          1           0       -2.118347   -0.702391    2.104729
     27          1           0       -2.700225   -2.921903    0.631605
     28          1           0       -2.362438   -2.197978   -1.972156
     29          1           0       -1.589388    0.422097   -1.924380
 ---------------------------------------------------------------------

 SCF Done:  E(UB3LYP) =  -575.629091979     A.U. after   32 cycles

 The electronic state is 2-A.
 Alpha  occ. eigenvalues --  -18.99858 -14.27542 -14.24319 -10.18424 -10.12977
 Alpha  occ. eigenvalues --  -10.10739 -10.09984 -10.09937 -10.06963 -10.06780
 Alpha  occ. eigenvalues --  -10.06728 -10.06343 -10.05921  -0.95020  -0.89880
 Alpha  occ. eigenvalues --   -0.83035  -0.72148  -0.69459  -0.63616  -0.62896
 Alpha  occ. eigenvalues --   -0.61772  -0.55774  -0.50819  -0.48887  -0.47767
 Alpha  occ. eigenvalues --   -0.46114  -0.44706  -0.40002  -0.39197  -0.36559
 Alpha  occ. eigenvalues --   -0.36048  -0.35486  -0.34580  -0.33462  -0.31911
 Alpha  occ. eigenvalues --   -0.31344  -0.30200  -0.29381  -0.29193  -0.28843
 Alpha  occ. eigenvalues --   -0.28294  -0.28096  -0.23838  -0.23468  -0.23006
 Alpha  occ. eigenvalues --   -0.17540  -0.16145  -0.15047  -0.12979   0.04374
 Alpha virt. eigenvalues --    0.06462   0.07162   0.07932   0.08729   0.08950
 Alpha virt. eigenvalues --    0.09181   0.09460   0.10218   0.10554   0.11025
 Alpha virt. eigenvalues --    0.11635   0.12210   0.12421   0.13288   0.13821

  Beta  occ. eigenvalues --  -18.99854 -14.27544 -14.24305 -10.18421 -10.12945
  Beta  occ. eigenvalues --  -10.10703 -10.09979 -10.09911 -10.06961 -10.06769
  Beta  occ. eigenvalues --  -10.06723 -10.06331 -10.05874  -0.95011  -0.89873
  Beta  occ. eigenvalues --   -0.83008  -0.72127  -0.69422  -0.63589  -0.62842
  Beta  occ. eigenvalues --   -0.61727  -0.55702  -0.50781  -0.48871  -0.47711
  Beta  occ. eigenvalues --   -0.46064  -0.44660  -0.39935  -0.39155  -0.36526
  Beta  occ. eigenvalues --   -0.36023  -0.35449  -0.34553  -0.33429  -0.31886
  Beta  occ. eigenvalues --   -0.31298  -0.30172  -0.29346  -0.29174  -0.28798
  Beta  occ. eigenvalues --   -0.28263  -0.28059  -0.23798  -0.23429  -0.22976
  Beta  occ. eigenvalues --   -0.17530  -0.16115  -0.15043  -0.12966
  Beta virt. eigenvalues --    0.06728   0.07429   0.07857   0.08327   0.09304
  Beta virt. eigenvalues --    0.09325   0.09626   0.09806   0.10595   0.10889
  Beta virt. eigenvalues --    0.11283   0.12130   0.12695   0.12922   0.13605

 Mulliken charges and spin densities:
               1          2
     1  C    1.492101  -2.130517
     2  C   -1.193781   0.910022
     3  C   -0.402524   0.335146
     4  C    1.572916  -1.850558
     5  N   -0.301890   0.141867
     6  C   -0.360231   0.299812
     7  O   -0.322810   0.018600
     8  C    0.693874  -0.983601
     9  N    0.024678   0.141123
    10  C    0.249356  -0.448020
    11  C    0.388938  -0.656010
    12  C   -0.312560   0.056152
    13  C    0.103209  -0.273939
    14  H   -0.243331   0.372904
    15  H   -0.343747   0.482303
    16  H   -0.227693   0.375198
    17  H    0.132473   0.026709
    18  H   -0.237541   0.379973
    19  H    0.175474   0.007193
    20  H   -0.255742   0.412206
    21  H    0.005677   0.149905
    22  H   -0.613804   0.841683
    23  H    0.078927   0.234996
    24  H   -0.590817   0.783975
    25  H    0.117776   0.099413
    26  H   -0.777542   0.947253
    27  H   -0.094906   0.250235
    28  H    0.037976   0.104014
    29  H    0.205544  -0.028040
 Sum of Mulliken charges =  -1.00000   1.00000

 Dipole moment (field-independent basis, Debye):
    X=             -3.9320    Y=             -0.4238    Z=             -4.6048  Tot=              6.0700
 Quadrupole moment (field-independent basis, Debye-Ang):
   XX=           -145.2074   YY=           -124.5414   ZZ=           -125.6640
   XY=              5.0676   XZ=              3.1797   YZ=              2.4335

 Summary of Natural Population Analysis:

                                       Natural Population
                Natural  -----------------------------------------------
    Atom  No    Charge         Core      Valence    Rydberg      Total
 -----------------------------------------------------------------------
      C    1   -0.28784      0.99967     2.28318    0.00500     3.28784
      C    2   -0.19244      0.99964     2.18430    0.00850     3.19244
      C    3   -0.19696      0.99961     2.18825    0.00911     3.19696
      C    4   -0.09126      0.99960     2.07919    0.01246     3.09126
      N    5   -0.31199      0.99967     2.80174    0.01059     3.81199
      C    6    0.33593      0.99967     1.64121    0.02319     2.66407
      O    7   -0.32443      0.99988     3.31894    0.00561     4.32443
      C    8   -0.11987      0.99957     2.10901    0.01129     3.11987
      N    9   -0.20719      0.99965     2.69612    0.01142     3.70719
      C   10   -0.01486      0.99955     2.00176    0.01355     3.01486
      C   11   -0.14891      0.99957     2.13966    0.00968     3.14891
      C   12   -0.14657      0.99957     2.13817    0.00882     3.14657
      C   13   -0.02263      0.99956     2.01267    0.01041     3.02263
      H   14    0.09438      0.00000     0.40413    0.00149     0.40562
      H   15    0.09943      0.00000     0.39945    0.00112     0.40057
      H   16    0.09878      0.00000     0.39970    0.00152     0.40122
      H   17    0.09217      0.00000     0.40631    0.00152     0.40783
      H   18    0.09753      0.00000     0.40140    0.00108     0.40247
      H   19    0.10541      0.00000     0.39085    0.00374     0.39459
      H   20    0.09778      0.00000     0.40075    0.00146     0.40222
      H   21    0.10300      0.00000     0.39417    0.00283     0.39700
      H   22    0.10051      0.00000     0.39740    0.00209     0.39949
      H   23    0.19532      0.00000     0.30242    0.00226     0.30468
      H   24    0.11433      0.00000     0.38336    0.00231     0.38567
      H   25    0.10845      0.00000     0.39050    0.00105     0.39155
      H   26    0.10685      0.00000     0.39053    0.00263     0.39315
      H   27    0.10543      0.00000     0.39386    0.00071     0.39457
      H   28    0.10342      0.00000     0.39591    0.00067     0.39658
      H   29    0.10623      0.00000     0.39280    0.00097     0.39377
 =======================================================================
   * Total *    0.00000     12.99519    35.83773    0.16708    49.00000

 Normal termination of Gaussian 16 at Wed Dec  9 22:47:44 2020.
