 Gaussian 16, Revision A.03,

 -----------------------------------------------------------
 # opt freq B3LYP/6-31G(d) empiricaldispersion=gd3bj scf=xqc
 -----------------------------------------------------------

 ------------------------------
 CID_81673027_JID_9387_neutraal
 ------------------------------
 Symbolic Z-matrix:
 Charge =  0 Multiplicity = 1

 SCF Done:  E(RB3LYP) =  -1201.10549076     A.U. after   14 cycles
 SCF Done:  E(RB3LYP) =  -1201.11255760     A.U. after   12 cycles
 SCF Done:  E(RB3LYP) =  -1201.11369095     A.U. after   12 cycles
 SCF Done:  E(RB3LYP) =  -1201.11410847     A.U. after   12 cycles
 SCF Done:  E(RB3LYP) =  -1201.11432173     A.U. after   11 cycles
 SCF Done:  E(RB3LYP) =  -1201.11442670     A.U. after   11 cycles
 SCF Done:  E(RB3LYP) =  -1201.11454127     A.U. after   11 cycles
 SCF Done:  E(RB3LYP) =  -1201.11469176     A.U. after   12 cycles
 SCF Done:  E(RB3LYP) =  -1201.11470240     A.U. after   12 cycles
 SCF Done:  E(RB3LYP) =  -1201.11488278     A.U. after   11 cycles
 SCF Done:  E(RB3LYP) =  -1201.11521838     A.U. after    8 cycles
 SCF Done:  E(RB3LYP) =  -1201.11521862     A.U. after    7 cycles
 SCF Done:  E(RB3LYP) =  -1201.11521876     A.U. after    7 cycles
 SCF Done:  E(RB3LYP) =  -1201.11521883     A.U. after    6 cycles
 SCF Done:  E(RB3LYP) =  -1201.11521886     A.U. after    6 cycles
 Optimization completed.
    -- Stationary point found.
 Normal termination of Gaussian 16 at Sat Dec 12 09:53:56 2020.

 --------------------------------------------------------------------
 #N Geom=AllCheck Guess=TCheck SCRF=Check GenChk RB3LYP/6-31G(d) Freq
 --------------------------------------------------------------------

 Structure from the checkpoint file:  "JID_9387.chk"
 ------------------------------
 CID_81673027_JID_9387_neutraal
 ------------------------------
 Charge =  0 Multiplicity = 1

 SCF Done:  E(RB3LYP) =  -1201.11521886     A.U. after    1 cycles

  Exact polarizability: 189.691   9.148 176.459  10.791 -10.588 143.481
 Approx polarizability: 263.510  10.547 254.069  21.885 -26.250 235.141

                      1                      2                      3
                      A                      A                      A
 Frequencies --     17.7401                36.0742                43.0597
 Red. masses --      3.8244                 6.8179                 2.8171
 Frc consts  --      0.0007                 0.0052                 0.0031
 IR Inten    --      0.2115                 0.0778                 0.1384

                      4                      5                      6
                      A                      A                      A
 Frequencies --     57.5824                74.2927               102.0621
 Red. masses --      4.5500                 4.0474                 5.2136
 Frc consts  --      0.0089                 0.0132                 0.0320
 IR Inten    --      0.0197                 0.2615                 0.9447

                      7                      8                      9
                      A                      A                      A
 Frequencies --    107.5906               154.8248               166.9203
 Red. masses --      2.6098                 2.9174                 2.8599
 Frc consts  --      0.0178                 0.0412                 0.0469
 IR Inten    --      1.1544                 0.8286                 0.5890

                     10                     11                     12
                      A                      A                      A
 Frequencies --    203.4637               227.5598               248.8235
 Red. masses --      4.8640                 2.8596                 2.5811
 Frc consts  --      0.1186                 0.0872                 0.0942
 IR Inten    --      5.5758                 1.3946                 1.0809

                     13                     14                     15
                      A                      A                      A
 Frequencies --    270.0509               275.2312               299.2489
 Red. masses --      1.2820                 2.7355                 2.5216
 Frc consts  --      0.0551                 0.1221                 0.1330
 IR Inten    --      0.5898                 2.6226                 2.0885

                     16                     17                     18
                      A                      A                      A
 Frequencies --    310.2460               322.3315               345.9798
 Red. masses --      2.9597                 3.1512                 3.2155
 Frc consts  --      0.1678                 0.1929                 0.2268
 IR Inten    --      1.6175                 8.2566                 3.1298

                     19                     20                     21
                      A                      A                      A
 Frequencies --    373.5899               419.5910               450.2692
 Red. masses --      3.2051                 2.3662                 3.7212
 Frc consts  --      0.2636                 0.2454                 0.4445
 IR Inten    --      3.3669                 3.2108                 2.6920

                     22                     23                     24
                      A                      A                      A
 Frequencies --    460.8520               497.1368               532.5023
 Red. masses --      2.7534                 4.6554                 3.3023
 Frc consts  --      0.3445                 0.6779                 0.5517
 IR Inten    --      0.9913                 0.6255                 7.6232

                     25                     26                     27
                      A                      A                      A
 Frequencies --    550.7606               558.4995               617.1008
 Red. masses --      2.9959                 3.6284                 3.1856
 Frc consts  --      0.5354                 0.6668                 0.7147
 IR Inten    --      2.4348                 3.9878                 0.0641

                     28                     29                     30
                      A                      A                      A
 Frequencies --    646.9357               682.2070               700.0018
 Red. masses --      4.3681                 3.8558                 3.3507
 Frc consts  --      1.0771                 1.0573                 0.9674
 IR Inten    --      5.0416                 2.0036                13.7237

                     31                     32                     33
                      A                      A                      A
 Frequencies --    711.5177               738.6258               764.9509
 Red. masses --      3.6964                 3.4531                 4.8490
 Frc consts  --      1.1025                 1.1100                 1.6717
 IR Inten    --      1.0139                10.5748                 4.8907

                     34                     35                     36
                      A                      A                      A
 Frequencies --    801.4001               808.9583               833.6741
 Red. masses --      1.9381                 1.9136                 1.3036
 Frc consts  --      0.7334                 0.7378                 0.5338
 IR Inten    --     31.8677                60.3284                 8.0625

                     37                     38                     39
                      A                      A                      A
 Frequencies --    836.1182               858.7491               866.4379
 Red. masses --      1.3731                 1.6103                 2.8647
 Frc consts  --      0.5656                 0.6997                 1.2671
 IR Inten    --      8.7277                 1.0126                 2.0801

                     40                     41                     42
                      A                      A                      A
 Frequencies --    884.7274               903.9255               919.3351
 Red. masses --      2.1019                 1.6664                 1.9997
 Frc consts  --      0.9693                 0.8022                 0.9958
 IR Inten    --      0.2731                20.8629                 8.0867

                     43                     44                     45
                      A                      A                      A
 Frequencies --    931.7399               954.5526              1001.5839
 Red. masses --      2.4975                 1.9333                 1.8218
 Frc consts  --      1.2774                 1.0379                 1.0768
 IR Inten    --      4.5124                 2.3303                 6.5021

                     46                     47                     48
                      A                      A                      A
 Frequencies --   1004.7039              1005.7604              1042.4238
 Red. masses --      1.8406                 1.7764                 6.1323
 Frc consts  --      1.0947                 1.0587                 3.9261
 IR Inten    --      5.3517                 2.8356                 1.2461

                     49                     50                     51
                      A                      A                      A
 Frequencies --   1045.1611              1058.2435              1059.8959
 Red. masses --      4.1426                 1.7210                 3.2399
 Frc consts  --      2.6662                 1.1355                 2.1444
 IR Inten    --     31.6455                 7.0355                 4.6626

                     52                     53                     54
                      A                      A                      A
 Frequencies --   1074.6212              1101.5899              1110.1664
 Red. masses --      1.4022                 2.0754                 1.8918
 Frc consts  --      0.9541                 1.4838                 1.3737
 IR Inten    --     11.3469                16.9905                67.7914

                     55                     56                     57
                      A                      A                      A
 Frequencies --   1119.5214              1135.7414              1152.1747
 Red. masses --      1.6871                 2.2859                 1.9634
 Frc consts  --      1.2458                 1.7373                 1.5356
 IR Inten    --     35.7571                 5.9458                 5.6708

                     58                     59                     60
                      A                      A                      A
 Frequencies --   1168.9495              1172.0884              1196.0295
 Red. masses --      2.4168                 2.3568                 1.7718
 Frc consts  --      1.9458                 1.9076                 1.4933
 IR Inten    --     32.4553                20.1709                 7.2753

                     61                     62                     63
                      A                      A                      A
 Frequencies --   1206.2234              1224.6312              1251.8541
 Red. masses --      1.6292                 1.4948                 1.4951
 Frc consts  --      1.3967                 1.3208                 1.3804
 IR Inten    --     18.5068                31.0392                11.1285

                     64                     65                     66
                      A                      A                      A
 Frequencies --   1255.5149              1271.1665              1288.4651
 Red. masses --      2.0661                 1.3516                 1.6431
 Frc consts  --      1.9189                 1.2868                 1.6072
 IR Inten    --      2.7175                 8.5165                11.9453

                     67                     68                     69
                      A                      A                      A
 Frequencies --   1289.4877              1293.4214              1312.2920
 Red. masses --      1.5350                 1.6649                 1.8831
 Frc consts  --      1.5038                 1.6411                 1.9107
 IR Inten    --     48.8287                25.2650                 6.2283

                     70                     71                     72
                      A                      A                      A
 Frequencies --   1316.3504              1332.5160              1335.9927
 Red. masses --      1.3278                 1.2092                 1.3300
 Frc consts  --      1.3556                 1.2650                 1.3986
 IR Inten    --     11.9191                10.6424                 7.3215

                     73                     74                     75
                      A                      A                      A
 Frequencies --   1356.3264              1368.6991              1387.7605
 Red. masses --      1.4647                 1.7469                 1.5118
 Frc consts  --      1.5875                 1.9281                 1.7155
 IR Inten    --      5.9890                 2.0602                43.8132

                     76                     77                     78
                      A                      A                      A
 Frequencies --   1394.5302              1399.1976              1412.0320
 Red. masses --      1.9048                 1.4586                 1.4695
 Frc consts  --      2.1825                 1.6825                 1.7262
 IR Inten    --      3.6175                 0.9101                 2.1074

                     79                     80                     81
                      A                      A                      A
 Frequencies --   1419.6268              1436.1815              1440.6055
 Red. masses --      1.5314                 1.4591                 1.3647
 Frc consts  --      1.8184                 1.7732                 1.6687
 IR Inten    --      3.3599                 8.4699                10.8952

                     82                     83                     84
                      A                      A                      A
 Frequencies --   1449.2055              1481.6120              1496.0744
 Red. masses --      2.7385                 2.7497                 1.0940
 Frc consts  --      3.3886                 3.5563                 1.4427
 IR Inten    --      0.2549                 7.4505                11.2187

                     85                     86                     87
                      A                      A                      A
 Frequencies --   1502.9095              1509.1586              1515.8272
 Red. masses --      1.3151                 1.0891                 1.0660
 Frc consts  --      1.7501                 1.4615                 1.4431
 IR Inten    --     13.9306                 3.1077                 2.7603

                     88                     89                     90
                      A                      A                      A
 Frequencies --   1516.3524              1524.1821              1532.0468
 Red. masses --      1.0891                 1.0935                 1.0435
 Frc consts  --      1.4754                 1.4967                 1.4430
 IR Inten    --     10.2921                11.7132                 2.7796

                     91                     92                     93
                      A                      A                      A
 Frequencies --   1534.9035              1538.0127              1547.0711
 Red. masses --      1.0946                 1.1012                 1.2041
 Frc consts  --      1.5193                 1.5348                 1.6980
 IR Inten    --      1.1619                 4.6236                15.9364

                     94                     95                     96
                      A                      A                      A
 Frequencies --   1551.5083              1563.2627              3000.0805
 Red. masses --      1.2271                 3.1563                 1.0653
 Frc consts  --      1.7403                 4.5446                 5.6491
 IR Inten    --     10.8579                52.2571                41.5814

                     97                     98                     99
                      A                      A                      A
 Frequencies --   3026.5982              3042.2856              3044.2405
 Red. masses --      1.0695                 1.0680                 1.0632
 Frc consts  --      5.7724                 5.8240                 5.8052
 IR Inten    --     30.9931                19.5985                30.1421

                    100                    101                    102
                      A                      A                      A
 Frequencies --   3047.3765              3054.1025              3065.5517
 Red. masses --      1.0601                 1.0808                 1.0652
 Frc consts  --      5.8004                 5.9399                 5.8978
 IR Inten    --     43.9423                 8.7386                 8.2838

                    103                    104                    105
                      A                      A                      A
 Frequencies --   3070.1598              3074.4725              3075.5966
 Red. masses --      1.0606                 1.0691                 1.1028
 Frc consts  --      5.8900                 5.9541                 6.1462
 IR Inten    --     19.6959                46.4708                22.1429

                    106                    107                    108
                      A                      A                      A
 Frequencies --   3084.6674              3093.7923              3107.2978
 Red. masses --      1.0633                 1.0684                 1.1017
 Frc consts  --      5.9609                 6.0254                 6.2671
 IR Inten    --     26.2568                17.6590                25.6725

                    109                    110                    111
                      A                      A                      A
 Frequencies --   3109.9611              3115.6897              3117.1699
 Red. masses --      1.1006                 1.1027                 1.0975
 Frc consts  --      6.2716                 6.3068                 6.2832
 IR Inten    --     57.2795                21.6279                44.3760

                    112                    113                    114
                      A                      A                      A
 Frequencies --   3128.3651              3140.9774              3154.1618
 Red. masses --      1.1030                 1.1069                 1.0947
 Frc consts  --      6.3601                 6.4342                 6.4165
 IR Inten    --     30.7380                16.7970                 3.0307

                    115                    116                    117
                      A                      A                      A
 Frequencies --   3195.7429              3285.4982              3470.9886
 Red. masses --      1.0958                 1.0970                 1.0737
 Frc consts  --      6.5937                 6.9770                 7.6217
 IR Inten    --      1.7942                 2.5366                11.0797

 - Thermochemistry -
 -------------------
 Temperature   298.150 Kelvin.  Pressure   1.00000 Atm.
 Atom     1 has atomic number  6 and mass  12.00000

 Molecular mass:   282.15143 amu.
 Principal axes and moments of inertia in atomic units:
                           1         2         3
     Eigenvalues --  3926.130066045.107648384.78981
           X            0.99943   0.03305  -0.00739
           Y           -0.03318   0.99930  -0.01713
           Z            0.00682   0.01736   0.99983
 This molecule is an asymmetric top.
 Rotational symmetry number  1.
 Warning -- assumption of classical behavior for rotation
           may cause significant error
 Rotational temperatures (Kelvin)      0.02206     0.01433     0.01033
 Rotational constants (GHZ):           0.45967     0.29855     0.21524
 Zero-point vibrational energy     937726.8 (Joules/Mol)
                                  224.12208 (Kcal/Mol)
 Warning -- explicit consideration of  27 degrees of freedom as
           vibrations may cause significant error
 Vibrational temperatures:     25.52    51.90    61.95    82.85   106.89
          (Kelvin)            146.84   154.80   222.76   240.16   292.74
                              327.41   358.00   388.54   396.00   430.55
                              446.37   463.76   497.79   537.51   603.70
                              647.84   663.06   715.27   766.15   792.42
                              803.56   887.87   930.80   981.54  1007.15
                             1023.72  1062.72  1100.59  1153.04  1163.91
                             1199.47  1202.99  1235.55  1246.61  1272.93
                             1300.55  1322.72  1340.57  1373.39  1441.06
                             1445.54  1447.06  1499.82  1503.75  1522.58
                             1524.95  1546.14  1584.94  1597.28  1610.74
                             1634.08  1657.72  1681.86  1686.37  1720.82
                             1735.49  1761.97  1801.14  1806.41  1828.93
                             1853.81  1855.29  1860.94  1888.10  1893.93
                             1917.19  1922.20  1951.45  1969.25  1996.68
                             2006.42  2013.13  2031.60  2042.53  2066.34
                             2072.71  2085.08  2131.71  2152.52  2162.35
                             2171.34  2180.94  2181.69  2192.96  2204.27
                             2208.38  2212.86  2225.89  2232.27  2249.19
                             4316.45  4354.60  4377.17  4379.98  4384.50
                             4394.17  4410.65  4417.28  4423.48  4425.10
                             4438.15  4451.28  4470.71  4474.54  4482.78
                             4484.91  4501.02  4519.17  4538.14  4597.96
                             4727.10  4993.98

 Zero-point correction=                           0.357161 (Hartree/Particle)
 Thermal correction to Energy=                    0.375109
 Thermal correction to Enthalpy=                  0.376053
 Thermal correction to Gibbs Free Energy=         0.309535
 Sum of electronic and zero-point Energies=          -1200.758058
 Sum of electronic and thermal Energies=             -1200.740110
 Sum of electronic and thermal Enthalpies=           -1200.739166
 Sum of electronic and thermal Free Energies=        -1200.805684

                     E (Thermal)             CV                S
                      KCal/Mol        Cal/Mol-Kelvin    Cal/Mol-Kelvin
 Total                  235.385             69.633            140.000
 Electronic               0.000              0.000              0.000
 Translational            0.889              2.981             42.810
 Rotational               0.889              2.981             33.653
 Vibrational            233.607             63.672             63.537
 Vibration     1          0.593              1.986              6.872
 Vibration     2          0.594              1.982              5.464
 Vibration     3          0.595              1.980              5.113
 Vibration     4          0.596              1.974              4.538
 Vibration     5          0.599              1.966              4.036
 Vibration     6          0.604              1.948              3.415
 Vibration     7          0.606              1.943              3.312
 Vibration     8          0.620              1.897              2.612
 Vibration     9          0.624              1.883              2.470
 Vibration    10          0.639              1.835              2.102
 Vibration    11          0.651              1.799              1.898
 Vibration    12          0.662              1.765              1.739
 Vibration    13          0.674              1.728              1.596
 Vibration    14          0.677              1.719              1.563
 Vibration    15          0.692              1.675              1.421
 Vibration    16          0.699              1.654              1.361
 Vibration    17          0.707              1.631              1.298
 Vibration    18          0.724              1.583              1.184
 Vibration    19          0.745              1.526              1.065
 Vibration    20          0.782              1.428              0.893
 Vibration    21          0.809              1.360              0.795
 Vibration    22          0.819              1.337              0.764
 Vibration    23          0.853              1.256              0.665
 Vibration    24          0.887              1.178              0.582
 Vibration    25          0.906              1.138              0.543
 Vibration    26          0.914              1.121              0.527
 Vibration    27          0.977              0.996              0.421

 Optimization completed.
    -- Stationary point found.
 Normal termination of Gaussian 16 at Sat Dec 12 10:18:51 2020.

 ----------------------------------------------------------------------
 # B3LYP/6-311++G(d,p) empiricaldispersion=gd3bj scf=xqc pop=npa geom=c
 heck
 ----------------------------------------------------------------------

 --------------------------------------
 CID_81673027_JID_9387_Energie_neutraal
 --------------------------------------
 Structure from the checkpoint file:  "JID_9387.chk"
 Charge =  0 Multiplicity = 1

 SCF Done:  E(RB3LYP) =  -1201.36051665     A.U. after   15 cycles
 Normal termination of Gaussian 16 at Sat Dec 12 10:30:38 2020.

 ----------------------------------------------------------------------
 # B3LYP/6-311++G(d,p) empiricaldispersion=gd3bj scf=xqc pop=npa geom=c
 heck
 ----------------------------------------------------------------------

 ------------------------------------
 CID_81673027_JID_9387_Energie_kation
 ------------------------------------
 Structure from the checkpoint file:  "JID_9387.chk"
 Charge =  1 Multiplicity = 2

 SCF Done:  E(UB3LYP) =  -1201.07815437     A.U. after   25 cycles
 Normal termination of Gaussian 16 at Sat Dec 12 10:57:42 2020.
 Gaussian 16:  ES64L-G16RevA.03 25-Dec-2016

 ----------------------------------------------------------------------
 # B3LYP/6-311++G(d,p) empiricaldispersion=gd3bj scf=xqc pop=npa geom=c
 heck
 ----------------------------------------------------------------------

 -----------------------------------
 CID_81673027_JID_9387_Energie_anion
 -----------------------------------
 Structure from the checkpoint file:  "JID_9387.chk"
 Charge = -1 Multiplicity = 2

                         Standard orientation:
 ---------------------------------------------------------------------
 Center     Atomic      Atomic             Coordinates (Angstroms)
 Number     Number       Type             X           Y           Z
 ---------------------------------------------------------------------
      1          6           0       -4.082752   -1.773473    1.256191
      2          6           0       -3.819718   -0.316189    0.890421
      3          7           0       -3.423884   -0.218266   -0.516796
      4          6           0       -3.083984    1.124335   -0.960216
      5          6           0       -1.742642    1.644074   -0.501843
      6          7           0       -1.007883    1.009063    0.402525
      7          7           0        0.141023    1.738474    0.444624
      8          6           0        0.032799    2.778886   -0.415653
      9          7           0       -1.136788    2.751081   -1.034822
     10          6           0        1.234481    1.302841    1.325967
     11          6           0        2.571119    1.940138    0.929837
     12          6           0        3.131819    1.309482   -0.345120
     13          8           0        3.272653   -0.098491   -0.205042
     14          6           0        2.043931   -0.790862    0.041274
     15          6           0        1.364671   -0.229992    1.304830
     16          6           0        2.413293   -2.268449    0.239255
     17          6           0        1.124855   -3.088577    0.181221
     18         16           0        0.052748   -2.267026   -1.091078
     19          6           0        1.145780   -0.793550   -1.219830
     20          1           0       -4.839360   -2.206391    0.593636
     21          1           0       -4.428265   -1.861611    2.292154
     22          1           0       -3.165712   -2.367754    1.156234
     23          1           0       -4.740165    0.270353    1.016508
     24          1           0       -3.069940    0.106426    1.578073
     25          1           0       -2.621298   -0.829643   -0.670861
     26          1           0       -3.086173    1.159917   -2.057328
     27          1           0       -3.875237    1.813081   -0.636705
     28          1           0        0.811154    3.510944   -0.571402
     29          1           0        0.965721    1.612437    2.342585
     30          1           0        2.488603    3.027905    0.826896
     31          1           0        3.273675    1.751522    1.748975
     32          1           0        2.498283    1.550007   -1.211187
     33          1           0        4.136285    1.688565   -0.551899
     34          1           0        1.986121   -0.505990    2.164724
     35          1           0        0.377917   -0.675397    1.439298
     36          1           0        3.085446   -2.552076   -0.577464
     37          1           0        2.948452   -2.419533    1.182830
     38          1           0        0.601576   -3.090026    1.141466
     39          1           0        1.307248   -4.124137   -0.113284
     40          1           0        0.517451    0.087922   -1.325942
     41          1           0        1.793844   -0.880614   -2.096422
 ---------------------------------------------------------------------

 SCF Done:  E(UB3LYP) =  -1201.35392723     A.U. after   33 cycles
 SCF Done:  E(UB3LYP) =  -1201.35392723     a.u. after    1 cycles

 The electronic state is 2-A.
 Alpha  occ. eigenvalues --  -88.75078 -19.03789 -14.30202 -14.23803 -14.21121
 Alpha  occ. eigenvalues --  -14.20595 -10.15012 -10.14320 -10.13167 -10.12873
 Alpha  occ. eigenvalues --  -10.12808 -10.11500 -10.11359 -10.10718 -10.09964
 Alpha  occ. eigenvalues --  -10.08920 -10.08224 -10.07906 -10.07477  -7.83690
 Alpha  occ. eigenvalues --   -5.80088  -5.79740  -5.79041  -0.98476  -0.95395
 Alpha  occ. eigenvalues --   -0.82395  -0.81082  -0.76131  -0.75359  -0.69981
 Alpha  occ. eigenvalues --   -0.67222  -0.66254  -0.64641  -0.60506  -0.59670
 Alpha  occ. eigenvalues --   -0.56468  -0.54717  -0.52066  -0.50393  -0.49769
 Alpha  occ. eigenvalues --   -0.49079  -0.46622  -0.42679  -0.42140  -0.40783
 Alpha  occ. eigenvalues --   -0.39397  -0.38584  -0.38049  -0.37317  -0.36047
 Alpha  occ. eigenvalues --   -0.35820  -0.34934  -0.34353  -0.33293  -0.32665
 Alpha  occ. eigenvalues --   -0.31536  -0.31171  -0.29603  -0.29479  -0.28760
 Alpha  occ. eigenvalues --   -0.27854  -0.27745  -0.27267  -0.26988  -0.26266
 Alpha  occ. eigenvalues --   -0.26212  -0.24967  -0.23357  -0.23126  -0.21558
 Alpha  occ. eigenvalues --   -0.19489  -0.18670  -0.17770  -0.16657  -0.13899
 Alpha  occ. eigenvalues --   -0.13620   0.03925
 Alpha virt. eigenvalues --    0.06102   0.06633   0.07034   0.07753   0.07988
 Alpha virt. eigenvalues --    0.08765   0.08854   0.08958   0.09552   0.09706
 Alpha virt. eigenvalues --    0.10717   0.11043   0.11230   0.11399   0.11566

  Beta  occ. eigenvalues --  -88.75077 -19.03786 -14.30181 -14.23774 -14.21117
  Beta  occ. eigenvalues --  -14.20594 -10.15014 -10.14272 -10.13149 -10.12869
  Beta  occ. eigenvalues --  -10.12795 -10.11489 -10.11358 -10.10711 -10.09958
  Beta  occ. eigenvalues --  -10.08906 -10.08181 -10.07882 -10.07473  -7.83690
  Beta  occ. eigenvalues --   -5.80087  -5.79739  -5.79040  -0.98434  -0.95386
  Beta  occ. eigenvalues --   -0.82377  -0.81053  -0.76116  -0.75300  -0.69932
  Beta  occ. eigenvalues --   -0.67192  -0.66239  -0.64620  -0.60468  -0.59649
  Beta  occ. eigenvalues --   -0.56420  -0.54664  -0.52050  -0.50358  -0.49723
  Beta  occ. eigenvalues --   -0.49041  -0.46579  -0.42616  -0.42075  -0.40745
  Beta  occ. eigenvalues --   -0.39376  -0.38559  -0.38005  -0.37282  -0.36015
  Beta  occ. eigenvalues --   -0.35795  -0.34900  -0.34314  -0.33271  -0.32633
  Beta  occ. eigenvalues --   -0.31506  -0.31140  -0.29573  -0.29442  -0.28719
  Beta  occ. eigenvalues --   -0.27831  -0.27719  -0.27233  -0.26975  -0.26257
  Beta  occ. eigenvalues --   -0.26188  -0.24927  -0.23337  -0.23088  -0.21525
  Beta  occ. eigenvalues --   -0.19385  -0.18643  -0.17685  -0.16581  -0.13878
  Beta  occ. eigenvalues --   -0.13613
  Beta virt. eigenvalues --    0.06083   0.06776   0.06918   0.07512   0.08089
  Beta virt. eigenvalues --    0.08515   0.08802   0.09039   0.09266   0.10066
  Beta virt. eigenvalues --    0.10232   0.10828   0.11065   0.11404   0.11518

 Mulliken charges and spin densities:
               1          2
     1  C   -0.352169  -0.147332
     2  C   -0.252297  -0.047879
     3  N   -0.017196   0.002180
     4  C   -0.340249  -0.296233
     5  C    0.016532  -0.283438
     6  N    0.055668   0.104381
     7  N    0.050758  -0.228534
     8  C    0.391277  -0.232062
     9  N   -0.082597   0.049092
    10  C   -0.905519   1.272966
    11  C    1.741768  -2.465930
    12  C    0.105977  -0.246731
    13  O   -0.039049   0.024689
    14  C   -1.388737   1.278313
    15  C    0.647007  -1.326204
    16  C    0.850209  -1.150988
    17  C   -0.126464  -0.421143
    18  S   -0.069557  -0.006996
    19  C   -0.338072   0.038618
    20  H    0.137510   0.009766
    21  H    0.050270   0.068969
    22  H    0.131152   0.018322
    23  H    0.085644   0.035349
    24  H    0.010463   0.130368
    25  H    0.207977  -0.014979
    26  H    0.172423   0.012622
    27  H    0.167421   0.012164
    28  H   -0.351695   0.552965
    29  H   -1.093145   1.391584
    30  H   -0.678658   0.847052
    31  H   -0.168061   0.368227
    32  H    0.249755  -0.131205
    33  H   -0.478219   0.698462
    34  H   -0.508567   0.730339
    35  H    0.647049  -0.461702
    36  H    0.075818   0.103718
    37  H   -0.097603   0.267489
    38  H   -0.030112   0.226329
    39  H    0.072978   0.140368
    40  H    0.234214   0.000530
    41  H    0.216093   0.076493
 Sum of Mulliken charges =  -1.00000   1.00000

 Dipole moment (field-independent basis, Debye):
    X=             -4.8186    Y=             -5.1601    Z=             -4.7078  Tot=              8.4858
 Quadrupole moment (field-independent basis, Debye-Ang):
   XX=           -189.9227   YY=           -182.5304   ZZ=           -170.1662
   XY=            -12.7599   XZ=            -15.7571   YZ=             -7.6311

 Summary of Natural Population Analysis:

                                       Natural Population
                Natural  -----------------------------------------------
    Atom  No    Charge         Core      Valence    Rydberg      Total
 -----------------------------------------------------------------------
      C    1   -0.28860      0.99967     2.28423    0.00470     3.28860
      C    2   -0.08841      0.99965     2.07950    0.00926     3.08841
      N    3   -0.34394      0.99975     2.83262    0.01156     3.84394
      C    4   -0.10231      0.99959     2.09238    0.01034     3.10231
      C    5    0.16500      0.99964     1.81654    0.01881     2.83500
      N    6   -0.16881      0.99968     2.65783    0.01130     3.66881
      N    7   -0.11766      0.99965     2.60228    0.01574     3.61766
      C    8    0.11745      0.99960     1.86680    0.01615     2.88255
      N    9   -0.26975      0.99971     2.76124    0.00880     3.76975
      C   10   -0.00165      0.99956     1.98551    0.01658     3.00165
      C   11   -0.21007      0.99961     2.20020    0.01026     3.21007
      C   12   -0.00977      0.99956     1.99760    0.01262     3.00977
      O   13   -0.30640      0.99987     3.29667    0.00985     4.30640
      C   14    0.13552      0.99946     1.84615    0.01886     2.86448
      C   15   -0.21347      0.99955     2.19994    0.01398     3.21347
      C   16   -0.19842      0.99956     2.18754    0.01132     3.19842
      C   17   -0.24127      0.99960     2.23237    0.00930     3.24127
      S   18    0.07150      4.99966     2.91251    0.01634     7.92850
      C   19   -0.25454      0.99951     2.24679    0.00824     3.25454
      H   20    0.09650      0.00000     0.40228    0.00122     0.40350
      H   21    0.09700      0.00000     0.40217    0.00083     0.40300
      H   22    0.09827      0.00000     0.40021    0.00152     0.40173
      H   23    0.08316      0.00000     0.41536    0.00148     0.41684
      H   24    0.09082      0.00000     0.40746    0.00172     0.40918
      H   25    0.17851      0.00000     0.31739    0.00409     0.32149
      H   26    0.10156      0.00000     0.39735    0.00109     0.39844
      H   27    0.09930      0.00000     0.39957    0.00113     0.40070
      H   28    0.10240      0.00000     0.39598    0.00162     0.39760
      H   29    0.11284      0.00000     0.38243    0.00473     0.38716
      H   30    0.10890      0.00000     0.38729    0.00382     0.39110
      H   31    0.11337      0.00000     0.38318    0.00345     0.38663
      H   32    0.07741      0.00000     0.42085    0.00174     0.42259
      H   33    0.09633      0.00000     0.40235    0.00132     0.40367
      H   34    0.11177      0.00000     0.38618    0.00205     0.38823
      H   35    0.12053      0.00000     0.37704    0.00242     0.37947
      H   36    0.10484      0.00000     0.39385    0.00131     0.39516
      H   37    0.11020      0.00000     0.38861    0.00119     0.38980
      H   38    0.10141      0.00000     0.39726    0.00133     0.39859
      H   39    0.10376      0.00000     0.39496    0.00127     0.39624
      H   40    0.11304      0.00000     0.38557    0.00139     0.38696
      H   41    0.10368      0.00000     0.39470    0.00162     0.39632
 =======================================================================
   * Total *    0.00000     22.99287    52.73078    0.27635    76.00000

 Normal termination of Gaussian 16 at Sat Dec 12 11:33:34 2020.
