 Gaussian 16, Revision A.03,

 -----------------------------------------------------------
 # opt freq B3LYP/6-31G(d) empiricaldispersion=gd3bj scf=xqc
 -----------------------------------------------------------

 ------------------------------
 CID_60951664_JID_6764_neutraal
 ------------------------------
 Symbolic Z-matrix:
 Charge =  0 Multiplicity = 1

 SCF Done:  E(RB3LYP) =  -1161.17729787     A.U. after   15 cycles
 SCF Done:  E(RB3LYP) =  -1161.18547235     A.U. after   13 cycles
 SCF Done:  E(RB3LYP) =  -1161.18671919     A.U. after   13 cycles
 SCF Done:  E(RB3LYP) =  -1161.18746410     A.U. after   12 cycles
 SCF Done:  E(RB3LYP) =  -1161.18821062     A.U. after   13 cycles
 SCF Done:  E(RB3LYP) =  -1161.18874689     A.U. after   13 cycles
 SCF Done:  E(RB3LYP) =  -1161.18911959     A.U. after   14 cycles
 SCF Done:  E(RB3LYP) =  -1161.18967392     A.U. after   13 cycles
 SCF Done:  E(RB3LYP) =  -1161.19000622     A.U. after   12 cycles
 SCF Done:  E(RB3LYP) =  -1161.19019680     A.U. after   13 cycles
 SCF Done:  E(RB3LYP) =  -1161.19040620     A.U. after    8 cycles
 SCF Done:  E(RB3LYP) =  -1161.19040629     A.U. after    9 cycles
 SCF Done:  E(RB3LYP) =  -1161.19040638     A.U. after    9 cycles
 SCF Done:  E(RB3LYP) =  -1161.19040645     A.U. after    8 cycles
 SCF Done:  E(RB3LYP) =  -1161.19040646     A.U. after    7 cycles
 Optimization completed.
    -- Stationary point found.
 Normal termination of Gaussian 16 at Fri Dec 11 00:35:54 2020.

 --------------------------------------------------------------------
 #N Geom=AllCheck Guess=TCheck SCRF=Check GenChk RB3LYP/6-31G(d) Freq
 --------------------------------------------------------------------

 Structure from the checkpoint file:  "JID_6764.chk"
 ------------------------------
 CID_60951664_JID_6764_neutraal
 ------------------------------
 Charge =  0 Multiplicity = 1

 SCF Done:  E(RB3LYP) =  -1161.19040646     A.U. after    1 cycles

  Exact polarizability: 165.217  -6.712 126.271  -0.716  -1.549 104.160
 Approx polarizability: 196.922 -14.635 220.231  -8.975  -1.304 163.943

                      1                      2                      3
                      A                      A                      A
 Frequencies --     11.3145                24.4447                49.1736
 Red. masses --      5.4724                 4.5031                 4.9935
 Frc consts  --      0.0004                 0.0016                 0.0071
 IR Inten    --      3.2391                 0.5844                 4.2463

                      4                      5                      6
                      A                      A                      A
 Frequencies --     63.3275                76.9258                87.3115
 Red. masses --      5.1235                 5.3385                 5.7838
 Frc consts  --      0.0121                 0.0186                 0.0260
 IR Inten    --      0.6402                 3.7484                 3.0638

                      7                      8                      9
                      A                      A                      A
 Frequencies --    121.9478               143.0814               152.5588
 Red. masses --      4.2692                 1.3025                 2.5758
 Frc consts  --      0.0374                 0.0157                 0.0353
 IR Inten    --     10.6232                 1.3452                 2.6621

                     10                     11                     12
                      A                      A                      A
 Frequencies --    217.8154               227.0438               281.0473
 Red. masses --      2.0537                 1.3138                 6.1014
 Frc consts  --      0.0574                 0.0399                 0.2839
 IR Inten    --      3.8520                 1.2183                 1.3089

                     13                     14                     15
                      A                      A                      A
 Frequencies --    306.8336               321.4057               336.4142
 Red. masses --      3.7196                 3.3893                 2.8380
 Frc consts  --      0.2063                 0.2063                 0.1892
 IR Inten    --      2.4904                 4.6137                 1.9389

                     16                     17                     18
                      A                      A                      A
 Frequencies --    355.7560               401.1359               426.1250
 Red. masses --      3.7509                 2.7981                 3.1997
 Frc consts  --      0.2797                 0.2653                 0.3423
 IR Inten    --      8.7445                 0.8190                22.0576

                     19                     20                     21
                      A                      A                      A
 Frequencies --    435.8279               457.5747               470.5375
 Red. masses --      2.8461                 2.7745                 3.7501
 Frc consts  --      0.3185                 0.3423                 0.4892
 IR Inten    --      2.3848                10.8610                15.8201

                     22                     23                     24
                      A                      A                      A
 Frequencies --    486.7089               502.9476               516.2032
 Red. masses --      4.5826                 4.2585                 3.1865
 Frc consts  --      0.6396                 0.6347                 0.5003
 IR Inten    --     13.2644                14.9188                 3.9727

                     25                     26                     27
                      A                      A                      A
 Frequencies --    548.8565               568.7519               615.0131
 Red. masses --      2.6901                 3.9455                 4.0105
 Frc consts  --      0.4775                 0.7520                 0.8937
 IR Inten    --      7.2214                30.2451                30.9829

                     28                     29                     30
                      A                      A                      A
 Frequencies --    643.8429               687.0318               750.2821
 Red. masses --      2.5044                 4.0683                 3.2380
 Frc consts  --      0.6117                 1.1314                 1.0739
 IR Inten    --     21.6955                 1.3785                 6.7613

                     31                     32                     33
                      A                      A                      A
 Frequencies --    767.7174               829.0711               851.6864
 Red. masses --      5.8584                 3.3922                 1.6149
 Frc consts  --      2.0344                 1.3738                 0.6902
 IR Inten    --    114.6303                 0.7294                 2.0935

                     34                     35                     36
                      A                      A                      A
 Frequencies --    896.1985               913.7058               932.7600
 Red. masses --      3.4041                 1.8834                 2.3905
 Frc consts  --      1.6109                 0.9264                 1.2254
 IR Inten    --    144.6636                21.3453                23.5244

                     37                     38                     39
                      A                      A                      A
 Frequencies --    970.7268               998.1237              1000.1581
 Red. masses --      2.7837                 1.3596                 1.4536
 Frc consts  --      1.5455                 0.7981                 0.8567
 IR Inten    --     87.6657                 0.7497                22.8883

                     40                     41                     42
                      A                      A                      A
 Frequencies --   1016.1557              1049.7569              1058.6712
 Red. masses --      2.1672                 2.2881                 1.8742
 Frc consts  --      1.3185                 1.4856                 1.2376
 IR Inten    --     35.5755                 3.7494                 3.0625

                     43                     44                     45
                      A                      A                      A
 Frequencies --   1069.9428              1074.8000              1124.8196
 Red. masses --      1.8792                 2.0208                 9.6331
 Frc consts  --      1.2675                 1.3754                 7.1809
 IR Inten    --     13.0489                 3.5933               114.3938

                     46                     47                     48
                      A                      A                      A
 Frequencies --   1141.2130              1169.1403              1170.2010
 Red. masses --      1.9155                 3.4680                 1.8584
 Frc consts  --      1.4699                 2.7929                 1.4994
 IR Inten    --     36.2253                18.1509                12.0079

                     49                     50                     51
                      A                      A                      A
 Frequencies --   1219.3171              1230.7471              1264.8128
 Red. masses --      2.1092                 2.1784                 1.3522
 Frc consts  --      1.8476                 1.9441                 1.2745
 IR Inten    --      0.9752               226.7551                 1.9900

                     52                     53                     54
                      A                      A                      A
 Frequencies --   1285.2666              1303.4602              1320.2303
 Red. masses --      1.5179                 1.5517                 1.5171
 Frc consts  --      1.4774                 1.5532                 1.5580
 IR Inten    --     79.6244                22.0042                69.6800

                     55                     56                     57
                      A                      A                      A
 Frequencies --   1326.7404              1368.1057              1378.9986
 Red. masses --      8.8731                 1.3131                 1.2846
 Frc consts  --      9.2023                 1.4480                 1.4392
 IR Inten    --    176.7528                14.8168                11.9693

                     58                     59                     60
                      A                      A                      A
 Frequencies --   1380.8884              1399.1586              1417.3634
 Red. masses --      1.2131                 1.2712                 1.3661
 Frc consts  --      1.3629                 1.4662                 1.6169
 IR Inten    --      8.0582                 8.1065                41.9486

                     61                     62                     63
                      A                      A                      A
 Frequencies --   1417.8330              1422.6069              1479.3957
 Red. masses --      1.3164                 1.3106                 2.2980
 Frc consts  --      1.5591                 1.5628                 2.9632
 IR Inten    --     31.3367                 3.3235               136.0969

                     64                     65                     66
                      A                      A                      A
 Frequencies --   1483.1160              1485.8289              1493.7735
 Red. masses --      1.0493                 1.0538                 1.0870
 Frc consts  --      1.3599                 1.3707                 1.4290
 IR Inten    --      3.8617                 4.9120                27.0759

                     67                     68                     69
                      A                      A                      A
 Frequencies --   1498.9234              1500.1829              1505.9498
 Red. masses --      1.0862                 1.0625                 1.0933
 Frc consts  --      1.4379                 1.4089                 1.4608
 IR Inten    --      5.7248                 2.1152                 2.4934

                     70                     71                     72
                      A                      A                      A
 Frequencies --   1507.1189              1517.1507              1544.0805
 Red. masses --      1.1338                 1.1263                 1.0922
 Frc consts  --      1.5173                 1.5274                 1.5342
 IR Inten    --     36.7142                25.0185                 4.7702

                     73                     74                     75
                      A                      A                      A
 Frequencies --   1751.1870              1813.3257              3051.8185
 Red. masses --     10.3348                10.0413                 1.0398
 Frc consts  --     18.6731                19.4532                 5.7061
 IR Inten    --    392.7650               100.1453                 2.4900

                     76                     77                     78
                      A                      A                      A
 Frequencies --   3056.2763              3059.3764              3072.1664
 Red. masses --      1.0701                 1.0707                 1.0695
 Frc consts  --      5.8890                 5.9044                 5.9471
 IR Inten    --     22.4369                 4.1212                36.7339

                     79                     80                     81
                      A                      A                      A
 Frequencies --   3082.2471              3088.0006              3102.0154
 Red. masses --      1.0705                 1.0293                 1.0582
 Frc consts  --      5.9923                 5.7829                 5.9996
 IR Inten    --     21.8773                 0.5811                 2.3130

                     82                     83                     84
                      A                      A                      A
 Frequencies --   3114.8201              3147.7425              3158.0000
 Red. masses --      1.0954                 1.0972                 1.1078
 Frc consts  --      6.2615                 6.4053                 6.5094
 IR Inten    --      3.5209                 9.8578                 7.3789

                     85                     86                     87
                      A                      A                      A
 Frequencies --   3170.0521              3170.5726              3172.4087
 Red. masses --      1.0965                 1.0947                 1.1039
 Frc consts  --      6.4923                 6.4837                 6.5459
 IR Inten    --      1.6621                 4.1825                 6.7743

                     88                     89                     90
                      A                      A                      A
 Frequencies --   3186.2262              3186.7591              3197.6929
 Red. masses --      1.1067                 1.0943                 1.1080
 Frc consts  --      6.6194                 6.5477                 6.6750
 IR Inten    --      1.0394                 3.9424                 0.8452

 - Thermochemistry -
 -------------------
 Temperature   298.150 Kelvin.  Pressure   1.00000 Atm.
 Atom     1 has atomic number  6 and mass  12.00000

 Molecular mass:   248.08308 amu.
 Principal axes and moments of inertia in atomic units:
                           1         2         3
     Eigenvalues --  1643.411047430.300648147.25631
           X            0.99993  -0.00028   0.01209
           Y            0.00056   0.99974  -0.02270
           Z           -0.01208   0.02271   0.99967
 This molecule is an asymmetric top.
 Rotational symmetry number  1.
 Warning -- assumption of classical behavior for rotation
           may cause significant error
 Rotational temperatures (Kelvin)      0.05270     0.01166     0.01063
 Rotational constants (GHZ):           1.09817     0.24289     0.22152
 Zero-point vibrational energy     691763.5 (Joules/Mol)
                                  165.33544 (Kcal/Mol)
 Warning -- explicit consideration of  27 degrees of freedom as
           vibrations may cause significant error
 Vibrational temperatures:     16.28    35.17    70.75    91.11   110.68
          (Kelvin)            125.62   175.46   205.86   219.50   313.39
                              326.67   404.36   441.47   462.43   484.02
                              511.85   577.15   613.10   627.06   658.35
                              677.00   700.27   723.63   742.70   789.68
                              818.31   884.87   926.35   988.49  1079.49
                             1104.57  1192.85  1225.39  1289.43  1314.62
                             1342.03  1396.66  1436.08  1439.00  1462.02
                             1510.37  1523.19  1539.41  1546.40  1618.36
                             1641.95  1682.13  1683.66  1754.33  1770.77
                             1819.78  1849.21  1875.39  1899.52  1908.88
                             1968.40  1984.07  1986.79  2013.08  2039.27
                             2039.95  2046.81  2128.52  2133.87  2137.78
                             2149.21  2156.62  2158.43  2166.73  2168.41
                             2182.84  2221.59  2519.57  2608.97  4390.89
                             4397.30  4401.76  4420.16  4434.67  4442.94
                             4463.11  4481.53  4528.90  4543.66  4561.00
                             4561.75  4564.39  4584.27  4585.04  4600.77

 Zero-point correction=                           0.263479 (Hartree/Particle)
 Thermal correction to Energy=                    0.280151
 Thermal correction to Enthalpy=                  0.281095
 Thermal correction to Gibbs Free Energy=         0.216428
 Sum of electronic and zero-point Energies=          -1160.926928
 Sum of electronic and thermal Energies=             -1160.910255
 Sum of electronic and thermal Enthalpies=           -1160.909311
 Sum of electronic and thermal Free Energies=        -1160.973979

                     E (Thermal)             CV                S
                      KCal/Mol        Cal/Mol-Kelvin    Cal/Mol-Kelvin
 Total                  175.798             61.499            136.105
 Electronic               0.000              0.000              0.000
 Translational            0.889              2.981             42.426
 Rotational               0.889              2.981             32.964
 Vibrational            174.020             55.537             60.715
 Vibration     1          0.593              1.987              7.766
 Vibration     2          0.593              1.985              6.236
 Vibration     3          0.595              1.978              4.850
 Vibration     4          0.597              1.972              4.351
 Vibration     5          0.599              1.965              3.968
 Vibration     6          0.601              1.958              3.719
 Vibration     7          0.609              1.931              3.069
 Vibration     8          0.616              1.910              2.762
 Vibration     9          0.619              1.900              2.640
 Vibration    10          0.646              1.814              1.977
 Vibration    11          0.651              1.800              1.902
 Vibration    12          0.681              1.709              1.527
 Vibration    13          0.697              1.661              1.379
 Vibration    14          0.707              1.633              1.303
 Vibration    15          0.717              1.603              1.229
 Vibration    16          0.731              1.563              1.141
 Vibration    17          0.767              1.468              0.958
 Vibration    18          0.788              1.413              0.871
 Vibration    19          0.796              1.392              0.840
 Vibration    20          0.816              1.344              0.773
 Vibration    21          0.828              1.315              0.736
 Vibration    22          0.843              1.280              0.692
 Vibration    23          0.858              1.243              0.651
 Vibration    24          0.871              1.214              0.619
 Vibration    25          0.904              1.142              0.547
 Vibration    26          0.925              1.099              0.507
 Vibration    27          0.975              1.000              0.425

 Optimization completed.
    -- Stationary point found.
 Normal termination of Gaussian 16 at Fri Dec 11 00:46:11 2020.

 ----------------------------------------------------------------------
 # B3LYP/6-311++G(d,p) empiricaldispersion=gd3bj scf=xqc pop=npa geom=c
 heck
 ----------------------------------------------------------------------

 --------------------------------------
 CID_60951664_JID_6764_Energie_neutraal
 --------------------------------------
 Structure from the checkpoint file:  "JID_6764.chk"
 Charge =  0 Multiplicity = 1

 SCF Done:  E(RB3LYP) =  -1161.44018684     A.U. after   15 cycles
 Normal termination of Gaussian 16 at Fri Dec 11 00:50:36 2020.

 ----------------------------------------------------------------------
 # B3LYP/6-311++G(d,p) empiricaldispersion=gd3bj scf=xqc pop=npa geom=c
 heck
 ----------------------------------------------------------------------

 ------------------------------------
 CID_60951664_JID_6764_Energie_kation
 ------------------------------------
 Structure from the checkpoint file:  "JID_6764.chk"
 Charge =  1 Multiplicity = 2

 SCF Done:  E(UB3LYP) =  -1161.12887260     A.U. after   25 cycles
 Normal termination of Gaussian 16 at Fri Dec 11 01:00:29 2020.
 Gaussian 16:  ES64L-G16RevA.03 25-Dec-2016

 ----------------------------------------------------------------------
 # B3LYP/6-311++G(d,p) empiricaldispersion=gd3bj scf=xqc pop=npa geom=c
 heck
 ----------------------------------------------------------------------

 -----------------------------------
 CID_60951664_JID_6764_Energie_anion
 -----------------------------------
 Structure from the checkpoint file:  "JID_6764.chk"
 Charge = -1 Multiplicity = 2

                         Standard orientation:
 ---------------------------------------------------------------------
 Center     Atomic      Atomic             Coordinates (Angstroms)
 Number     Number       Type             X           Y           Z
 ---------------------------------------------------------------------
      1          6           0       -4.786991   -0.351013   -0.968474
      2          6           0       -3.739712   -0.954276   -0.060297
      3          8           0       -3.358628   -2.105500   -0.158245
      4          6           0       -3.152623   -0.010321    0.990831
      5          6           0       -2.199034    0.991186    0.323327
      6          8           0       -2.576002    2.137751    0.098071
      7          7           0       -0.962735    0.535161   -0.045609
      8          6           0        0.009363    1.483607   -0.589918
      9          6           0        1.192077    1.615949    0.371936
     10          7           0        1.779717    0.305391    0.712502
     11          6           0        0.779904   -0.671000    1.183843
     12          6           0       -0.403357   -0.790463    0.216369
     13         16           0        2.959726   -0.297225   -0.348563
     14          8           0        2.543096   -1.609863   -0.858626
     15          8           0        3.327972    0.786002   -1.265678
     16          6           0        4.339436   -0.572916    0.773111
     17          1           0       -4.961090   -1.000328   -1.828278
     18          1           0       -4.484229    0.651962   -1.288908
     19          1           0       -5.725003   -0.234945   -0.409739
     20          1           0       -3.942074    0.600984    1.433353
     21          1           0       -2.669429   -0.601018    1.771409
     22          1           0        0.364728    1.119257   -1.561714
     23          1           0       -0.496175    2.439075   -0.728572
     24          1           0        0.853303    2.061709    1.314575
     25          1           0        1.968899    2.249619   -0.055054
     26          1           0        0.431406   -0.319342    2.162722
     27          1           0        1.256705   -1.643475    1.317667
     28          1           0       -1.165226   -1.465893    0.600743
     29          1           0       -0.044402   -1.211616   -0.729441
     30          1           0        4.628383    0.384697    1.207544
     31          1           0        4.026942   -1.274406    1.548600
     32          1           0        5.156902   -0.996185    0.185322
 ---------------------------------------------------------------------

 SCF Done:  E(UB3LYP) =  -1161.43872321     A.U. after   33 cycles
 SCF Done:  E(UB3LYP) =  -1161.43872321     a.u. after    1 cycles

 The electronic state is 2-A.
 Alpha  occ. eigenvalues --  -88.97316 -19.02936 -19.02703 -18.99324 -18.98570
 Alpha  occ. eigenvalues --  -14.25656 -14.24744 -10.17157 -10.13862 -10.12151
 Alpha  occ. eigenvalues --  -10.12092 -10.11388 -10.11153 -10.11089 -10.07754
 Alpha  occ. eigenvalues --  -10.07007  -8.03510  -5.99797  -5.99764  -5.99572
 Alpha  occ. eigenvalues --   -1.03017  -0.94108  -0.92914  -0.92118  -0.86894
 Alpha  occ. eigenvalues --   -0.82678  -0.69504  -0.68796  -0.67408  -0.63490
 Alpha  occ. eigenvalues --   -0.61316  -0.57042  -0.56289  -0.49978  -0.46540
 Alpha  occ. eigenvalues --   -0.44041  -0.41606  -0.40640  -0.40315  -0.39614
 Alpha  occ. eigenvalues --   -0.38882  -0.37609  -0.36917  -0.36130  -0.35585
 Alpha  occ. eigenvalues --   -0.34634  -0.34235  -0.33905  -0.32767  -0.31795
 Alpha  occ. eigenvalues --   -0.30761  -0.29716  -0.28914  -0.28663  -0.28002
 Alpha  occ. eigenvalues --   -0.27088  -0.26714  -0.26079  -0.24969  -0.23527
 Alpha  occ. eigenvalues --   -0.22056  -0.21693  -0.18541  -0.16315  -0.14395
 Alpha  occ. eigenvalues --   -0.13704   0.03778
 Alpha virt. eigenvalues --    0.05488   0.07288   0.07574   0.08176   0.09194
 Alpha virt. eigenvalues --    0.09544   0.10243   0.10317   0.10866   0.11523
 Alpha virt. eigenvalues --    0.11832   0.12280   0.12424   0.12593   0.13937

  Beta  occ. eigenvalues --  -88.97313 -19.02926 -19.02692 -18.99101 -18.98526
  Beta  occ. eigenvalues --  -14.25653 -14.24736 -10.17065 -10.13589 -10.12136
  Beta  occ. eigenvalues --  -10.12063 -10.11322 -10.11153 -10.11088 -10.07774
  Beta  occ. eigenvalues --  -10.07027  -8.03506  -5.99793  -5.99762  -5.99569
  Beta  occ. eigenvalues --   -1.02992  -0.93991  -0.92482  -0.92090  -0.86870
  Beta  occ. eigenvalues --   -0.82648  -0.69446  -0.68744  -0.67176  -0.63389
  Beta  occ. eigenvalues --   -0.61258  -0.57013  -0.56241  -0.49901  -0.46475
  Beta  occ. eigenvalues --   -0.43581  -0.41495  -0.40593  -0.40218  -0.39570
  Beta  occ. eigenvalues --   -0.38837  -0.37502  -0.36846  -0.36060  -0.35414
  Beta  occ. eigenvalues --   -0.34445  -0.34097  -0.33794  -0.32594  -0.31749
  Beta  occ. eigenvalues --   -0.30667  -0.29594  -0.28853  -0.28510  -0.27917
  Beta  occ. eigenvalues --   -0.27010  -0.26575  -0.26022  -0.23955  -0.23508
  Beta  occ. eigenvalues --   -0.22028  -0.21670  -0.18469  -0.16227  -0.14234
  Beta  occ. eigenvalues --   -0.13583
  Beta virt. eigenvalues --    0.06417   0.07059   0.07963   0.08425   0.08809
  Beta virt. eigenvalues --    0.09411   0.10054   0.10695   0.10746   0.11114
  Beta virt. eigenvalues --    0.11681   0.11939   0.12392   0.12641   0.12951

 Mulliken charges and spin densities:
               1          2
     1  C   -0.384819  -0.224753
     2  C    0.047344   0.339211
     3  O   -0.304153   0.075090
     4  C    0.234915  -0.534934
     5  C   -0.320124   0.212693
     6  O   -0.335166   0.019025
     7  N    0.107355   0.022697
     8  C   -0.215699   0.070195
     9  C   -0.200501  -0.230704
    10  N   -0.297361   0.261947
    11  C    0.224744  -0.997465
    12  C   -0.422263   0.272373
    13  S    0.363368  -0.290015
    14  O   -0.122435   0.030950
    15  O   -0.179995   0.019028
    16  C    0.708234  -1.174394
    17  H    0.140587   0.001961
    18  H    0.195799  -0.008876
    19  H    0.014277   0.140305
    20  H    0.020532   0.200634
    21  H   -0.039328   0.216789
    22  H    0.177359   0.013315
    23  H    0.193136   0.031560
    24  H   -0.052055   0.240203
    25  H    0.147931   0.073329
    26  H   -0.207445   0.418748
    27  H    0.126103   0.113042
    28  H    0.183063   0.038687
    29  H    0.252252  -0.025374
    30  H   -0.388829   0.598438
    31  H   -0.539212   0.747955
    32  H   -0.127611   0.328335
 Sum of Mulliken charges =  -1.00000   1.00000

 Dipole moment (field-independent basis, Debye):
    X=             -1.1704    Y=              1.7291    Z=             -2.0927  Tot=              2.9562
 Quadrupole moment (field-independent basis, Debye-Ang):
   XX=           -185.6620   YY=           -142.7668   ZZ=           -134.5752
   XY=              1.7936   XZ=             -3.1449   YZ=             -0.4238

 Summary of Natural Population Analysis:

                                       Natural Population
                Natural  -----------------------------------------------
    Atom  No    Charge         Core      Valence    Rydberg      Total
 -----------------------------------------------------------------------
      C    1   -0.33779      0.99962     2.33338    0.00478     3.33779
      C    2    0.31931      0.99970     1.65910    0.02190     2.68069
      O    3   -0.27560      0.99987     3.26929    0.00644     4.27560
      C    4   -0.27653      0.99956     2.26846    0.00852     3.27653
      C    5    0.35848      0.99964     1.61817    0.02371     2.64152
      O    6   -0.32970      0.99988     3.32461    0.00521     4.32970
      N    7   -0.25461      0.99963     2.74540    0.00957     3.75461
      C    8   -0.09801      0.99961     2.08846    0.00994     3.09801
      C    9   -0.09320      0.99959     2.08193    0.01167     3.09320
      N   10   -0.37838      0.99974     2.86076    0.01787     3.87838
      C   11   -0.09319      0.99959     2.08094    0.01266     3.09319
      C   12   -0.09951      0.99960     2.09020    0.00971     3.09951
      S   13    1.09826      4.99926     1.80325    0.09923     6.90174
      O   14   -0.46521      0.99991     3.45973    0.00558     4.46521
      O   15   -0.46619      0.99991     3.46064    0.00564     4.46619
      C   16   -0.38500      0.99961     2.37523    0.01016     3.38500
      H   17    0.10494      0.00000     0.39418    0.00088     0.39506
      H   18    0.11307      0.00000     0.38616    0.00077     0.38693
      H   19    0.10925      0.00000     0.38958    0.00117     0.39075
      H   20    0.11763      0.00000     0.38100    0.00137     0.38237
      H   21    0.11291      0.00000     0.38571    0.00138     0.38709
      H   22    0.09718      0.00000     0.40176    0.00106     0.40282
      H   23    0.11887      0.00000     0.38008    0.00105     0.38113
      H   24    0.10026      0.00000     0.39856    0.00118     0.39974
      H   25    0.11476      0.00000     0.38425    0.00099     0.38524
      H   26    0.10063      0.00000     0.39768    0.00169     0.39937
      H   27    0.11129      0.00000     0.38749    0.00122     0.38871
      H   28    0.11943      0.00000     0.37903    0.00153     0.38057
      H   29    0.10396      0.00000     0.39491    0.00113     0.39604
      H   30    0.11827      0.00000     0.37968    0.00205     0.38173
      H   31    0.11932      0.00000     0.37799    0.00269     0.38068
      H   32    0.11509      0.00000     0.38396    0.00094     0.38491
 =======================================================================
   * Total *    0.00000     19.99471    45.72159    0.28371    66.00000

 Normal termination of Gaussian 16 at Fri Dec 11 01:13:12 2020.
