 Gaussian 16, Revision A.03,

 -----------------------------------------------------------
 # opt freq B3LYP/6-31G(d) empiricaldispersion=gd3bj scf=xqc
 -----------------------------------------------------------

 ------------------------------
 CID_85560416_JID_6284_neutraal
 ------------------------------
 Symbolic Z-matrix:
 Charge =  0 Multiplicity = 1

 SCF Done:  E(RB3LYP) =  -1122.83704688     A.U. after   15 cycles
 SCF Done:  E(RB3LYP) =  -1122.84204173     A.U. after   12 cycles
 SCF Done:  E(RB3LYP) =  -1122.84276358     A.U. after   12 cycles
 SCF Done:  E(RB3LYP) =  -1122.84302359     A.U. after   11 cycles
 SCF Done:  E(RB3LYP) =  -1122.84320683     A.U. after   11 cycles
 SCF Done:  E(RB3LYP) =  -1122.84329677     A.U. after   11 cycles
 SCF Done:  E(RB3LYP) =  -1122.84328697     A.U. after   11 cycles
 SCF Done:  E(RB3LYP) =  -1122.84339410     A.U. after   10 cycles
 SCF Done:  E(RB3LYP) =  -1122.84353871     A.U. after   12 cycles
 SCF Done:  E(RB3LYP) =  -1122.84354582     A.U. after    9 cycles
 SCF Done:  E(RB3LYP) =  -1122.84519843     A.U. after   10 cycles
 SCF Done:  E(RB3LYP) =  -1122.84520033     A.U. after    8 cycles
 SCF Done:  E(RB3LYP) =  -1122.84520084     A.U. after    8 cycles
 SCF Done:  E(RB3LYP) =  -1122.84520098     A.U. after    7 cycles
 SCF Done:  E(RB3LYP) =  -1122.84520101     A.U. after    7 cycles
 Optimization completed.
    -- Stationary point found.
 Normal termination of Gaussian 16 at Thu Dec 10 22:14:47 2020.

 --------------------------------------------------------------------
 #N Geom=AllCheck Guess=TCheck SCRF=Check GenChk RB3LYP/6-31G(d) Freq
 --------------------------------------------------------------------

 Structure from the checkpoint file:  "JID_6284.chk"
 ------------------------------
 CID_85560416_JID_6284_neutraal
 ------------------------------
 Charge =  0 Multiplicity = 1

 SCF Done:  E(RB3LYP) =  -1122.84520101     A.U. after    1 cycles

  Exact polarizability: 180.101   5.354 152.488  -8.183  -2.716  90.634
 Approx polarizability: 271.574  12.436 242.719 -24.861  -4.412 140.234

                      1                      2                      3
                      A                      A                      A
 Frequencies --     39.3567                53.4411                63.6087
 Red. masses --      5.0135                 4.9017                 4.6681
 Frc consts  --      0.0046                 0.0082                 0.0111
 IR Inten    --      1.2410                 2.6019                 1.7833

                      4                      5                      6
                      A                      A                      A
 Frequencies --     91.7162               126.7929               152.6163
 Red. masses --      4.6845                 3.1630                 3.5742
 Frc consts  --      0.0232                 0.0300                 0.0490
 IR Inten    --      1.4540                 4.1280                 7.3118

                      7                      8                      9
                      A                      A                      A
 Frequencies --    187.2803               212.4572               227.0820
 Red. masses --      3.6435                 2.8735                 1.2039
 Frc consts  --      0.0753                 0.0764                 0.0366
 IR Inten    --      1.6918                 4.9198                 1.5311

                     10                     11                     12
                      A                      A                      A
 Frequencies --    266.5515               268.1900               291.0036
 Red. masses --      1.9619                 2.4822                 2.2274
 Frc consts  --      0.0821                 0.1052                 0.1111
 IR Inten    --     36.9412                45.1989                25.9752

                     13                     14                     15
                      A                      A                      A
 Frequencies --    311.9980               313.9046               325.0216
 Red. masses --      2.0682                 1.5527                 3.5533
 Frc consts  --      0.1186                 0.0901                 0.2212
 IR Inten    --      5.2885                19.6190                 1.7862

                     16                     17                     18
                      A                      A                      A
 Frequencies --    347.9710               369.0210               395.8715
 Red. masses --      4.9979                 5.1333                 3.7588
 Frc consts  --      0.3566                 0.4119                 0.3471
 IR Inten    --      4.4136                 4.9216                 2.9962

                     19                     20                     21
                      A                      A                      A
 Frequencies --    425.8903               461.7393               487.3856
 Red. masses --      3.1919                 3.0064                 7.4978
 Frc consts  --      0.3411                 0.3776                 1.0494
 IR Inten    --      4.2401                16.7769                28.5403

                     22                     23                     24
                      A                      A                      A
 Frequencies --    527.8285               537.1025               552.2338
 Red. masses --      4.1805                 5.1057                 6.0402
 Frc consts  --      0.6862                 0.8678                 1.0853
 IR Inten    --     16.0323                33.8238                60.3230

                     25                     26                     27
                      A                      A                      A
 Frequencies --    599.2924               622.5372               659.9805
 Red. masses --      1.6593                 5.5885                 2.3919
 Frc consts  --      0.3511                 1.2761                 0.6138
 IR Inten    --    258.2973                 8.8890               103.9028

                     28                     29                     30
                      A                      A                      A
 Frequencies --    724.6803               736.7070               763.5792
 Red. masses --      5.7018                 5.5667                 5.4261
 Frc consts  --      1.7642                 1.7801                 1.8640
 IR Inten    --     21.1984                26.9390                27.6865

                     31                     32                     33
                      A                      A                      A
 Frequencies --    809.2557               826.6498               867.3968
 Red. masses --      1.5344                 3.6256                 3.3510
 Frc consts  --      0.5921                 1.4597                 1.4854
 IR Inten    --     35.6833                20.8231                12.3833

                     34                     35                     36
                      A                      A                      A
 Frequencies --    873.2924               888.7815               930.9531
 Red. masses --      1.4646                 2.1505                 1.2884
 Frc consts  --      0.6581                 1.0009                 0.6579
 IR Inten    --     32.5360                 8.9355                 0.5911

                     37                     38                     39
                      A                      A                      A
 Frequencies --    964.8266               989.3790               995.9407
 Red. masses --      2.2842                 1.5220                 1.3772
 Frc consts  --      1.2528                 0.8778                 0.8048
 IR Inten    --     34.2220                12.3705                 6.9691

                     40                     41                     42
                      A                      A                      A
 Frequencies --   1006.4917              1059.1854              1074.0846
 Red. masses --      2.2949                 2.7128                 2.7468
 Frc consts  --      1.3697                 1.7932                 1.8670
 IR Inten    --    111.8281                17.9434                13.2631

                     43                     44                     45
                      A                      A                      A
 Frequencies --   1083.9844              1113.3411              1135.2692
 Red. masses --      4.6165                 1.7124                 4.1853
 Frc consts  --      3.1960                 1.2506                 3.1782
 IR Inten    --    117.6312                41.7479                90.9757

                     46                     47                     48
                      A                      A                      A
 Frequencies --   1145.5879              1150.4008              1192.9586
 Red. masses --      2.5704                 1.9599                 1.6548
 Frc consts  --      1.9875                 1.5282                 1.3875
 IR Inten    --    208.0832                13.5207                13.7833

                     49                     50                     51
                      A                      A                      A
 Frequencies --   1216.3613              1242.1686              1254.9322
 Red. masses --      1.2505                 1.4197                 1.3377
 Frc consts  --      1.0900                 1.2907                 1.2412
 IR Inten    --      5.0353                12.5346                 0.7294

                     52                     53                     54
                      A                      A                      A
 Frequencies --   1273.4148              1290.9330              1327.0896
 Red. masses --      1.3540                 1.4145                 2.5041
 Frc consts  --      1.2937                 1.3889                 2.5983
 IR Inten    --     67.2216                 4.1323                47.4352

                     55                     56                     57
                      A                      A                      A
 Frequencies --   1340.8044              1354.4892              1370.5059
 Red. masses --      2.4271                 4.0570                 1.2644
 Frc consts  --      2.5708                 4.3854                 1.3992
 IR Inten    --    106.8970               132.4398                 7.0876

                     58                     59                     60
                      A                      A                      A
 Frequencies --   1374.2464              1382.8305              1398.8547
 Red. masses --      1.3152                 1.7128                 3.9201
 Frc consts  --      1.4635                 1.9298                 4.5196
 IR Inten    --      4.4052                 5.5670                 8.0824

                     61                     62                     63
                      A                      A                      A
 Frequencies --   1465.2554              1484.9170              1488.2444
 Red. masses --      1.4561                 1.0522                 1.0671
 Frc consts  --      1.8419                 1.3669                 1.3925
 IR Inten    --      5.6301                 2.6774                 4.3569

                     64                     65                     66
                      A                      A                      A
 Frequencies --   1505.7855              1544.4290              1550.4639
 Red. masses --      3.2381                 1.1556                 1.4785
 Frc consts  --      4.3258                 1.6240                 2.0940
 IR Inten    --     33.0149                14.3835                17.2775

                     67                     68                     69
                      A                      A                      A
 Frequencies --   1552.5616              1645.6825              1674.5064
 Red. masses --      1.6511                 6.6976                 3.9987
 Frc consts  --      2.3448                10.6871                 6.6061
 IR Inten    --     75.7218                22.5099                96.3278

                     70                     71                     72
                      A                      A                      A
 Frequencies --   1696.0475              2987.4709              3021.6945
 Red. masses --      1.2976                 1.0575                 1.1037
 Frc consts  --      2.1992                 5.5608                 5.9374
 IR Inten    --    160.7557                47.4812                52.1227

                     73                     74                     75
                      A                      A                      A
 Frequencies --   3074.5561              3084.5761              3098.6507
 Red. masses --      1.0852                 1.0290                 1.0681
 Frc consts  --      6.0439                 5.7681                 6.0424
 IR Inten    --     20.9495                 1.1034                39.2870

                     76                     77                     78
                      A                      A                      A
 Frequencies --   3162.5684              3178.8839              3186.7201
 Red. masses --      1.1011                 1.0869                 1.1067
 Frc consts  --      6.4889                 6.4710                 6.6217
 IR Inten    --      4.6852                12.1460                 0.4829

                     79                     80                     81
                      A                      A                      A
 Frequencies --   3187.8602              3195.4754              3231.1359
 Red. masses --      1.1076                 1.0945                 1.0912
 Frc consts  --      6.6317                 6.5846                 6.7122
 IR Inten    --      1.5524                23.2495                 2.1468

                     82                     83                     84
                      A                      A                      A
 Frequencies --   3554.3169              3653.7465              3758.1493
 Red. masses --      1.0478                 1.0984                 1.0665
 Frc consts  --      7.7992                 8.6395                 8.8748
 IR Inten    --     18.4719                 9.9343                19.6688

 - Thermochemistry -
 -------------------
 Temperature   298.150 Kelvin.  Pressure   1.00000 Atm.
 Atom     1 has atomic number  6 and mass  12.00000

 Molecular mass:   242.07251 amu.
 Principal axes and moments of inertia in atomic units:
                           1         2         3
     Eigenvalues --  3118.489513985.023446328.67973
           X            0.99810   0.06122   0.00713
           Y           -0.06119   0.99812  -0.00421
           Z           -0.00737   0.00377   0.99997
 This molecule is an asymmetric top.
 Rotational symmetry number  1.
 Warning -- assumption of classical behavior for rotation
           may cause significant error
 Rotational temperatures (Kelvin)      0.02777     0.02173     0.01369
 Rotational constants (GHZ):           0.57872     0.45288     0.28517
 Zero-point vibrational energy     634385.4 (Joules/Mol)
                                  151.62174 (Kcal/Mol)
 Warning -- explicit consideration of  25 degrees of freedom as
           vibrations may cause significant error
 Vibrational temperatures:     56.63    76.89    91.52   131.96   182.43
          (Kelvin)            219.58   269.45   305.68   326.72   383.51
                              385.87   418.69   448.90   451.64   467.63
                              500.65   530.94   569.57   612.76   664.34
                              701.24   759.43   772.77   794.54   862.25
                              895.69   949.56  1042.65  1059.96  1098.62
                             1164.34  1189.36  1247.99  1256.47  1278.76
                             1339.43  1388.17  1423.50  1432.94  1448.12
                             1523.93  1545.37  1559.61  1601.85  1633.40
                             1648.25  1655.17  1716.40  1750.07  1787.20
                             1805.57  1832.16  1857.36  1909.39  1929.12
                             1948.81  1971.85  1977.23  1989.58  2012.64
                             2108.18  2136.46  2141.25  2166.49  2222.09
                             2230.77  2233.79  2367.77  2409.24  2440.23
                             4298.30  4347.54  4423.60  4438.02  4458.27
                             4550.23  4573.70  4584.98  4586.62  4597.58
                             4648.88  5113.87  5256.93  5407.14

 Zero-point correction=                           0.241625 (Hartree/Particle)
 Thermal correction to Energy=                    0.257211
 Thermal correction to Enthalpy=                  0.258155
 Thermal correction to Gibbs Free Energy=         0.198757
 Sum of electronic and zero-point Energies=          -1122.603576
 Sum of electronic and thermal Energies=             -1122.587990
 Sum of electronic and thermal Enthalpies=           -1122.587046
 Sum of electronic and thermal Free Energies=        -1122.646444

                     E (Thermal)             CV                S
                      KCal/Mol        Cal/Mol-Kelvin    Cal/Mol-Kelvin
 Total                  161.403             59.836            125.015
 Electronic               0.000              0.000              0.000
 Translational            0.889              2.981             42.353
 Rotational               0.889              2.981             32.731
 Vibrational            159.625             53.874             49.931
 Vibration     1          0.594              1.981              5.291
 Vibration     2          0.596              1.976              4.686
 Vibration     3          0.597              1.972              4.342
 Vibration     4          0.602              1.955              3.623
 Vibration     5          0.611              1.926              2.994
 Vibration     6          0.619              1.900              2.639
 Vibration     7          0.632              1.857              2.255
 Vibration     8          0.643              1.822              2.022
 Vibration     9          0.651              1.800              1.902
 Vibration    10          0.672              1.734              1.618
 Vibration    11          0.673              1.732              1.608
 Vibration    12          0.687              1.690              1.468
 Vibration    13          0.700              1.651              1.352
 Vibration    14          0.702              1.647              1.342
 Vibration    15          0.709              1.625              1.285
 Vibration    16          0.726              1.579              1.175
 Vibration    17          0.741              1.536              1.084
 Vibration    18          0.763              1.479              0.978
 Vibration    19          0.788              1.414              0.872
 Vibration    20          0.819              1.335              0.761
 Vibration    21          0.843              1.278              0.690
 Vibration    22          0.883              1.188              0.592
 Vibration    23          0.892              1.168              0.572
 Vibration    24          0.908              1.135              0.540
 Vibration    25          0.957              1.033              0.451

 Optimization completed.
    -- Stationary point found.
 Normal termination of Gaussian 16 at Thu Dec 10 22:25:44 2020.

 ----------------------------------------------------------------------
 # B3LYP/6-311++G(d,p) empiricaldispersion=gd3bj scf=xqc pop=npa geom=c
 heck
 ----------------------------------------------------------------------

 --------------------------------------
 CID_85560416_JID_6284_Energie_neutraal
 --------------------------------------
 Structure from the checkpoint file:  "JID_6284.chk"
 Charge =  0 Multiplicity = 1

 SCF Done:  E(RB3LYP) =  -1123.09125804     A.U. after   17 cycles
 Normal termination of Gaussian 16 at Thu Dec 10 22:31:15 2020.

 ----------------------------------------------------------------------
 # B3LYP/6-311++G(d,p) empiricaldispersion=gd3bj scf=xqc pop=npa geom=c
 heck
 ----------------------------------------------------------------------

 ------------------------------------
 CID_85560416_JID_6284_Energie_kation
 ------------------------------------
 Structure from the checkpoint file:  "JID_6284.chk"
 Charge =  1 Multiplicity = 2

 SCF Done:  E(UB3LYP) =  -1122.81456730     A.U. after   23 cycles
 Normal termination of Gaussian 16 at Thu Dec 10 22:41:53 2020.
 Gaussian 16:  ES64L-G16RevA.03 25-Dec-2016

 ----------------------------------------------------------------------
 # B3LYP/6-311++G(d,p) empiricaldispersion=gd3bj scf=xqc pop=npa geom=c
 heck
 ----------------------------------------------------------------------

 -----------------------------------
 CID_85560416_JID_6284_Energie_anion
 -----------------------------------
 Structure from the checkpoint file:  "JID_6284.chk"
 Charge = -1 Multiplicity = 2

                         Standard orientation:
 ---------------------------------------------------------------------
 Center     Atomic      Atomic             Coordinates (Angstroms)
 Number     Number       Type             X           Y           Z
 ---------------------------------------------------------------------
      1          6           0        1.378391   -1.336883    1.750222
      2         16           0        1.418516   -1.740921   -0.010469
      3          8           0        2.811011   -1.723973   -0.455290
      4          8           0        0.565550   -2.913968   -0.203904
      5          7           0        0.666311   -0.439670   -0.767869
      6          6           0        1.450579    0.788579   -1.085680
      7          6           0        0.573140    1.972474   -0.605982
      8          6           0       -0.779491    1.328711   -0.398331
      9          6           0       -0.666110   -0.066949   -0.441027
     10          6           0       -1.746472   -0.909353   -0.211519
     11          6           0       -2.993493   -0.325906    0.082933
     12          6           0       -3.121424    1.074511    0.118178
     13          6           0       -2.017738    1.894457   -0.121311
     14          7           0       -4.085540   -1.142008    0.380422
     15          6           0        1.094906    2.594466    0.689754
     16          8           0        2.385852    3.128449    0.428260
     17          1           0        1.791389   -2.190795    2.290842
     18          1           0        0.340572   -1.164663    2.041899
     19          1           0        1.988151   -0.447645    1.919504
     20          1           0        2.428542    0.766887   -0.604329
     21          1           0        1.609580    0.818255   -2.166620
     22          1           0        0.558013    2.757904   -1.369516
     23          1           0       -1.629740   -1.985373   -0.265062
     24          1           0       -4.090160    1.515910    0.336549
     25          1           0       -2.133545    2.974922   -0.088277
     26          1           0       -4.028516   -2.081340    0.007129
     27          1           0       -4.990901   -0.725358    0.203597
     28          1           0        0.393144    3.373001    1.027253
     29          1           0        1.127699    1.820881    1.474869
     30          1           0        2.741080    3.485190    1.255854
 ---------------------------------------------------------------------

 SCF Done:  E(UB3LYP) =  -1123.08522888     A.U. after   33 cycles
 SCF Done:  E(UB3LYP) =  -1123.08522888     a.u. after    1 cycles

 The electronic state is 2-A.
 Alpha  occ. eigenvalues --  -88.98009 -19.03301 -19.03215 -19.02979 -14.26840
 Alpha  occ. eigenvalues --  -14.22789 -10.12978 -10.12913 -10.12544 -10.12405
 Alpha  occ. eigenvalues --  -10.12009 -10.09942 -10.09043 -10.08451 -10.08002
 Alpha  occ. eigenvalues --  -10.07770  -8.04157  -6.00455  -6.00396  -6.00239
 Alpha  occ. eigenvalues --   -1.03696  -0.93139  -0.92721  -0.87734  -0.83145
 Alpha  occ. eigenvalues --   -0.75313  -0.71390  -0.68494  -0.65790  -0.63274
 Alpha  occ. eigenvalues --   -0.60383  -0.55643  -0.53154  -0.49783  -0.49059
 Alpha  occ. eigenvalues --   -0.45483  -0.43230  -0.42784  -0.41821  -0.40264
 Alpha  occ. eigenvalues --   -0.39721  -0.38460  -0.37839  -0.36059  -0.35723
 Alpha  occ. eigenvalues --   -0.34577  -0.34422  -0.33732  -0.32537  -0.30948
 Alpha  occ. eigenvalues --   -0.30447  -0.29437  -0.27311  -0.26617  -0.25843
 Alpha  occ. eigenvalues --   -0.24901  -0.24381  -0.23899  -0.22519  -0.22123
 Alpha  occ. eigenvalues --   -0.19979  -0.18708  -0.14593  -0.11532   0.03690
 Alpha virt. eigenvalues --    0.05026   0.06578   0.07119   0.07536   0.08211
 Alpha virt. eigenvalues --    0.08741   0.08961   0.09951   0.10426   0.11093
 Alpha virt. eigenvalues --    0.11475   0.12486   0.12635   0.13137   0.13850

  Beta  occ. eigenvalues --  -88.98005 -19.03296 -19.03209 -19.02930 -14.26835
  Beta  occ. eigenvalues --  -14.22739 -10.12973 -10.12912 -10.12508 -10.12400
  Beta  occ. eigenvalues --  -10.11971 -10.09941 -10.09036 -10.08451 -10.07995
  Beta  occ. eigenvalues --  -10.07751  -8.04152  -6.00451  -6.00393  -6.00234
  Beta  occ. eigenvalues --   -1.03683  -0.93035  -0.92708  -0.87724  -0.83086
  Beta  occ. eigenvalues --   -0.75288  -0.71359  -0.68449  -0.65764  -0.63234
  Beta  occ. eigenvalues --   -0.60324  -0.55610  -0.53108  -0.49737  -0.49024
  Beta  occ. eigenvalues --   -0.45454  -0.43109  -0.42743  -0.41798  -0.40228
  Beta  occ. eigenvalues --   -0.39686  -0.38424  -0.37800  -0.36023  -0.35697
  Beta  occ. eigenvalues --   -0.34555  -0.34391  -0.33699  -0.32509  -0.30920
  Beta  occ. eigenvalues --   -0.30426  -0.29408  -0.27295  -0.26594  -0.25820
  Beta  occ. eigenvalues --   -0.24844  -0.24361  -0.23884  -0.22506  -0.22108
  Beta  occ. eigenvalues --   -0.19954  -0.18658  -0.14575  -0.11501
  Beta virt. eigenvalues --    0.06190   0.06524   0.06902   0.07517   0.08140
  Beta virt. eigenvalues --    0.08326   0.08917   0.09465   0.10324   0.10757
  Beta virt. eigenvalues --    0.11513   0.11919   0.12492   0.12768   0.13370

 Mulliken charges and spin densities:
               1          2
     1  C    0.302517  -0.814872
     2  S   -0.188987   0.287061
     3  O   -0.134569  -0.003864
     4  O   -0.162449   0.004827
     5  N    0.081779  -0.012397
     6  C   -0.635042   0.079250
     7  C    0.921339  -0.531775
     8  C    0.590231  -0.324354
     9  C    0.458465  -0.360289
    10  C   -0.693709   0.271408
    11  C    0.388602  -0.803590
    12  C   -0.034143   0.067931
    13  C   -1.533462   0.968118
    14  N   -0.238243  -0.041506
    15  C    1.147953  -1.762440
    16  O   -0.315119   0.066069
    17  H    0.059863   0.160228
    18  H    0.049883   0.161892
    19  H   -0.255974   0.482391
    20  H    0.312890  -0.069440
    21  H    0.121538   0.061973
    22  H    0.218023   0.013027
    23  H    0.151262   0.066143
    24  H   -0.555814   0.718312
    25  H   -0.056810   0.215326
    26  H   -0.050927   0.290606
    27  H   -0.262184   0.516073
    28  H   -0.298291   0.477704
    29  H   -0.122823   0.277740
    30  H   -0.265798   0.538451
 Sum of Mulliken charges =  -1.00000   1.00000

 Dipole moment (field-independent basis, Debye):
    X=              1.0214    Y=             -2.0055    Z=             -3.0526  Tot=              3.7926
 Quadrupole moment (field-independent basis, Debye-Ang):
   XX=           -186.8143   YY=           -157.9636   ZZ=           -132.2473
   XY=            -10.2391   XZ=             -1.7629   YZ=            -13.2507

 Summary of Natural Population Analysis:

                                       Natural Population
                Natural  -----------------------------------------------
    Atom  No    Charge         Core      Valence    Rydberg      Total
 -----------------------------------------------------------------------
      C    1   -0.39476      0.99960     2.38742    0.00774     3.39476
      S    2    1.10842      4.99928     1.79034    0.10196     6.89158
      O    3   -0.46197      0.99990     3.45629    0.00578     4.46197
      O    4   -0.46270      0.99990     3.45704    0.00576     4.46270
      N    5   -0.36040      0.99965     2.84800    0.01275     3.86040
      C    6   -0.07553      0.99961     2.06601    0.00991     3.07553
      C    7   -0.12752      0.99956     2.11598    0.01197     3.12752
      C    8   -0.04792      0.99945     2.03769    0.01078     3.04792
      C    9    0.08805      0.99943     1.89973    0.01279     2.91195
      C   10   -0.14418      0.99947     2.13496    0.00975     3.14418
      C   11    0.09399      0.99951     1.89506    0.01144     2.90601
      C   12   -0.12968      0.99953     2.12008    0.01007     3.12968
      C   13   -0.08326      0.99952     2.07422    0.00952     3.08326
      N   14   -0.39260      0.99971     2.88293    0.00995     3.89260
      C   15   -0.00303      0.99956     1.99057    0.01290     3.00303
      O   16   -0.37366      0.99989     3.36719    0.00658     4.37366
      H   17    0.11715      0.00000     0.38194    0.00091     0.38285
      H   18    0.11942      0.00000     0.37947    0.00112     0.38058
      H   19    0.11787      0.00000     0.38071    0.00142     0.38213
      H   20    0.11453      0.00000     0.38404    0.00143     0.38547
      H   21    0.09749      0.00000     0.40149    0.00102     0.40251
      H   22    0.10726      0.00000     0.39159    0.00115     0.39274
      H   23    0.11667      0.00000     0.38196    0.00137     0.38333
      H   24    0.10220      0.00000     0.39658    0.00122     0.39780
      H   25    0.10241      0.00000     0.39656    0.00103     0.39759
      H   26    0.18560      0.00000     0.31252    0.00188     0.31440
      H   27    0.18938      0.00000     0.30490    0.00571     0.31062
      H   28    0.08193      0.00000     0.41620    0.00187     0.41807
      H   29    0.07720      0.00000     0.42004    0.00277     0.42280
      H   30    0.23763      0.00000     0.25087    0.01149     0.26237
 =======================================================================
   * Total *    0.00000     19.99359    43.72237    0.28405    64.00000

 Normal termination of Gaussian 16 at Thu Dec 10 22:55:14 2020.
