 Gaussian 16, Revision A.03,

 -----------------------------------------------------------
 # opt freq B3LYP/6-31G(d) empiricaldispersion=gd3bj scf=xqc
 -----------------------------------------------------------

 ------------------------------
 CID_82665140_JID_8128_neutraal
 ------------------------------
 Symbolic Z-matrix:
 Charge =  0 Multiplicity = 1

 SCF Done:  E(RB3LYP) =  -836.409367954     A.U. after   14 cycles
 SCF Done:  E(RB3LYP) =  -836.416329088     A.U. after   12 cycles
 SCF Done:  E(RB3LYP) =  -836.416926246     A.U. after   11 cycles
 SCF Done:  E(RB3LYP) =  -836.416928308     A.U. after   11 cycles
 SCF Done:  E(RB3LYP) =  -836.416954569     A.U. after   11 cycles
 SCF Done:  E(RB3LYP) =  -836.417039872     A.U. after   10 cycles
 SCF Done:  E(RB3LYP) =  -836.417044539     A.U. after    9 cycles
 SCF Done:  E(RB3LYP) =  -836.417048246     A.U. after    8 cycles
 SCF Done:  E(RB3LYP) =  -836.417048858     A.U. after    8 cycles
 SCF Done:  E(RB3LYP) =  -836.417049189     A.U. after    7 cycles
 SCF Done:  E(RB3LYP) =  -836.417049554     A.U. after    7 cycles
 SCF Done:  E(RB3LYP) =  -836.417049710     A.U. after    7 cycles
 Optimization completed.
    -- Stationary point found.
 Normal termination of Gaussian 16 at Fri Dec 11 18:47:22 2020.

 --------------------------------------------------------------------
 #N Geom=AllCheck Guess=TCheck SCRF=Check GenChk RB3LYP/6-31G(d) Freq
 --------------------------------------------------------------------

 Structure from the checkpoint file:  "JID_8128.chk"
 ------------------------------
 CID_82665140_JID_8128_neutraal
 ------------------------------
 Charge =  0 Multiplicity = 1

 SCF Done:  E(RB3LYP) =  -836.417049710     A.U. after    1 cycles

  Exact polarizability: 209.815  11.468 168.157   3.216  -2.896  92.997
 Approx polarizability: 284.304  20.462 286.259   1.132  -5.132 142.702

                      1                      2                      3
                      A                      A                      A
 Frequencies --     41.7589                60.4193                78.9643
 Red. masses --      4.0871                 3.6180                 4.3411
 Frc consts  --      0.0042                 0.0078                 0.0159
 IR Inten    --      0.0383                 0.6188                 0.5339

                      4                      5                      6
                      A                      A                      A
 Frequencies --    103.0789               143.9889               153.9467
 Red. masses --      3.8059                 1.3281                 1.7644
 Frc consts  --      0.0238                 0.0162                 0.0246
 IR Inten    --      6.2543                 0.9983                 0.3568

                      7                      8                      9
                      A                      A                      A
 Frequencies --    175.0441               180.6680               210.1858
 Red. masses --      2.1404                 2.2383                 2.3520
 Frc consts  --      0.0386                 0.0430                 0.0612
 IR Inten    --      3.2936                 2.1945                 0.2094

                     10                     11                     12
                      A                      A                      A
 Frequencies --    235.1427               243.1647               254.4315
 Red. masses --      4.0507                 4.7837                 2.8109
 Frc consts  --      0.1320                 0.1667                 0.1072
 IR Inten    --      1.8448                 0.6670                 1.1977

                     13                     14                     15
                      A                      A                      A
 Frequencies --    267.9672               322.5952               325.6184
 Red. masses --      2.7375                 5.7449                 3.4557
 Frc consts  --      0.1158                 0.3522                 0.2159
 IR Inten    --      4.1194                 4.5888                 3.1945

                     16                     17                     18
                      A                      A                      A
 Frequencies --    378.1641               391.6177               417.3541
 Red. masses --      2.3369                 4.9405                 4.3909
 Frc consts  --      0.1969                 0.4464                 0.4506
 IR Inten    --      6.1725                19.3457                 2.0883

                     19                     20                     21
                      A                      A                      A
 Frequencies --    459.8245               494.9897               513.2895
 Red. masses --      4.9544                 2.9949                 1.3176
 Frc consts  --      0.6172                 0.4323                 0.2045
 IR Inten    --      4.7673                 0.8807                76.9048

                     22                     23                     24
                      A                      A                      A
 Frequencies --    525.7512               565.6811               583.2180
 Red. masses --      3.0122                 6.5844                 2.0688
 Frc consts  --      0.4906                 1.2414                 0.4146
 IR Inten    --      2.6229                 5.9026                 2.9958

                     25                     26                     27
                      A                      A                      A
 Frequencies --    589.1690               616.0170               650.6445
 Red. masses --      3.8163                 5.0751                 3.0074
 Frc consts  --      0.7805                 1.1347                 0.7501
 IR Inten    --      1.7384                 2.9666                 1.2906

                     28                     29                     30
                      A                      A                      A
 Frequencies --    695.1266               738.1557               745.0690
 Red. masses --      4.3701                 2.5477                 3.6165
 Frc consts  --      1.2441                 0.8179                 1.1828
 IR Inten    --     25.8316                60.1650                85.4896

                     31                     32                     33
                      A                      A                      A
 Frequencies --    762.3258               804.8110               811.7057
 Red. masses --      3.1585                 1.5459                 9.5613
 Frc consts  --      1.0815                 0.5900                 3.7116
 IR Inten    --     12.6344                 6.7232                 9.7048

                     34                     35                     36
                      A                      A                      A
 Frequencies --    835.6126               862.5460               901.9114
 Red. masses --      3.4119                 3.6512                 2.2975
 Frc consts  --      1.4036                 1.6005                 1.1011
 IR Inten    --      2.5177                 6.5517                 6.1299

                     37                     38                     39
                      A                      A                      A
 Frequencies --    948.5920               968.0642              1003.6685
 Red. masses --      2.2607                 3.7135                 3.0610
 Frc consts  --      1.1986                 2.0504                 1.8168
 IR Inten    --     25.9500                 1.5378                 7.0464

                     40                     41                     42
                      A                      A                      A
 Frequencies --   1033.7611              1043.7458              1062.8009
 Red. masses --      2.6105                 1.9613                 1.6122
 Frc consts  --      1.6437                 1.2589                 1.0729
 IR Inten    --     16.2848                10.7905                 3.8207

                     43                     44                     45
                      A                      A                      A
 Frequencies --   1073.7099              1080.8754              1102.0286
 Red. masses --      4.9535                 2.8950                 1.8750
 Frc consts  --      3.3646                 1.9927                 1.3416
 IR Inten    --     25.7655                 6.9566                58.0065

                     46                     47                     48
                      A                      A                      A
 Frequencies --   1138.3651              1144.0383              1150.4167
 Red. masses --      2.8849                 5.1422                 3.1184
 Frc consts  --      2.2026                 3.9653                 2.4316
 IR Inten    --     26.6694               124.0951                34.8496

                     49                     50                     51
                      A                      A                      A
 Frequencies --   1156.0716              1175.0406              1187.6572
 Red. masses --      3.9058                 2.6292                 1.2659
 Frc consts  --      3.0756                 2.1388                 1.0520
 IR Inten    --     25.3911                 2.9840                 0.6408

                     52                     53                     54
                      A                      A                      A
 Frequencies --   1219.6757              1242.1140              1246.6670
 Red. masses --      1.5626                 1.1693                 1.5048
 Frc consts  --      1.3695                 1.0629                 1.3780
 IR Inten    --     10.8073                28.6390                 4.3270

                     55                     56                     57
                      A                      A                      A
 Frequencies --   1300.8227              1323.0932              1336.0933
 Red. masses --      1.8800                 1.6588                 1.6724
 Frc consts  --      1.8743                 1.7109                 1.7590
 IR Inten    --     47.0355                80.1139                27.4784

                     58                     59                     60
                      A                      A                      A
 Frequencies --   1347.7138              1353.9738              1385.5156
 Red. masses --      3.7982                 1.5917                 1.4035
 Frc consts  --      4.0647                 1.7193                 1.5874
 IR Inten    --      5.7227                49.3733                11.2156

                     61                     62                     63
                      A                      A                      A
 Frequencies --   1397.0283              1400.7735              1412.4469
 Red. masses --      2.0115                 1.5712                 1.3347
 Frc consts  --      2.3131                 1.8164                 1.5689
 IR Inten    --    184.7070                88.3196                 3.6324

                     64                     65                     66
                      A                      A                      A
 Frequencies --   1425.5304              1429.9786              1437.8645
 Red. masses --      3.6383                 1.5571                 1.3976
 Frc consts  --      4.3561                 1.8760                 1.7025
 IR Inten    --    172.1976                 6.5974                 9.5862

                     67                     68                     69
                      A                      A                      A
 Frequencies --   1447.4277              1483.9541              1494.8233
 Red. masses --      2.7139                 1.6246                 1.1546
 Frc consts  --      3.3499                 2.1078                 1.5201
 IR Inten    --      3.8087                73.5336                14.2382

                     70                     71                     72
                      A                      A                      A
 Frequencies --   1500.7983              1505.8213              1510.9620
 Red. masses --      1.1167                 1.1917                 1.0502
 Frc consts  --      1.4819                 1.5921                 1.4127
 IR Inten    --      6.0032                 6.1456                 6.4568

                     73                     74                     75
                      A                      A                      A
 Frequencies --   1515.2714              1519.3070              1525.9397
 Red. masses --      1.1169                 1.1084                 1.0817
 Frc consts  --      1.5109                 1.5075                 1.4839
 IR Inten    --     27.1084                21.7664                17.9286

                     76                     77                     78
                      A                      A                      A
 Frequencies --   1526.5128              1546.5215              1602.9641
 Red. masses --      1.0948                 2.6966                 7.6164
 Frc consts  --      1.5030                 3.8000                11.5305
 IR Inten    --     55.9590               182.9949               138.3199

                     79                     80                     81
                      A                      A                      A
 Frequencies --   1609.1344              1667.6281              2968.3579
 Red. masses --      6.5119                 6.8200                 1.0713
 Frc consts  --      9.9344                11.1746                 5.5616
 IR Inten    --     89.9449               213.9627                52.7938

                     82                     83                     84
                      A                      A                      A
 Frequencies --   3019.8404              3038.2917              3041.7935
 Red. masses --      1.0812                 1.0653                 1.0625
 Frc consts  --      5.8093                 5.7941                 5.7922
 IR Inten    --      9.6512                52.3488                58.9697

                     85                     86                     87
                      A                      A                      A
 Frequencies --   3057.5191              3064.0895              3094.3939
 Red. masses --      1.0480                 1.0298                 1.1020
 Frc consts  --      5.7725                 5.6965                 6.2169
 IR Inten    --     12.5573                56.2059                40.0368

                     88                     89                     90
                      A                      A                      A
 Frequencies --   3100.4366              3112.0884              3129.7983
 Red. masses --      1.0940                 1.1001                 1.0865
 Frc consts  --      6.1963                 6.2774                 6.2705
 IR Inten    --     64.3211                33.9651                12.6067

                     91                     92                     93
                      A                      A                      A
 Frequencies --   3133.8106              3167.0671              3169.5337
 Red. masses --      1.1070                 1.1062                 1.1027
 Frc consts  --      6.4051                 6.5376                 6.5266
 IR Inten    --     29.6120                36.1973                10.0690

                     94                     95                     96
                      A                      A                      A
 Frequencies --   3275.3819              3521.4307              3665.7366
 Red. masses --      1.0970                 1.0734                 1.0804
 Frc consts  --      6.9342                 7.8423                 8.5540
 IR Inten    --      0.7098                 0.5458                88.4397

 - Thermochemistry -
 -------------------
 Temperature   298.150 Kelvin.  Pressure   1.00000 Atm.
 Atom     1 has atomic number  6 and mass  12.00000

 Molecular mass:   248.12733 amu.
 Principal axes and moments of inertia in atomic units:
                           1         2         3
     Eigenvalues --  2006.802847541.471848833.79547
           X            0.99997   0.00704   0.00415
           Y           -0.00701   0.99995  -0.00687
           Z           -0.00420   0.00684   0.99997
 This molecule is an asymmetric top.
 Rotational symmetry number  1.
 Warning -- assumption of classical behavior for rotation
           may cause significant error
 Rotational temperatures (Kelvin)      0.04316     0.01149     0.00980
 Rotational constants (GHZ):           0.89931     0.23931     0.20430
 Zero-point vibrational energy     745780.3 (Joules/Mol)
                                  178.24576 (Kcal/Mol)
 Warning -- explicit consideration of  26 degrees of freedom as
           vibrations may cause significant error
 Vibrational temperatures:     60.08    86.93   113.61   148.31   207.17
          (Kelvin)            221.49   251.85   259.94   302.41   338.32
                              349.86   366.07   385.55   464.14   468.49
                              544.09   563.45   600.48   661.58   712.18
                              738.51   756.44   813.89   839.12   847.68
                              886.31   936.13  1000.13  1062.04  1071.99
                             1096.82  1157.94  1167.86  1202.26  1241.01
                             1297.65  1364.81  1392.83  1444.06  1487.35
                             1501.72  1529.13  1544.83  1555.14  1585.57
                             1637.85  1646.02  1655.19  1663.33  1690.62
                             1708.77  1754.84  1787.12  1793.68  1871.59
                             1903.64  1922.34  1939.06  1948.07  1993.45
                             2010.01  2015.40  2032.20  2051.02  2057.42
                             2068.77  2082.53  2135.08  2150.72  2159.31
                             2166.54  2173.94  2180.14  2185.94  2195.49
                             2196.31  2225.10  2306.31  2315.19  2399.34
                             4270.80  4344.88  4371.42  4376.46  4399.09
                             4408.54  4452.14  4460.84  4477.60  4503.08
                             4508.85  4556.70  4560.25  4712.54  5066.55
                             5274.18

 Zero-point correction=                           0.284053 (Hartree/Particle)
 Thermal correction to Energy=                    0.299809
 Thermal correction to Enthalpy=                  0.300753
 Thermal correction to Gibbs Free Energy=         0.241086
 Sum of electronic and zero-point Energies=           -836.132997
 Sum of electronic and thermal Energies=              -836.117241
 Sum of electronic and thermal Enthalpies=            -836.116296
 Sum of electronic and thermal Free Energies=         -836.175964

                     E (Thermal)             CV                S
                      KCal/Mol        Cal/Mol-Kelvin    Cal/Mol-Kelvin
 Total                  188.133             61.448            125.581
 Electronic               0.000              0.000              0.000
 Translational            0.889              2.981             42.427
 Rotational               0.889              2.981             33.258
 Vibrational            186.356             55.487             49.896
 Vibration     1          0.594              1.980              5.174
 Vibration     2          0.597              1.973              4.443
 Vibration     3          0.600              1.963              3.916
 Vibration     4          0.605              1.947              3.395
 Vibration     5          0.616              1.909              2.750
 Vibration     6          0.619              1.898              2.623
 Vibration     7          0.627              1.873              2.381
 Vibration     8          0.630              1.866              2.321
 Vibration     9          0.642              1.825              2.042
 Vibration    10          0.655              1.787              1.839
 Vibration    11          0.659              1.774              1.780
 Vibration    12          0.665              1.755              1.700
 Vibration    13          0.673              1.732              1.609
 Vibration    14          0.708              1.630              1.297
 Vibration    15          0.710              1.624              1.282
 Vibration    16          0.748              1.517              1.046
 Vibration    17          0.759              1.488              0.994
 Vibration    18          0.780              1.433              0.901
 Vibration    19          0.818              1.339              0.767
 Vibration    20          0.851              1.261              0.671
 Vibration    21          0.868              1.221              0.626
 Vibration    22          0.881              1.193              0.597
 Vibration    23          0.922              1.106              0.513
 Vibration    24          0.940              1.068              0.479
 Vibration    25          0.946              1.055              0.469
 Vibration    26          0.976              0.998              0.423

 Optimization completed.
    -- Stationary point found.
 Normal termination of Gaussian 16 at Fri Dec 11 19:03:12 2020.

 ----------------------------------------------------------------------
 # B3LYP/6-311++G(d,p) empiricaldispersion=gd3bj scf=xqc pop=npa geom=c
 heck
 ----------------------------------------------------------------------

 --------------------------------------
 CID_82665140_JID_8128_Energie_neutraal
 --------------------------------------
 Structure from the checkpoint file:  "JID_8128.chk"
 Charge =  0 Multiplicity = 1

 SCF Done:  E(RB3LYP) =  -836.647341942     A.U. after   15 cycles
 Normal termination of Gaussian 16 at Fri Dec 11 19:10:32 2020.

 ----------------------------------------------------------------------
 # B3LYP/6-311++G(d,p) empiricaldispersion=gd3bj scf=xqc pop=npa geom=c
 heck
 ----------------------------------------------------------------------

 ------------------------------------
 CID_82665140_JID_8128_Energie_kation
 ------------------------------------
 Structure from the checkpoint file:  "JID_8128.chk"
 Charge =  1 Multiplicity = 2

 SCF Done:  E(UB3LYP) =  -836.371452183     A.U. after   22 cycles
 Normal termination of Gaussian 16 at Fri Dec 11 19:26:04 2020.
 Gaussian 16:  ES64L-G16RevA.03 25-Dec-2016

 ----------------------------------------------------------------------
 # B3LYP/6-311++G(d,p) empiricaldispersion=gd3bj scf=xqc pop=npa geom=c
 heck
 ----------------------------------------------------------------------

 -----------------------------------
 CID_82665140_JID_8128_Energie_anion
 -----------------------------------
 Structure from the checkpoint file:  "JID_8128.chk"
 Charge = -1 Multiplicity = 2

                         Standard orientation:
 ---------------------------------------------------------------------
 Center     Atomic      Atomic             Coordinates (Angstroms)
 Number     Number       Type             X           Y           Z
 ---------------------------------------------------------------------
      1          6           0       -0.109499   -2.102212   -0.000147
      2          6           0       -0.966773   -0.865246    0.017149
      3          6           0       -0.489871    0.458282    0.004875
      4          6           0        0.770680    1.191893    0.006577
      5          6           0        0.435578    2.520114   -0.000908
      6          7           0       -0.941389    2.676057   -0.010975
      7          6           0       -1.527815    1.442585   -0.004132
      8          7           0       -2.838817    1.226598   -0.006266
      9          6           0       -3.140291   -0.071496    0.004333
     10          7           0       -2.287953   -1.106480    0.018876
     11          8           0       -4.461288   -0.329657    0.002944
     12          6           0       -4.858102   -1.701456    0.014169
     13          6           0        2.197506    0.724100    0.005010
     14          6           0        2.549412   -0.105294   -1.245340
     15          8           0        3.902558   -0.540861   -1.212214
     16          6           0        4.162403   -1.334823   -0.061053
     17          6           0        3.904133   -0.528788    1.211660
     18          7           0        2.559531    0.050495    1.265011
     19          1           0       -0.668883   -2.930287    0.440321
     20          1           0        0.833774   -1.974290    0.533701
     21          1           0        0.138652   -2.379806   -1.032511
     22          1           0        1.087486    3.381943    0.003837
     23          1           0       -1.454691    3.544318   -0.011275
     24          1           0       -4.481969   -2.228749   -0.867528
     25          1           0       -4.489658   -2.211816    0.908984
     26          1           0       -5.949190   -1.681800    0.009309
     27          1           0        2.834602    1.618707   -0.043921
     28          1           0        1.879670   -0.972521   -1.338067
     29          1           0        2.442177    0.507225   -2.145568
     30          1           0        5.209048   -1.648104   -0.133193
     31          1           0        3.527528   -2.239072   -0.074466
     32          1           0        4.627386    0.296747    1.251057
     33          1           0        4.058354   -1.147192    2.103517
     34          1           0        1.871794   -0.663798    1.490278
 ---------------------------------------------------------------------

 SCF Done:  E(UB3LYP) =  -836.639930311     A.U. after   33 cycles
 SCF Done:  E(UB3LYP) =  -836.639930311     a.u. after    1 cycles

 The electronic state is 2-A.
 Alpha  occ. eigenvalues --  -19.03845 -19.02223 -14.24176 -14.19428 -14.16807
 Alpha  occ. eigenvalues --  -14.16619 -10.15303 -10.11546 -10.11163 -10.11118
 Alpha  occ. eigenvalues --  -10.10629 -10.09777 -10.09107 -10.07996 -10.07363
 Alpha  occ. eigenvalues --  -10.05371 -10.04846 -10.04824  -0.96758  -0.93788
 Alpha  occ. eigenvalues --   -0.87891  -0.82413  -0.80250  -0.75753  -0.69100
 Alpha  occ. eigenvalues --   -0.65814  -0.63899  -0.61337  -0.58965  -0.57347
 Alpha  occ. eigenvalues --   -0.55089  -0.51594  -0.49643  -0.48093  -0.45866
 Alpha  occ. eigenvalues --   -0.44119  -0.41005  -0.39125  -0.37928  -0.36674
 Alpha  occ. eigenvalues --   -0.36502  -0.36111  -0.35632  -0.34944  -0.34328
 Alpha  occ. eigenvalues --   -0.32505  -0.31890  -0.30429  -0.30113  -0.28878
 Alpha  occ. eigenvalues --   -0.28113  -0.27335  -0.26880  -0.26654  -0.25548
 Alpha  occ. eigenvalues --   -0.24462  -0.23558  -0.21947  -0.19971  -0.18466
 Alpha  occ. eigenvalues --   -0.18103  -0.17394  -0.13344  -0.12677  -0.11284
 Alpha  occ. eigenvalues --   -0.09346   0.04901
 Alpha virt. eigenvalues --    0.06486   0.07513   0.07635   0.08622   0.09047
 Alpha virt. eigenvalues --    0.09596   0.10713   0.10818   0.11510   0.11644
 Alpha virt. eigenvalues --    0.12641   0.12843   0.13151   0.13302   0.13566

  Beta  occ. eigenvalues --  -19.03843 -19.02220 -14.24205 -14.19426 -14.16577
  Beta  occ. eigenvalues --  -14.16575 -10.15261 -10.11542 -10.11144 -10.11058
  Beta  occ. eigenvalues --  -10.10622 -10.09779 -10.09089 -10.07832 -10.06868
  Beta  occ. eigenvalues --  -10.05322 -10.04895 -10.04855  -0.96710  -0.93777
  Beta  occ. eigenvalues --   -0.87756  -0.82156  -0.80235  -0.75326  -0.69028
  Beta  occ. eigenvalues --   -0.65662  -0.63707  -0.61191  -0.58848  -0.57273
  Beta  occ. eigenvalues --   -0.55017  -0.51284  -0.49561  -0.48012  -0.45800
  Beta  occ. eigenvalues --   -0.43946  -0.40866  -0.39086  -0.37889  -0.36525
  Beta  occ. eigenvalues --   -0.36388  -0.36048  -0.35541  -0.34835  -0.34259
  Beta  occ. eigenvalues --   -0.32035  -0.31812  -0.30316  -0.29713  -0.28833
  Beta  occ. eigenvalues --   -0.27977  -0.27235  -0.26744  -0.26392  -0.25427
  Beta  occ. eigenvalues --   -0.24432  -0.23498  -0.21915  -0.19363  -0.18261
  Beta  occ. eigenvalues --   -0.17853  -0.16680  -0.13010  -0.12508  -0.11241
  Beta  occ. eigenvalues --   -0.08334
  Beta virt. eigenvalues --    0.07221   0.07570   0.07652   0.08825   0.09370
  Beta virt. eigenvalues --    0.09694   0.09824   0.10741   0.10898   0.11589
  Beta virt. eigenvalues --    0.11799   0.12674   0.13045   0.13189   0.13570

 Mulliken charges and spin densities:
               1          2
     1  C    0.262039  -0.539074
     2  C   -0.615717   0.387898
     3  C    0.141985  -0.016041
     4  C    0.573672  -0.106440
     5  C   -0.352171   0.215150
     6  N   -0.178429  -0.030413
     7  C    0.201338  -0.011751
     8  N   -0.349255   0.117988
     9  C    0.053786   0.060815
    10  N   -0.125163   0.054046
    11  O   -0.135029   0.002391
    12  C   -0.147714  -0.045173
    13  C   -0.761183   0.079922
    14  C   -0.567103  -0.138509
    15  O   -0.122872   0.023070
    16  C    0.202158  -0.444906
    17  C    0.277982  -0.518133
    18  N   -0.151605   0.049697
    19  H    0.150913   0.005231
    20  H    0.174644  -0.077099
    21  H   -0.236988   0.431740
    22  H    0.097299   0.030447
    23  H    0.281280   0.010266
    24  H    0.116616   0.046881
    25  H    0.162569  -0.000807
    26  H    0.120654   0.004916
    27  H    0.150664   0.013106
    28  H    0.147316   0.042264
    29  H    0.187077  -0.020815
    30  H   -0.556457   0.733684
    31  H    0.104752   0.013783
    32  H    0.174327  -0.029118
    33  H   -0.464546   0.627261
    34  H    0.183160   0.027722
 Sum of Mulliken charges =  -1.00000   1.00000

 Dipole moment (field-independent basis, Debye):
    X=             -3.0692    Y=              2.6681    Z=             -0.7897  Tot=              4.1427
 Quadrupole moment (field-independent basis, Debye-Ang):
   XX=           -188.7513   YY=           -126.2660   ZZ=           -129.6648
   XY=             18.2202   XZ=             -5.1053   YZ=             -3.2019

 Summary of Natural Population Analysis:

                                       Natural Population
                Natural  -----------------------------------------------
    Atom  No    Charge         Core      Valence    Rydberg      Total
 -----------------------------------------------------------------------
      C    1   -0.30446      0.99964     2.29856    0.00626     3.30446
      C    2    0.21650      0.99955     1.77270    0.01126     2.78350
      C    3   -0.09930      0.99942     2.09239    0.00748     3.09930
      C    4   -0.04891      0.99949     2.03896    0.01046     3.04891
      C    5    0.02687      0.99952     1.96247    0.01114     2.97313
      N    6   -0.28516      0.99965     2.77608    0.00943     3.78516
      C    7    0.21303      0.99952     1.77203    0.01542     2.78697
      N    8   -0.25348      0.99961     2.74306    0.01080     3.75348
      C    9    0.36366      0.99955     1.61689    0.01989     2.63634
      N   10   -0.29858      0.99964     2.78995    0.00899     3.79858
      O   11   -0.27479      0.99985     3.26575    0.00919     4.27479
      C   12   -0.09993      0.99960     2.09176    0.00857     3.09993
      C   13   -0.02720      0.99955     2.01528    0.01236     3.02720
      C   14   -0.01560      0.99956     2.00332    0.01272     3.01560
      O   15   -0.30243      0.99989     3.29327    0.00926     4.30243
      C   16   -0.02100      0.99958     2.00759    0.01383     3.02100
      C   17   -0.10368      0.99963     2.09182    0.01223     3.10368
      N   18   -0.33618      0.99975     2.82441    0.01202     3.83618
      H   19    0.10703      0.00000     0.39183    0.00114     0.39297
      H   20    0.09079      0.00000     0.40745    0.00176     0.40921
      H   21    0.11017      0.00000     0.38780    0.00203     0.38983
      H   22    0.09279      0.00000     0.40638    0.00082     0.40721
      H   23    0.19712      0.00000     0.30066    0.00222     0.30288
      H   24    0.08848      0.00000     0.41001    0.00151     0.41152
      H   25    0.08770      0.00000     0.41104    0.00127     0.41230
      H   26    0.08137      0.00000     0.41774    0.00089     0.41863
      H   27    0.09263      0.00000     0.40551    0.00186     0.40737
      H   28    0.08354      0.00000     0.41507    0.00139     0.41646
      H   29    0.09073      0.00000     0.40828    0.00099     0.40927
      H   30    0.09094      0.00000     0.40736    0.00170     0.40906
      H   31    0.07652      0.00000     0.42178    0.00170     0.42348
      H   32    0.08910      0.00000     0.40966    0.00124     0.41090
      H   33    0.09780      0.00000     0.40091    0.00130     0.40220
      H   34    0.17393      0.00000     0.32340    0.00267     0.32607
 =======================================================================
   * Total *   -0.00000     17.99300    47.78118    0.22581    66.00000

 Normal termination of Gaussian 16 at Fri Dec 11 19:49:25 2020.
