 Gaussian 16, Revision A.03,

 -----------------------------------------------------------
 # opt freq B3LYP/6-31G(d) empiricaldispersion=gd3bj scf=xqc
 -----------------------------------------------------------

 -------------------------------
 CID_105099434_JID_4238_neutraal
 -------------------------------
 Symbolic Z-matrix:
 Charge =  0 Multiplicity = 1

 SCF Done:  E(RB3LYP) =  -656.913741642     A.U. after   14 cycles
 SCF Done:  E(RB3LYP) =  -656.916572701     A.U. after   11 cycles
 SCF Done:  E(RB3LYP) =  -656.915651674     A.U. after   13 cycles
 SCF Done:  E(RB3LYP) =  -656.917282117     A.U. after   12 cycles
 SCF Done:  E(RB3LYP) =  -656.917667029     A.U. after   12 cycles
 SCF Done:  E(RB3LYP) =  -656.917956258     A.U. after   14 cycles
 SCF Done:  E(RB3LYP) =  -656.918461217     A.U. after   12 cycles
 SCF Done:  E(RB3LYP) =  -656.918753310     A.U. after   13 cycles
 SCF Done:  E(RB3LYP) =  -656.918810032     A.U. after   11 cycles
 SCF Done:  E(RB3LYP) =  -656.918853170     A.U. after   10 cycles
 SCF Done:  E(RB3LYP) =  -656.924977774     A.U. after   10 cycles
 SCF Done:  E(RB3LYP) =  -656.925010625     A.U. after   11 cycles
 SCF Done:  E(RB3LYP) =  -656.925014224     A.U. after   10 cycles
 SCF Done:  E(RB3LYP) =  -656.925015383     A.U. after    8 cycles
 SCF Done:  E(RB3LYP) =  -656.925015456     A.U. after    8 cycles
 Optimization completed.
    -- Stationary point found.
 Normal termination of Gaussian 16 at Thu Dec 10 09:58:15 2020.

 --------------------------------------------------------------------
 #N Geom=AllCheck Guess=TCheck SCRF=Check GenChk RB3LYP/6-31G(d) Freq
 --------------------------------------------------------------------

 Structure from the checkpoint file:  "JID_4238.chk"
 -------------------------------
 CID_105099434_JID_4238_neutraal
 -------------------------------
 Charge =  0 Multiplicity = 1

 SCF Done:  E(RB3LYP) =  -656.925015456     A.U. after    1 cycles

  Exact polarizability: 135.951  -2.470 115.040   1.925   1.980 114.044
 Approx polarizability: 160.225   0.216 161.126   1.847  -2.001 179.302

                      1                      2                      3
                      A                      A                      A
 Frequencies --     14.8281                25.0813                34.3420
 Red. masses --      4.4296                 3.2745                 2.7011
 Frc consts  --      0.0006                 0.0012                 0.0019
 IR Inten    --      0.0563                 0.5461                 1.0468

                      4                      5                      6
                      A                      A                      A
 Frequencies --     48.1740               102.5987               113.1541
 Red. masses --      4.6779                 3.3211                 3.4523
 Frc consts  --      0.0064                 0.0206                 0.0260
 IR Inten    --      1.0456                 1.8002                 2.3081

                      7                      8                      9
                      A                      A                      A
 Frequencies --    135.6485               187.8962               208.4085
 Red. masses --      4.0894                 1.9923                 3.0587
 Frc consts  --      0.0443                 0.0414                 0.0783
 IR Inten    --      2.5002                 3.4634                 6.5512

                     10                     11                     12
                      A                      A                      A
 Frequencies --    237.4275               241.6295               298.2875
 Red. masses --      1.4394                 1.7281                 4.7404
 Frc consts  --      0.0478                 0.0594                 0.2485
 IR Inten    --      0.1871                 0.8511                 0.8578

                     13                     14                     15
                      A                      A                      A
 Frequencies --    304.4484               324.2676               348.9303
 Red. masses --      2.3949                 2.1740                 2.3807
 Frc consts  --      0.1308                 0.1347                 0.1708
 IR Inten    --      4.4753                10.6637                 1.0394

                     16                     17                     18
                      A                      A                      A
 Frequencies --    396.3104               426.7051               466.7871
 Red. masses --      2.1789                 2.5880                 3.0801
 Frc consts  --      0.2016                 0.2776                 0.3954
 IR Inten    --      2.4208                 5.9124                 2.7255

                     19                     20                     21
                      A                      A                      A
 Frequencies --    477.2239               512.4047               562.2768
 Red. masses --      2.7903                 2.6070                 3.2771
 Frc consts  --      0.3744                 0.4033                 0.6104
 IR Inten    --      0.8811                 1.0186                16.0377

                     22                     23                     24
                      A                      A                      A
 Frequencies --    567.0675               687.2913               798.4414
 Red. masses --      1.9753                 2.2656                 2.6022
 Frc consts  --      0.3742                 0.6306                 0.9774
 IR Inten    --      0.8288                 1.5732                 0.3255

                     25                     26                     27
                      A                      A                      A
 Frequencies --    807.1686               825.9183               832.3889
 Red. masses --      1.2779                 1.8093                 1.5609
 Frc consts  --      0.4905                 0.7272                 0.6372
 IR Inten    --      2.4498                11.4305                 0.5839

                     28                     29                     30
                      A                      A                      A
 Frequencies --    854.8407               883.2561               899.9921
 Red. masses --      3.0686                 2.5421                 2.7231
 Frc consts  --      1.3212                 1.1685                 1.2996
 IR Inten    --      3.8325                 4.3878                 6.4923

                     31                     32                     33
                      A                      A                      A
 Frequencies --    928.3954               933.7849               961.2591
 Red. masses --      2.3039                 2.1536                 2.1728
 Frc consts  --      1.1700                 1.1064                 1.1829
 IR Inten    --      2.4190                 6.0100                 9.6245

                     34                     35                     36
                      A                      A                      A
 Frequencies --   1007.3627              1021.9132              1042.3446
 Red. masses --      1.3719                 2.1362                 2.3341
 Frc consts  --      0.8202                 1.3143                 1.4942
 IR Inten    --      8.1558                 1.6619                45.0530

                     37                     38                     39
                      A                      A                      A
 Frequencies --   1046.5628              1067.0366              1089.9245
 Red. masses --      2.1989                 1.6876                 2.0851
 Frc consts  --      1.4190                 1.1321                 1.4594
 IR Inten    --     10.9983                 4.1598                17.8146

                     40                     41                     42
                      A                      A                      A
 Frequencies --   1105.6644              1124.1805              1138.3306
 Red. masses --      2.2780                 3.1314                 2.1832
 Frc consts  --      1.6408                 2.3317                 1.6668
 IR Inten    --     31.5850                42.8333                 8.6307

                     43                     44                     45
                      A                      A                      A
 Frequencies --   1149.4502              1176.5358              1182.6912
 Red. masses --      2.9598                 3.8136                 2.3931
 Frc consts  --      2.3040                 3.1103                 1.9722
 IR Inten    --     55.5371               161.9365                35.2905

                     46                     47                     48
                      A                      A                      A
 Frequencies --   1205.2418              1211.5311              1232.5453
 Red. masses --      1.4136                 1.6047                 1.4936
 Frc consts  --      1.2098                 1.3878                 1.3369
 IR Inten    --     17.0411                16.1596                13.2439

                     49                     50                     51
                      A                      A                      A
 Frequencies --   1258.5348              1280.1707              1294.1419
 Red. masses --      1.2461                 1.2825                 1.4063
 Frc consts  --      1.1629                 1.2383                 1.3876
 IR Inten    --      2.2902                21.3500                 5.6780

                     52                     53                     54
                      A                      A                      A
 Frequencies --   1307.3163              1322.2124              1334.6978
 Red. masses --      1.2258                 1.2250                 1.2899
 Frc consts  --      1.2343                 1.2618                 1.3539
 IR Inten    --      8.1181                26.2079                 2.4375

                     55                     56                     57
                      A                      A                      A
 Frequencies --   1344.4929              1354.7363              1384.3784
 Red. masses --      1.1333                 1.2243                 1.3651
 Frc consts  --      1.2070                 1.3239                 1.5414
 IR Inten    --     11.1459                 5.3904                 0.2455

                     58                     59                     60
                      A                      A                      A
 Frequencies --   1396.0900              1401.8370              1407.6766
 Red. masses --      1.4026                 1.2455                 1.4157
 Frc consts  --      1.6107                 1.4421                 1.6528
 IR Inten    --     11.6067                 6.6965                29.4793

                     61                     62                     63
                      A                      A                      A
 Frequencies --   1417.7373              1419.0380              1439.2174
 Red. masses --      1.7014                 1.3926                 1.2876
 Frc consts  --      2.0148                 1.6522                 1.5714
 IR Inten    --     10.3494                 3.2728                32.8555

                     64                     65                     66
                      A                      A                      A
 Frequencies --   1444.2206              1449.2020              1482.3331
 Red. masses --      1.3283                 1.3693                 1.0868
 Frc consts  --      1.6324                 1.6944                 1.4071
 IR Inten    --     19.5155                 3.9171                12.2183

                     67                     68                     69
                      A                      A                      A
 Frequencies --   1499.6998              1500.3469              1515.0429
 Red. masses --      1.0910                 1.0965                 1.0954
 Frc consts  --      1.4458                 1.4543                 1.4815
 IR Inten    --      2.2476                 6.8106                 8.9290

                     70                     71                     72
                      A                      A                      A
 Frequencies --   1518.7597              1519.9981              1521.4694
 Red. masses --      1.0530                 1.0554                 1.0830
 Frc consts  --      1.4310                 1.4366                 1.4771
 IR Inten    --      3.9503                 1.4791                 0.0431

                     73                     74                     75
                      A                      A                      A
 Frequencies --   1533.3619              1538.2081              1560.4927
 Red. masses --      1.1060                 1.0705                 1.0896
 Frc consts  --      1.5321                 1.4924                 1.5633
 IR Inten    --      2.0131                 0.9126                 7.8814

                     76                     77                     78
                      A                      A                      A
 Frequencies --   1797.9151              2964.4526              2971.4520
 Red. masses --     11.0974                 1.0725                 1.0729
 Frc consts  --     21.1353                 5.5533                 5.5813
 IR Inten    --    112.9172                20.4810                91.6735

                     79                     80                     81
                      A                      A                      A
 Frequencies --   2986.9626              2988.5592              3005.8034
 Red. masses --      1.0707                 1.0801                 1.0557
 Frc consts  --      5.6281                 5.6836                 5.6198
 IR Inten    --     55.6153                28.4886                36.7937

                     82                     83                     84
                      A                      A                      A
 Frequencies --   3034.7922              3037.9139              3050.5107
 Red. masses --      1.0832                 1.0879                 1.0603
 Frc consts  --      5.8779                 5.9156                 5.8134
 IR Inten    --      4.0742                49.5568                18.8144

                     85                     86                     87
                      A                      A                      A
 Frequencies --   3055.4101              3070.1033              3071.3585
 Red. masses --      1.0367                 1.0608                 1.0648
 Frc consts  --      5.7024                 5.8909                 5.9183
 IR Inten    --     24.1270                11.2488                46.3116

                     88                     89                     90
                      A                      A                      A
 Frequencies --   3086.7358              3098.1148              3099.1226
 Red. masses --      1.0932                 1.1006                 1.0953
 Frc consts  --      6.1369                 6.2241                 6.1982
 IR Inten    --     21.5894                27.0491                13.4588

                     91                     92                     93
                      A                      A                      A
 Frequencies --   3107.6499              3110.5410              3114.6810
 Red. masses --      1.0922                 1.0954                 1.1010
 Frc consts  --      6.2148                 6.2444                 6.2929
 IR Inten    --     53.3951                23.4919                38.1564

                     94                     95                     96
                      A                      A                      A
 Frequencies --   3118.5860              3122.7842              3132.7012
 Red. masses --      1.1009                 1.1012                 1.1036
 Frc consts  --      6.3081                 6.3269                 6.3814
 IR Inten    --     22.2506                37.5836                38.3726

 - Thermochemistry -
 -------------------
 Temperature   298.150 Kelvin.  Pressure   1.00000 Atm.
 Atom     1 has atomic number  6 and mass  12.00000

 Molecular mass:   200.14124 amu.
 Principal axes and moments of inertia in atomic units:
                           1         2         3
     Eigenvalues --  1394.301296615.371556931.12742
           X            0.99998   0.00549   0.00442
           Y           -0.00579   0.99742   0.07161
           Z           -0.00401  -0.07163   0.99742
 This molecule is an asymmetric top.
 Rotational symmetry number  1.
 Warning -- assumption of classical behavior for rotation
           may cause significant error
 Rotational temperatures (Kelvin)      0.06212     0.01309     0.01250
 Rotational constants (GHZ):           1.29437     0.27281     0.26038
 Zero-point vibrational energy     799820.3 (Joules/Mol)
                                  191.16164 (Kcal/Mol)
 Warning -- explicit consideration of  22 degrees of freedom as
           vibrations may cause significant error
 Vibrational temperatures:     21.33    36.09    49.41    69.31   147.62
          (Kelvin)            162.80   195.17   270.34   299.85   341.61
                              347.65   429.17   438.03   466.55   502.03
                              570.20   613.93   671.60   686.62   737.24
                              808.99   815.88   988.86  1148.78  1161.34
                             1188.31  1197.62  1229.93  1270.81  1294.89
                             1335.75  1343.51  1383.04  1449.37  1470.31
                             1499.70  1505.77  1535.23  1568.16  1590.80
                             1617.45  1637.80  1653.80  1692.77  1701.63
                             1734.07  1743.12  1773.36  1810.75  1841.88
                             1861.98  1880.94  1902.37  1920.33  1934.43
                             1949.16  1991.81  2008.66  2016.93  2025.33
                             2039.81  2041.68  2070.71  2077.91  2085.08
                             2132.75  2157.73  2158.66  2179.81  2185.16
                             2186.94  2189.06  2206.17  2213.14  2245.20
                             2586.80  4265.19  4275.26  4297.57  4299.87
                             4324.68  4366.39  4370.88  4389.00  4396.05
                             4417.19  4419.00  4441.12  4457.50  4458.95
                             4471.22  4475.37  4481.33  4486.95  4492.99
                             4507.26

 Zero-point correction=                           0.304635 (Hartree/Particle)
 Thermal correction to Energy=                    0.319749
 Thermal correction to Enthalpy=                  0.320693
 Thermal correction to Gibbs Free Energy=         0.259351
 Sum of electronic and zero-point Energies=           -656.620380
 Sum of electronic and thermal Energies=              -656.605267
 Sum of electronic and thermal Enthalpies=            -656.604322
 Sum of electronic and thermal Free Energies=         -656.665665

                     E (Thermal)             CV                S
                      KCal/Mol        Cal/Mol-Kelvin    Cal/Mol-Kelvin
 Total                  200.645             55.523            129.106
 Electronic               0.000              0.000              0.000
 Translational            0.889              2.981             41.786
 Rotational               0.889              2.981             32.525
 Vibrational            198.868             49.562             54.795
 Vibration     1          0.593              1.986              7.228
 Vibration     2          0.593              1.985              6.185
 Vibration     3          0.594              1.983              5.561
 Vibration     4          0.595              1.978              4.891
 Vibration     5          0.605              1.947              3.404
 Vibration     6          0.607              1.939              3.214
 Vibration     7          0.613              1.918              2.864
 Vibration     8          0.633              1.856              2.248
 Vibration     9          0.642              1.828              2.058
 Vibration    10          0.656              1.783              1.822
 Vibration    11          0.658              1.777              1.791
 Vibration    12          0.691              1.677              1.426
 Vibration    13          0.695              1.665              1.392
 Vibration    14          0.709              1.627              1.288
 Vibration    15          0.726              1.577              1.171
 Vibration    16          0.763              1.478              0.976
 Vibration    17          0.788              1.412              0.869
 Vibration    18          0.824              1.324              0.747
 Vibration    19          0.834              1.301              0.718
 Vibration    20          0.867              1.223              0.628
 Vibration    21          0.918              1.113              0.519
 Vibration    22          0.923              1.102              0.510

 Optimization completed.
    -- Stationary point found.
 Normal termination of Gaussian 16 at Thu Dec 10 10:07:40 2020.

 ----------------------------------------------------------------------
 # B3LYP/6-311++G(d,p) empiricaldispersion=gd3bj scf=xqc pop=npa geom=c
 heck
 ----------------------------------------------------------------------

 ---------------------------------------
 CID_105099434_JID_4238_Energie_neutraal
 ---------------------------------------
 Structure from the checkpoint file:  "JID_4238.chk"
 Charge =  0 Multiplicity = 1

 SCF Done:  E(RB3LYP) =  -657.116576757     A.U. after   14 cycles
 Normal termination of Gaussian 16 at Thu Dec 10 10:12:23 2020.

 ----------------------------------------------------------------------
 # B3LYP/6-311++G(d,p) empiricaldispersion=gd3bj scf=xqc pop=npa geom=c
 heck
 ----------------------------------------------------------------------

 -------------------------------------
 CID_105099434_JID_4238_Energie_kation
 -------------------------------------
 Structure from the checkpoint file:  "JID_4238.chk"
 Charge =  1 Multiplicity = 2

 SCF Done:  E(UB3LYP) =  -656.802643872     A.U. after   23 cycles
 Normal termination of Gaussian 16 at Thu Dec 10 10:23:14 2020.
 Gaussian 16:  ES64L-G16RevA.03 25-Dec-2016

 ----------------------------------------------------------------------
 # B3LYP/6-311++G(d,p) empiricaldispersion=gd3bj scf=xqc pop=npa geom=c
 heck
 ----------------------------------------------------------------------

 ------------------------------------
 CID_105099434_JID_4238_Energie_anion
 ------------------------------------
 Structure from the checkpoint file:  "JID_4238.chk"
 Charge = -1 Multiplicity = 2

                         Standard orientation:
 ---------------------------------------------------------------------
 Center     Atomic      Atomic             Coordinates (Angstroms)
 Number     Number       Type             X           Y           Z
 ---------------------------------------------------------------------
      1          6           0       -5.002808   -1.452099    0.044595
      2          6           0       -3.508561   -1.499306    0.356005
      3          8           0       -2.960269   -0.239091    0.707668
      4          6           0       -2.823084    0.664680   -0.380333
      5          6           0       -1.972508    1.842086    0.080834
      6          6           0       -0.597470    1.410156    0.594004
      7          6           0        0.302856    0.837913   -0.493495
      8          8           0        0.105005    1.069473   -1.673724
      9          6           0        1.464383   -0.039407   -0.038552
     10          6           0        2.377987    0.679485    0.978106
     11          6           0        3.558189   -0.222507    1.347835
     12          8           0        4.292571   -0.632413    0.207057
     13          6           0        3.486035   -1.374883   -0.699749
     14          6           0        2.303266   -0.554890   -1.212349
     15          1           0       -5.550395   -1.007124    0.882076
     16          1           0       -5.387079   -2.464958   -0.122454
     17          1           0       -5.212812   -0.863597   -0.854564
     18          1           0       -3.327506   -2.145321    1.221894
     19          1           0       -2.955155   -1.923351   -0.498908
     20          1           0       -2.342721    0.159468   -1.232078
     21          1           0       -3.805259    1.026532   -0.719642
     22          1           0       -1.853086    2.532165   -0.760551
     23          1           0       -2.502918    2.373420    0.879223
     24          1           0       -0.070222    2.271593    1.029050
     25          1           0       -0.706293    0.678619    1.401939
     26          1           0        1.009837   -0.897818    0.485024
     27          1           0        2.763311    1.604738    0.531032
     28          1           0        1.826790    0.951081    1.885742
     29          1           0        4.266497    0.304399    1.994051
     30          1           0        3.187334   -1.107184    1.896367
     31          1           0        3.123456   -2.294816   -0.206786
     32          1           0        4.147904   -1.669700   -1.519005
     33          1           0        1.686890   -1.156622   -1.889164
     34          1           0        2.673262    0.297363   -1.792654
 ---------------------------------------------------------------------

 SCF Done:  E(UB3LYP) =  -657.102410669     A.U. after   33 cycles
 SCF Done:  E(UB3LYP) =  -657.102410669     a.u. after    1 cycles

 The electronic state is 2-A.
 Alpha  occ. eigenvalues --  -19.03153 -19.02455 -19.01574 -10.15929 -10.12264
 Alpha  occ. eigenvalues --  -10.12205 -10.11676 -10.11619 -10.08790 -10.08103
 Alpha  occ. eigenvalues --  -10.07859 -10.07651 -10.07274 -10.06417  -0.94904
 Alpha  occ. eigenvalues --   -0.94643  -0.93718  -0.72373  -0.70183  -0.67355
 Alpha  occ. eigenvalues --   -0.65395  -0.61300  -0.56998  -0.54869  -0.52599
 Alpha  occ. eigenvalues --   -0.49597  -0.47752  -0.43507  -0.40844  -0.39869
 Alpha  occ. eigenvalues --   -0.38726  -0.38442  -0.37832  -0.36228  -0.36115
 Alpha  occ. eigenvalues --   -0.35303  -0.33906  -0.32735  -0.32297  -0.31137
 Alpha  occ. eigenvalues --   -0.30094  -0.28911  -0.28616  -0.27286  -0.26711
 Alpha  occ. eigenvalues --   -0.26326  -0.25516  -0.24922  -0.24470  -0.23227
 Alpha  occ. eigenvalues --   -0.21810  -0.21592  -0.17099  -0.16371  -0.15179
 Alpha  occ. eigenvalues --    0.04422
 Alpha virt. eigenvalues --    0.06156   0.06404   0.07341   0.07672   0.08050
 Alpha virt. eigenvalues --    0.08518   0.08936   0.09886   0.10185   0.10459
 Alpha virt. eigenvalues --    0.10684   0.11417   0.11644   0.12176   0.12923

  Beta  occ. eigenvalues --  -19.03143 -19.02447 -19.01537 -10.15876 -10.12247
  Beta  occ. eigenvalues --  -10.12178 -10.11666 -10.11594 -10.08783 -10.08075
  Beta  occ. eigenvalues --  -10.07848 -10.07644 -10.07266 -10.06383  -0.94836
  Beta  occ. eigenvalues --   -0.94611  -0.93702  -0.72328  -0.70158  -0.67322
  Beta  occ. eigenvalues --   -0.65347  -0.61247  -0.56950  -0.54816  -0.52537
  Beta  occ. eigenvalues --   -0.49527  -0.47695  -0.43439  -0.40803  -0.39819
  Beta  occ. eigenvalues --   -0.38659  -0.38402  -0.37806  -0.36185  -0.36073
  Beta  occ. eigenvalues --   -0.35241  -0.33875  -0.32680  -0.32264  -0.31101
  Beta  occ. eigenvalues --   -0.30050  -0.28837  -0.28564  -0.27190  -0.26672
  Beta  occ. eigenvalues --   -0.26294  -0.25476  -0.24857  -0.24430  -0.23188
  Beta  occ. eigenvalues --   -0.21777  -0.21555  -0.17042  -0.16341  -0.15140
  Beta virt. eigenvalues --    0.06487   0.06903   0.07015   0.07792   0.08146
  Beta virt. eigenvalues --    0.08487   0.08870   0.09168   0.10353   0.10513
  Beta virt. eigenvalues --    0.10897   0.11013   0.11640   0.11803   0.12356

 Mulliken charges and spin densities:
               1          2
     1  C    0.762872  -1.259583
     2  C   -0.098123   0.028288
     3  O   -0.113974   0.050588
     4  C   -0.079612  -0.316797
     5  C    0.265875  -0.694090
     6  C   -0.305301   0.111884
     7  C   -0.379363   0.254388
     8  O   -0.246976   0.016519
     9  C    0.540833  -0.126449
    10  C   -0.229196  -0.041188
    11  C    0.549881  -1.098409
    12  O   -0.176376   0.063898
    13  C    0.201873  -0.690094
    14  C   -0.211847  -0.081572
    15  H    0.039692   0.104893
    16  H   -0.502780   0.645713
    17  H   -0.302318   0.439884
    18  H   -0.580414   0.741171
    19  H    0.104583   0.004694
    20  H    0.027550   0.137503
    21  H    0.136567  -0.005021
    22  H    0.082617   0.089521
    23  H    0.070969   0.106956
    24  H   -0.062398   0.245644
    25  H    0.077142   0.144870
    26  H    0.129777   0.105691
    27  H    0.141908   0.034418
    28  H   -0.408169   0.559068
    29  H   -0.217799   0.404055
    30  H   -0.232654   0.382142
    31  H   -0.237335   0.369598
    32  H    0.133103   0.048730
    33  H   -0.009333   0.166290
    34  H    0.128726   0.056798
 Sum of Mulliken charges =  -1.00000   1.00000

 Dipole moment (field-independent basis, Debye):
    X=              2.3840    Y=              4.4110    Z=             -2.6542  Tot=              5.6732
 Quadrupole moment (field-independent basis, Debye-Ang):
   XX=           -178.2401   YY=           -127.0246   ZZ=           -128.2522
   XY=            -14.3804   XZ=             -5.2526   YZ=              3.8404

 Summary of Natural Population Analysis:

                                       Natural Population
                Natural  -----------------------------------------------
    Atom  No    Charge         Core      Valence    Rydberg      Total
 -----------------------------------------------------------------------
      C    1   -0.30120      0.99967     2.29666    0.00487     3.30120
      C    2   -0.00796      0.99960     1.99506    0.01330     3.00796
      O    3   -0.30501      0.99988     3.29535    0.00978     4.30501
      C    4   -0.00975      0.99958     1.99964    0.01053     3.00975
      C    5   -0.19617      0.99962     2.18783    0.00871     3.19617
      C    6   -0.24383      0.99958     2.23486    0.00940     3.24383
      C    7    0.31252      0.99964     1.66634    0.02150     2.68748
      O    8   -0.29169      0.99988     3.28585    0.00597     4.29169
      C    9   -0.15688      0.99954     2.14628    0.01107     3.15688
      C   10   -0.20102      0.99961     2.19197    0.00944     3.20102
      C   11   -0.00829      0.99958     1.99480    0.01391     3.00829
      O   12   -0.30060      0.99989     3.29170    0.00901     4.30060
      C   13   -0.00868      0.99958     1.99652    0.01258     3.00868
      C   14   -0.20536      0.99962     2.19486    0.01089     3.20536
      H   15    0.09892      0.00000     0.39998    0.00109     0.40108
      H   16    0.10295      0.00000     0.39535    0.00171     0.39705
      H   17    0.09575      0.00000     0.40303    0.00122     0.40425
      H   18    0.09003      0.00000     0.40812    0.00185     0.40997
      H   19    0.07653      0.00000     0.42164    0.00183     0.42347
      H   20    0.08415      0.00000     0.41404    0.00180     0.41585
      H   21    0.07924      0.00000     0.41932    0.00144     0.42076
      H   22    0.10490      0.00000     0.39398    0.00112     0.39510
      H   23    0.09885      0.00000     0.39997    0.00118     0.40115
      H   24    0.11151      0.00000     0.38745    0.00104     0.38849
      H   25    0.11666      0.00000     0.38123    0.00211     0.38334
      H   26    0.11153      0.00000     0.38537    0.00309     0.38847
      H   27    0.09663      0.00000     0.40205    0.00131     0.40337
      H   28    0.10736      0.00000     0.39101    0.00163     0.39264
      H   29    0.09160      0.00000     0.40712    0.00128     0.40840
      H   30    0.07947      0.00000     0.41861    0.00192     0.42053
      H   31    0.07850      0.00000     0.42008    0.00142     0.42150
      H   32    0.08913      0.00000     0.40989    0.00098     0.41087
      H   33    0.10817      0.00000     0.39084    0.00099     0.39183
      H   34    0.10202      0.00000     0.39683    0.00115     0.39798
 =======================================================================
   * Total *   -0.00000     13.99526    40.82363    0.18110    55.00000

 Normal termination of Gaussian 16 at Thu Dec 10 10:39:05 2020.
