 Gaussian 16, Revision A.03,

 -----------------------------------------------------------
 # opt freq B3LYP/6-31G(d) empiricaldispersion=gd3bj scf=xqc
 -----------------------------------------------------------

 -------------------------------
 CID_117977797_JID_3664_neutraal
 -------------------------------
 Symbolic Z-matrix:
 Charge =  0 Multiplicity = 1

 SCF Done:  E(RB3LYP) =  -655.811380687     A.U. after   16 cycles
 SCF Done:  E(RB3LYP) =  -655.813713297     A.U. after   14 cycles
 SCF Done:  E(RB3LYP) =  -655.815497960     A.U. after   13 cycles
 SCF Done:  E(RB3LYP) =  -655.815734461     A.U. after   12 cycles
 SCF Done:  E(RB3LYP) =  -655.815798822     A.U. after   12 cycles
 SCF Done:  E(RB3LYP) =  -655.815832606     A.U. after   11 cycles
 SCF Done:  E(RB3LYP) =  -655.815838420     A.U. after   12 cycles
 SCF Done:  E(RB3LYP) =  -655.815848559     A.U. after   10 cycles
 SCF Done:  E(RB3LYP) =  -655.815844254     A.U. after   10 cycles
 SCF Done:  E(RB3LYP) =  -655.815866864     A.U. after   13 cycles
 SCF Done:  E(RB3LYP) =  -655.816345483     A.U. after   14 cycles
 SCF Done:  E(RB3LYP) =  -655.816368648     A.U. after   13 cycles
 SCF Done:  E(RB3LYP) =  -655.816371085     A.U. after   10 cycles
 SCF Done:  E(RB3LYP) =  -655.816371549     A.U. after    9 cycles
 SCF Done:  E(RB3LYP) =  -655.816371699     A.U. after    9 cycles
 SCF Done:  E(RB3LYP) =  -655.816371705     A.U. after    7 cycles
 Optimization completed.
    -- Stationary point found.
 Normal termination of Gaussian 16 at Wed Dec  9 23:54:59 2020.

 --------------------------------------------------------------------
 #N Geom=AllCheck Guess=TCheck SCRF=Check GenChk RB3LYP/6-31G(d) Freq
 --------------------------------------------------------------------

 Structure from the checkpoint file:  "JID_3664.chk"
 -------------------------------
 CID_117977797_JID_3664_neutraal
 -------------------------------
 Charge =  0 Multiplicity = 1

 SCF Done:  E(RB3LYP) =  -655.816371705     A.U. after    1 cycles

  Exact polarizability: 132.128   1.481 108.996  -5.137   5.157  51.658
 Approx polarizability: 183.125   1.129 236.298 -11.194  17.377  83.007

                      1                      2                      3
                      A                      A                      A
 Frequencies --     19.1242                47.4667                62.4772
 Red. masses --      8.6426                10.5278                 7.3776
 Frc consts  --      0.0019                 0.0140                 0.0170
 IR Inten    --      0.3525                 0.4073                 0.7734

                      4                      5                      6
                      A                      A                      A
 Frequencies --     75.5439               164.1027               184.8915
 Red. masses --      8.8122                 9.4160                 5.9401
 Frc consts  --      0.0296                 0.1494                 0.1196
 IR Inten    --      0.7910                 3.5482                 1.4928

                      7                      8                      9
                      A                      A                      A
 Frequencies --    239.7563               319.4641               340.3495
 Red. masses --      6.8207                 5.2070                 3.0151
 Frc consts  --      0.2310                 0.3131                 0.2058
 IR Inten    --      4.6347                 0.2934                 3.7780

                     10                     11                     12
                      A                      A                      A
 Frequencies --    385.9213               422.0535               506.8733
 Red. masses --      4.6879                 5.3698                 5.8856
 Frc consts  --      0.4114                 0.5636                 0.8909
 IR Inten    --      8.8072                14.8640                 3.6521

                     13                     14                     15
                      A                      A                      A
 Frequencies --    526.4950               574.3975               620.9721
 Red. masses --      5.7256                13.0634                 3.9298
 Frc consts  --      0.9351                 2.5394                 0.8928
 IR Inten    --      3.6667                19.2146                23.4468

                     16                     17                     18
                      A                      A                      A
 Frequencies --    636.3972               660.7071               686.1673
 Red. masses --      1.6059                 7.6217                 4.6334
 Frc consts  --      0.3832                 1.9603                 1.2853
 IR Inten    --     77.0557                 1.5533                19.6996

                     19                     20                     21
                      A                      A                      A
 Frequencies --    738.6197               762.9880               832.8161
 Red. masses --      4.0524                 4.0986                 6.3243
 Frc consts  --      1.3026                 1.4058                 2.5844
 IR Inten    --     65.6297                58.1568                10.4032

                     22                     23                     24
                      A                      A                      A
 Frequencies --    880.1960               911.5783               947.2452
 Red. masses --      5.9812                 5.0778                 1.6497
 Frc consts  --      2.7302                 2.4861                 0.8721
 IR Inten    --      3.0977                20.7906                 1.5772

                     25                     26                     27
                      A                      A                      A
 Frequencies --    983.9357              1001.6819              1053.2823
 Red. masses --      1.3928                 1.9695                 3.6432
 Frc consts  --      0.7945                 1.1643                 2.3813
 IR Inten    --      0.9490                13.7014                43.5504

                     28                     29                     30
                      A                      A                      A
 Frequencies --   1152.0880              1227.8725              1246.0659
 Red. masses --      4.9048                 1.9178                 1.6563
 Frc consts  --      3.8357                 1.7036                 1.5152
 IR Inten    --    203.2680                71.5821                92.7792

                     31                     32                     33
                      A                      A                      A
 Frequencies --   1268.1610              1276.3911              1319.2539
 Red. masses --      2.8362                 2.9461                 3.6872
 Frc consts  --      2.6874                 2.8279                 3.7810
 IR Inten    --      8.5946                 1.5236               111.2826

                     34                     35                     36
                      A                      A                      A
 Frequencies --   1335.8024              1364.2630              1401.5599
 Red. masses --      1.3750                 2.6477                 1.7477
 Frc consts  --      1.4455                 2.9035                 2.0227
 IR Inten    --     25.0221                42.3587                27.4668

                     37                     38                     39
                      A                      A                      A
 Frequencies --   1437.2149              1510.9494              1527.6997
 Red. masses --      3.3606                 1.1013                 2.7035
 Frc consts  --      4.0898                 1.4813                 3.7175
 IR Inten    --     88.4568                 3.2723                 4.8189

                     40                     41                     42
                      A                      A                      A
 Frequencies --   1590.8594              1628.6612              1822.7311
 Red. masses --     10.4261                 5.7748                10.2475
 Frc consts  --     15.5467                 9.0250                20.0593
 IR Inten    --      5.0701                28.4842               250.6279

                     43                     44                     45
                      A                      A                      A
 Frequencies --   2264.1790              3065.5146              3153.6175
 Red. masses --     13.6899                 1.0671                 1.0992
 Frc consts  --     41.3496                 5.9081                 6.4410
 IR Inten    --    410.4629                24.2049                 6.5539

                     46                     47                     48
                      A                      A                      A
 Frequencies --   3186.1825              3224.7631              3690.3671
 Red. masses --      1.0920                 1.0925                 1.0640
 Frc consts  --      6.5316                 6.6939                 8.5379
 IR Inten    --     17.7071                 1.3862                79.2075

 - Thermochemistry -
 -------------------
 Temperature   298.150 Kelvin.  Pressure   1.00000 Atm.
 Atom     1 has atomic number  6 and mass  12.00000

 Molecular mass:   179.04432 amu.
 Principal axes and moments of inertia in atomic units:
                           1         2         3
     Eigenvalues --   886.646484402.521454989.92964
           X            0.99993   0.00981  -0.00693
           Y           -0.00980   0.99995   0.00122
           Z            0.00695  -0.00115   0.99998
 This molecule is an asymmetric top.
 Rotational symmetry number  1.
 Warning -- assumption of classical behavior for rotation
           may cause significant error
 Rotational temperatures (Kelvin)      0.09769     0.01967     0.01736
 Rotational constants (GHZ):           2.03547     0.40993     0.36168
 Zero-point vibrational energy     324664.7 (Joules/Mol)
                                   77.59673 (Kcal/Mol)
 Warning -- explicit consideration of  14 degrees of freedom as
           vibrations may cause significant error
 Vibrational temperatures:     27.52    68.29    89.89   108.69   236.11
          (Kelvin)            266.02   344.96   459.64   489.69   555.25
                              607.24   729.28   757.51   826.43   893.44
                              915.63   950.61   987.24  1062.71  1097.77
                             1198.24  1266.41  1311.56  1362.87  1415.66
                             1441.20  1515.44  1657.60  1766.63  1792.81
                             1824.60  1836.44  1898.11  1921.92  1962.87
                             2016.53  2067.83  2173.92  2198.02  2288.89
                             2343.28  2622.50  3257.65  4410.59  4537.35
                             4584.21  4639.71  5309.62

 Zero-point correction=                           0.123658 (Hartree/Particle)
 Thermal correction to Energy=                    0.134697
 Thermal correction to Enthalpy=                  0.135641
 Thermal correction to Gibbs Free Energy=         0.083981
 Sum of electronic and zero-point Energies=           -655.692713
 Sum of electronic and thermal Energies=              -655.681675
 Sum of electronic and thermal Enthalpies=            -655.680731
 Sum of electronic and thermal Free Energies=         -655.732391

                     E (Thermal)             CV                S
                      KCal/Mol        Cal/Mol-Kelvin    Cal/Mol-Kelvin
 Total                   84.524             39.159            108.728
 Electronic               0.000              0.000              0.000
 Translational            0.889              2.981             41.454
 Rotational               0.889              2.981             31.344
 Vibrational             82.746             33.198             35.930
 Vibration     1          0.593              1.986              6.723
 Vibration     2          0.595              1.979              4.920
 Vibration     3          0.597              1.972              4.377
 Vibration     4          0.599              1.965              4.003
 Vibration     5          0.623              1.887              2.502
 Vibration     6          0.631              1.860              2.278
 Vibration     7          0.657              1.780              1.805
 Vibration     8          0.705              1.636              1.313
 Vibration     9          0.720              1.595              1.211
 Vibration    10          0.755              1.500              1.016
 Vibration    11          0.784              1.422              0.885
 Vibration    12          0.862              1.235              0.641
 Vibration    13          0.881              1.191              0.595
 Vibration    14          0.931              1.087              0.496

 Optimization completed.
    -- Stationary point found.
 Normal termination of Gaussian 16 at Wed Dec  9 23:58:21 2020.

 ----------------------------------------------------------------------
 # B3LYP/6-311++G(d,p) empiricaldispersion=gd3bj scf=xqc pop=npa geom=c
 heck
 ----------------------------------------------------------------------

 ---------------------------------------
 CID_117977797_JID_3664_Energie_neutraal
 ---------------------------------------
 Structure from the checkpoint file:  "JID_3664.chk"
 Charge =  0 Multiplicity = 1

 SCF Done:  E(RB3LYP) =  -656.004145796     A.U. after   16 cycles
 Normal termination of Gaussian 16 at Wed Dec  9 23:59:42 2020.

 ----------------------------------------------------------------------
 # B3LYP/6-311++G(d,p) empiricaldispersion=gd3bj scf=xqc pop=npa geom=c
 heck
 ----------------------------------------------------------------------

 -------------------------------------
 CID_117977797_JID_3664_Energie_kation
 -------------------------------------
 Structure from the checkpoint file:  "JID_3664.chk"
 Charge =  1 Multiplicity = 2

 SCF Done:  E(UB3LYP) =  -655.666663363     A.U. after   27 cycles
 Normal termination of Gaussian 16 at Thu Dec 10 00:02:53 2020.
 Gaussian 16:  ES64L-G16RevA.03 25-Dec-2016

 ----------------------------------------------------------------------
 # B3LYP/6-311++G(d,p) empiricaldispersion=gd3bj scf=xqc pop=npa geom=c
 heck
 ----------------------------------------------------------------------

 ------------------------------------
 CID_117977797_JID_3664_Energie_anion
 ------------------------------------
 Structure from the checkpoint file:  "JID_3664.chk"
 Charge = -1 Multiplicity = 2

                         Standard orientation:
 ---------------------------------------------------------------------
 Center     Atomic      Atomic             Coordinates (Angstroms)
 Number     Number       Type             X           Y           Z
 ---------------------------------------------------------------------
      1          6           0       -0.047050   -1.623373   -0.085757
      2          6           0       -0.986541   -0.721790    0.432049
      3          7           0       -0.638960    0.529830    0.764312
      4          6           0        0.637523    0.868235    0.577493
      5          6           0        1.572214   -0.042404    0.067450
      6          7           0        1.231147   -1.293184   -0.265433
      7          6           0        2.987788    0.409127   -0.103525
      8          8           0        3.365727    1.526763    0.185047
      9          8           0        3.794487   -0.542133   -0.606576
     10          6           0       -2.442740   -1.079836    0.597084
     11          7           0       -3.270258   -0.510432   -0.493931
     12          7           0       -3.384273    0.723953   -0.479624
     13          7           0       -3.580779    1.841570   -0.589652
     14          1           0       -0.338170   -2.635274   -0.359360
     15          1           0        0.940116    1.877777    0.837252
     16          1           0        4.677342   -0.131763   -0.671784
     17          1           0       -2.589668   -2.158896    0.533337
     18          1           0       -2.796644   -0.730806    1.574331
 ---------------------------------------------------------------------

 SCF Done:  E(UB3LYP) =  -656.042289471     A.U. after   26 cycles

 The electronic state is 2-A.
 Alpha  occ. eigenvalues --  -19.02857 -18.95591 -14.35635 -14.25473 -14.23578
 Alpha  occ. eigenvalues --  -14.15845 -14.14950 -10.14261 -10.09417 -10.06344
 Alpha  occ. eigenvalues --  -10.06294 -10.05299 -10.04775  -1.01605  -0.96676
 Alpha  occ. eigenvalues --   -0.87238  -0.85767  -0.82386  -0.75243  -0.65889
 Alpha  occ. eigenvalues --   -0.60536  -0.52781  -0.50893  -0.46728  -0.41470
 Alpha  occ. eigenvalues --   -0.39984  -0.39102  -0.37671  -0.36022  -0.34317
 Alpha  occ. eigenvalues --   -0.33455  -0.32858  -0.31477  -0.30330  -0.28488
 Alpha  occ. eigenvalues --   -0.27175  -0.26340  -0.24300  -0.19318  -0.18813
 Alpha  occ. eigenvalues --   -0.17919  -0.15372  -0.14357  -0.13848  -0.12392
 Alpha  occ. eigenvalues --   -0.09307   0.02686
 Alpha virt. eigenvalues --    0.07814   0.09375   0.09725   0.10291   0.11210
 Alpha virt. eigenvalues --    0.11832   0.12690   0.13687   0.14129   0.16715
 Alpha virt. eigenvalues --    0.16849   0.16956   0.17136   0.17575   0.18272

  Beta  occ. eigenvalues --  -19.02813 -18.95304 -14.35588 -14.25340 -14.23548
  Beta  occ. eigenvalues --  -14.15531 -14.14378 -10.14104 -10.09420 -10.06430
  Beta  occ. eigenvalues --  -10.06427 -10.04924 -10.04526  -1.01462  -0.96448
  Beta  occ. eigenvalues --   -0.86826  -0.85630  -0.81736  -0.74346  -0.65492
  Beta  occ. eigenvalues --   -0.60152  -0.52291  -0.50570  -0.46392  -0.41188
  Beta  occ. eigenvalues --   -0.39720  -0.38982  -0.37331  -0.35800  -0.34024
  Beta  occ. eigenvalues --   -0.33193  -0.32577  -0.30351  -0.30195  -0.28352
  Beta  occ. eigenvalues --   -0.26771  -0.25231  -0.24007  -0.18738  -0.17727
  Beta  occ. eigenvalues --   -0.15908  -0.14801  -0.14075  -0.13543  -0.11028
  Beta  occ. eigenvalues --   -0.08784
  Beta virt. eigenvalues --    0.08080   0.09071   0.09456   0.10383   0.10767
  Beta virt. eigenvalues --    0.11213   0.11951   0.12729   0.13696   0.14369
  Beta virt. eigenvalues --    0.16735   0.16862   0.17153   0.17544   0.17843

 Mulliken charges and spin densities:
               1          2
     1  C   -0.016518  -0.092287
     2  C   -0.029973   0.231890
     3  N   -0.049629   0.146626
     4  C   -0.095711  -0.037338
     5  C   -0.231745   0.168617
     6  N   -0.129108   0.271722
     7  C    0.044111   0.087968
     8  O   -0.420491   0.096165
     9  O   -0.184155   0.008561
    10  C   -0.774379   0.028240
    11  N   -0.373512   0.125277
    12  N    0.450773  -0.083745
    13  N   -0.109807   0.019928
    14  H    0.133043   0.005076
    15  H    0.203719   0.003606
    16  H    0.267559  -0.001024
    17  H    0.172831  -0.000081
    18  H    0.142990   0.020798
 Sum of Mulliken charges =  -1.00000   1.00000

 Dipole moment (field-independent basis, Debye):
    X=             -1.3896    Y=             -2.2952    Z=              0.4676  Tot=              2.7235
 Quadrupole moment (field-independent basis, Debye-Ang):
   XX=           -110.0695   YY=            -92.2403   ZZ=            -80.3241
   XY=              3.4733   XZ=             -4.5634   YZ=             -2.9397

 Summary of Natural Population Analysis:

                                       Natural Population
                Natural  -----------------------------------------------
    Atom  No    Charge         Core      Valence    Rydberg      Total
 -----------------------------------------------------------------------
      C    1   -0.02326      0.99955     2.00961    0.01411     3.02326
      C    2    0.13267      0.99954     1.85308    0.01471     2.86733
      N    3   -0.20385      0.99968     2.68867    0.01549     3.70385
      C    4    0.01645      0.99957     1.97149    0.01249     2.98355
      C    5    0.05654      0.99949     1.93049    0.01348     2.94346
      N    6   -0.12792      0.99968     2.61625    0.01199     3.62792
      C    7    0.40738      0.99969     1.56782    0.02510     2.59262
      O    8   -0.30351      0.99987     3.29681    0.00683     4.30351
      O    9   -0.33781      0.99987     3.33091    0.00703     4.33781
      C   10   -0.10240      0.99956     2.09151    0.01133     3.10240
      N   11   -0.18655      0.99972     2.67307    0.01377     3.68655
      N   12    0.11912      0.99971     2.36427    0.01690     3.38088
      N   13   -0.03915      0.99982     2.52584    0.01349     3.53915
      H   14    0.08119      0.00000     0.41734    0.00147     0.41881
      H   15    0.09537      0.00000     0.40327    0.00135     0.40463
      H   16    0.22527      0.00000     0.26927    0.00546     0.27473
      H   17    0.09516      0.00000     0.40374    0.00110     0.40484
      H   18    0.09528      0.00000     0.40336    0.00136     0.40472
 =======================================================================
   * Total *    0.00000     12.99575    32.81680    0.18746    46.00000

 Normal termination of Gaussian 16 at Thu Dec 10 00:05:56 2020.
