 Gaussian 16, Revision A.03,

 -----------------------------------------------------------
 # opt freq B3LYP/6-31G(d) empiricaldispersion=gd3bj scf=xqc
 -----------------------------------------------------------

 -------------------------------
 CID_104016661_JID_7375_neutraal
 -------------------------------
 Symbolic Z-matrix:
 Charge =  0 Multiplicity = 1

 SCF Done:  E(RB3LYP) =  -751.372816966     A.U. after   13 cycles
 SCF Done:  E(RB3LYP) =  -751.377133579     A.U. after   12 cycles
 SCF Done:  E(RB3LYP) =  -751.377680968     A.U. after   11 cycles
 SCF Done:  E(RB3LYP) =  -751.377895243     A.U. after   10 cycles
 SCF Done:  E(RB3LYP) =  -751.377949001     A.U. after   10 cycles
 SCF Done:  E(RB3LYP) =  -751.377973228     A.U. after   10 cycles
 SCF Done:  E(RB3LYP) =  -751.378055076     A.U. after   11 cycles
 SCF Done:  E(RB3LYP) =  -751.378116796     A.U. after   11 cycles
 SCF Done:  E(RB3LYP) =  -751.378143447     A.U. after   11 cycles
 SCF Done:  E(RB3LYP) =  -751.341307972     A.U. after   13 cycles
 SCF Done:  E(RB3LYP) =  -751.380940334     A.U. after    9 cycles
 SCF Done:  E(RB3LYP) =  -751.380938636     A.U. after    9 cycles
 SCF Done:  E(RB3LYP) =  -751.380940957     A.U. after    9 cycles
 SCF Done:  E(RB3LYP) =  -751.380940925     A.U. after    9 cycles
 SCF Done:  E(RB3LYP) =  -751.380940731     A.U. after    8 cycles
 Optimization completed.
    -- Stationary point found.
 Normal termination of Gaussian 16 at Mon Dec 14 16:54:03 2020.

 --------------------------------------------------------------------
 #N Geom=AllCheck Guess=TCheck SCRF=Check GenChk RB3LYP/6-31G(d) Freq
 --------------------------------------------------------------------

 Structure from the checkpoint file:  "JID_7375.chk"
 -------------------------------
 CID_104016661_JID_7375_neutraal
 -------------------------------
 Charge =  0 Multiplicity = 1

 SCF Done:  E(RB3LYP) =  -751.380940731     A.U. after    1 cycles

  Exact polarizability: 174.677 -23.415 140.104   3.335  -3.004 145.394
 Approx polarizability: 228.723 -43.221 200.829  -0.611  -1.777 246.707

                      1                      2                      3
                      A                      A                      A
 Frequencies --     14.3772                15.9052                34.4973
 Red. masses --      3.5737                 4.1418                 3.8013
 Frc consts  --      0.0004                 0.0006                 0.0027
 IR Inten    --      0.3133                 0.1995                 0.5970

                      4                      5                      6
                      A                      A                      A
 Frequencies --     53.2075                65.3646                97.3997
 Red. masses --      4.0918                 3.0442                 2.9649
 Frc consts  --      0.0068                 0.0077                 0.0166
 IR Inten    --      1.9724                 1.8083                 0.7759

                      7                      8                      9
                      A                      A                      A
 Frequencies --    133.1981               147.0112               193.7345
 Red. masses --      3.7942                 3.0893                 3.4794
 Frc consts  --      0.0397                 0.0393                 0.0769
 IR Inten    --      2.8065                 0.8783                 2.5893

                     10                     11                     12
                      A                      A                      A
 Frequencies --    227.2770               243.0921               245.6829
 Red. masses --      2.3367                 1.8214                 1.4348
 Frc consts  --      0.0711                 0.0634                 0.0510
 IR Inten    --      0.9774                 1.2510                 0.5148

                     13                     14                     15
                      A                      A                      A
 Frequencies --    274.4998               332.5419               340.6621
 Red. masses --      2.8327                 2.1240                 2.1031
 Frc consts  --      0.1258                 0.1384                 0.1438
 IR Inten    --      7.8128                 1.1387                30.2124

                     16                     17                     18
                      A                      A                      A
 Frequencies --    353.1501               368.5360               398.7833
 Red. masses --      2.5549                 1.6001                 2.3720
 Frc consts  --      0.1877                 0.1280                 0.2222
 IR Inten    --      1.4178                79.4318                42.0090

                     19                     20                     21
                      A                      A                      A
 Frequencies --    418.2579               420.5567               450.1832
 Red. masses --      2.9234                 2.6478                 4.0950
 Frc consts  --      0.3013                 0.2759                 0.4890
 IR Inten    --      0.5548                11.9910                 0.8104

                     22                     23                     24
                      A                      A                      A
 Frequencies --    489.8387               520.0637               597.7251
 Red. masses --      3.1273                 3.8517                 1.9565
 Frc consts  --      0.4421                 0.6138                 0.4118
 IR Inten    --     10.9652                 9.1059                 0.2753

                     25                     26                     27
                      A                      A                      A
 Frequencies --    621.9736               655.1403               656.6990
 Red. masses --      2.9681                 3.4711                 6.5971
 Frc consts  --      0.6765                 0.8778                 1.6762
 IR Inten    --     15.9464                 1.5616                 0.1827

                     28                     29                     30
                      A                      A                      A
 Frequencies --    712.5969               768.1851               779.5319
 Red. masses --      3.6612                 3.3204                 3.0426
 Frc consts  --      1.0954                 1.1544                 1.0894
 IR Inten    --      5.0644                25.2346                 7.7371

                     31                     32                     33
                      A                      A                      A
 Frequencies --    825.6985               835.7387               862.1881
 Red. masses --      2.5235                 1.3975                 1.5103
 Frc consts  --      1.0137                 0.5751                 0.6615
 IR Inten    --     29.1897                81.8466                 1.7484

                     34                     35                     36
                      A                      A                      A
 Frequencies --    866.8265               877.6156               894.9233
 Red. masses --      1.8787                 2.0847                 1.6926
 Frc consts  --      0.8317                 0.9460                 0.7987
 IR Inten    --      9.9311                26.6783                11.4041

                     37                     38                     39
                      A                      A                      A
 Frequencies --    922.5604               930.9048               943.6224
 Red. masses --      1.8538                 2.0232                 2.3442
 Frc consts  --      0.9296                 1.0330                 1.2298
 IR Inten    --     13.2147                 4.4881                 3.3704

                     40                     41                     42
                      A                      A                      A
 Frequencies --    954.7617               959.9251               972.8066
 Red. masses --      1.6396                 1.4076                 1.4217
 Frc consts  --      0.8806                 0.7642                 0.7927
 IR Inten    --      5.9753                 0.0690                 2.2506

                     43                     44                     45
                      A                      A                      A
 Frequencies --    982.3165               999.9153              1023.2737
 Red. masses --      1.7698                 1.5581                 1.5913
 Frc consts  --      1.0062                 0.9178                 0.9817
 IR Inten    --      5.8699                25.9224                 6.0553

                     46                     47                     48
                      A                      A                      A
 Frequencies --   1041.7883              1055.0537              1073.6468
 Red. masses --      3.0144                 1.4662                 4.3378
 Frc consts  --      1.9276                 0.9616                 2.9461
 IR Inten    --      6.3249                 7.9415                66.8205

                     49                     50                     51
                      A                      A                      A
 Frequencies --   1085.9792              1099.2331              1139.3062
 Red. masses --      2.6128                 3.1343                 1.6111
 Frc consts  --      1.8155                 2.2314                 1.2321
 IR Inten    --     21.0982               114.8857                18.2939

                     52                     53                     54
                      A                      A                      A
 Frequencies --   1156.6555              1163.0677              1194.7644
 Red. masses --      2.5803                 1.8727                 1.4984
 Frc consts  --      2.0339                 1.4925                 1.2602
 IR Inten    --     28.2671                24.4762                 0.2790

                     55                     56                     57
                      A                      A                      A
 Frequencies --   1211.0431              1216.0749              1222.8828
 Red. masses --      1.2755                 1.1279                 1.4296
 Frc consts  --      1.1022                 0.9827                 1.2596
 IR Inten    --      1.0120                13.9442                 4.7724

                     58                     59                     60
                      A                      A                      A
 Frequencies --   1224.3483              1226.6671              1240.5454
 Red. masses --      2.0188                 3.6997                 2.1221
 Frc consts  --      1.7830                 3.2800                 1.9242
 IR Inten    --      5.0769                 3.2872                 8.7094

                     61                     62                     63
                      A                      A                      A
 Frequencies --   1256.9950              1267.6722              1302.1572
 Red. masses --      1.5463                 1.5222                 1.6544
 Frc consts  --      1.4395                 1.4412                 1.6528
 IR Inten    --      8.3035                 2.2088                24.3647

                     64                     65                     66
                      A                      A                      A
 Frequencies --   1323.0709              1334.2821              1350.6979
 Red. masses --      1.3953                 1.7732                 1.5773
 Frc consts  --      1.4390                 1.8600                 1.6954
 IR Inten    --      3.2463                 3.0400                 4.5217

                     67                     68                     69
                      A                      A                      A
 Frequencies --   1364.4938              1374.5933              1385.0725
 Red. masses --      1.5933                 1.4617                 1.2935
 Frc consts  --      1.7478                 1.6273                 1.4621
 IR Inten    --      3.9213                 4.2873                18.4929

                     70                     71                     72
                      A                      A                      A
 Frequencies --   1394.9557              1404.0013              1416.1079
 Red. masses --      1.5139                 1.3465                 1.3781
 Frc consts  --      1.7357                 1.5638                 1.6283
 IR Inten    --      4.1864                 5.6577                12.0955

                     73                     74                     75
                      A                      A                      A
 Frequencies --   1433.2122              1438.0757              1469.9207
 Red. masses --      1.3313                 1.3322                 2.3473
 Frc consts  --      1.6112                 1.6233                 2.9882
 IR Inten    --     70.4165                14.1779                17.5553

                     76                     77                     78
                      A                      A                      A
 Frequencies --   1501.8130              1510.4221              1515.4162
 Red. masses --      1.0990                 1.0654                 1.0874
 Frc consts  --      1.4604                 1.4321                 1.4714
 IR Inten    --      5.4643                 5.3555                 1.7540

                     79                     80                     81
                      A                      A                      A
 Frequencies --   1521.8784              1526.7001              1531.1137
 Red. masses --      1.1782                 1.0945                 1.0963
 Frc consts  --      1.6078                 1.5030                 1.5142
 IR Inten    --     33.7636                 4.1451                 0.6821

                     82                     83                     84
                      A                      A                      A
 Frequencies --   1532.0302              1541.8656              1558.4789
 Red. masses --      1.0707                 1.0838                 1.0988
 Frc consts  --      1.4807                 1.5181                 1.5725
 IR Inten    --     12.6180                10.1088                 1.3118

                     85                     86                     87
                      A                      A                      A
 Frequencies --   1562.7561              1635.3131              1675.3968
 Red. masses --      2.3771                 6.1892                 5.7740
 Frc consts  --      3.4204                 9.7518                 9.5491
 IR Inten    --      5.6522                 0.4917                 0.1641

                     88                     89                     90
                      A                      A                      A
 Frequencies --   2967.3998              2998.3159              3000.9122
 Red. masses --      1.0692                 1.0711                 1.0719
 Frc consts  --      5.5472                 5.6732                 5.6871
 IR Inten    --     46.8796                61.3333                89.7260

                     91                     92                     93
                      A                      A                      A
 Frequencies --   3042.5790              3045.1158              3054.3283
 Red. masses --      1.0820                 1.0648                 1.0421
 Frc consts  --      5.9013                 5.8172                 5.7278
 IR Inten    --     11.2212                61.8730                15.7430

                     94                     95                     96
                      A                      A                      A
 Frequencies --   3062.6661              3068.7724              3076.4872
 Red. masses --      1.0627                 1.0635                 1.0922
 Frc consts  --      5.8731                 5.9008                 6.0904
 IR Inten    --     43.6723                17.6333                30.1236

                     97                     98                     99
                      A                      A                      A
 Frequencies --   3086.9985              3091.9769              3110.5276
 Red. masses --      1.1061                 1.0916                 1.0999
 Frc consts  --      6.2103                 6.1486                 6.2700
 IR Inten    --     21.7508                46.4762                12.3296

                    100                    101                    102
                      A                      A                      A
 Frequencies --   3120.0630              3123.3837              3154.0027
 Red. masses --      1.1019                 1.1057                 1.1010
 Frc consts  --      6.3202                 6.3554                 6.4532
 IR Inten    --     17.9950                67.2086                14.9567

                    103                    104                    105
                      A                      A                      A
 Frequencies --   3164.9004              3174.9403              3182.8552
 Red. masses --      1.0863                 1.0885                 1.0940
 Frc consts  --      6.4111                 6.4646                 6.5299
 IR Inten    --     11.9813                17.4809                20.6600

                    106                    107                    108
                      A                      A                      A
 Frequencies --   3206.8821              3487.1221              3731.3958
 Red. masses --      1.0922                 1.0729                 1.0660
 Frc consts  --      6.6179                 7.6871                 8.7445
 IR Inten    --      7.7066                 7.2419                 8.9005

 - Thermochemistry -
 -------------------
 Temperature   298.150 Kelvin.  Pressure   1.00000 Atm.
 Atom     1 has atomic number  6 and mass  12.00000

 Molecular mass:   235.15723 amu.
 Principal axes and moments of inertia in atomic units:
                           1         2         3
     Eigenvalues --  2387.757997541.292978626.68908
           X            0.99997   0.00175   0.00769
           Y           -0.00167   0.99995  -0.00970
           Z           -0.00771   0.00969   0.99992
 This molecule is an asymmetric top.
 Rotational symmetry number  1.
 Warning -- assumption of classical behavior for rotation
           may cause significant error
 Rotational temperatures (Kelvin)      0.03627     0.01149     0.01004
 Rotational constants (GHZ):           0.75583     0.23931     0.20920
 Zero-point vibrational energy     878740.4 (Joules/Mol)
                                  210.02400 (Kcal/Mol)
 Warning -- explicit consideration of  24 degrees of freedom as
           vibrations may cause significant error
 Vibrational temperatures:     20.69    22.88    49.63    76.55    94.05
          (Kelvin)            140.14   191.64   211.52   278.74   327.00
                              349.76   353.48   394.94   478.45   490.14
                              508.10   530.24   573.76   601.78   605.09
                              647.71   704.77   748.26   859.99   894.88
                              942.60   944.84  1025.27  1105.25  1121.57
                             1188.00  1202.44  1240.50  1247.17  1262.69
                             1287.60  1327.36  1339.36  1357.66  1373.69
                             1381.12  1399.65  1413.33  1438.66  1472.26
                             1498.90  1517.99  1544.74  1562.48  1581.55
                             1639.21  1664.17  1673.39  1719.00  1742.42
                             1749.66  1759.46  1761.56  1764.90  1784.87
                             1808.54  1823.90  1873.51  1903.60  1919.73
                             1943.35  1963.20  1977.73  1992.81  2007.03
                             2020.04  2037.46  2062.07  2069.07  2114.89
                             2160.77  2173.16  2180.35  2189.64  2196.58
                             2202.93  2204.25  2218.40  2242.30  2248.46
                             2352.85  2410.52  4269.43  4313.91  4317.64
                             4377.59  4381.24  4394.50  4406.49  4415.28
                             4426.38  4441.50  4448.67  4475.36  4489.07
                             4493.85  4537.91  4553.59  4568.03  4579.42
                             4613.99  5017.19  5368.65

 Zero-point correction=                           0.334695 (Hartree/Particle)
 Thermal correction to Energy=                    0.351589
 Thermal correction to Enthalpy=                  0.352533
 Thermal correction to Gibbs Free Energy=         0.286989
 Sum of electronic and zero-point Energies=           -751.046246
 Sum of electronic and thermal Energies=              -751.029352
 Sum of electronic and thermal Enthalpies=            -751.028407
 Sum of electronic and thermal Free Energies=         -751.093952

                     E (Thermal)             CV                S
                      KCal/Mol        Cal/Mol-Kelvin    Cal/Mol-Kelvin
 Total                  220.626             64.344            137.950
 Electronic               0.000              0.000              0.000
 Translational            0.889              2.981             42.267
 Rotational               0.889              2.981             33.407
 Vibrational            218.848             58.382             62.276
 Vibration     1          0.593              1.986              7.290
 Vibration     2          0.593              1.986              7.089
 Vibration     3          0.594              1.983              5.552
 Vibration     4          0.596              1.976              4.694
 Vibration     5          0.597              1.971              4.288
 Vibration     6          0.603              1.951              3.506
 Vibration     7          0.613              1.920              2.899
 Vibration     8          0.617              1.906              2.711
 Vibration     9          0.635              1.849              2.192
 Vibration    10          0.651              1.799              1.900
 Vibration    11          0.659              1.774              1.780
 Vibration    12          0.660              1.770              1.761
 Vibration    13          0.677              1.720              1.568
 Vibration    14          0.714              1.611              1.248
 Vibration    15          0.720              1.594              1.209
 Vibration    16          0.729              1.569              1.152
 Vibration    17          0.741              1.537              1.086
 Vibration    18          0.765              1.473              0.967
 Vibration    19          0.781              1.431              0.898
 Vibration    20          0.783              1.426              0.890
 Vibration    21          0.809              1.360              0.795
 Vibration    22          0.846              1.273              0.684
 Vibration    23          0.875              1.206              0.610
 Vibration    24          0.956              1.037              0.454

 Optimization completed.
    -- Stationary point found.
 Normal termination of Gaussian 16 at Mon Dec 14 17:08:23 2020.

 ----------------------------------------------------------------------
 # B3LYP/6-311++G(d,p) empiricaldispersion=gd3bj scf=xqc pop=npa geom=c
 heck
 ----------------------------------------------------------------------

 ---------------------------------------
 CID_104016661_JID_7375_Energie_neutraal
 ---------------------------------------
 Structure from the checkpoint file:  "JID_7375.chk"
 Charge =  0 Multiplicity = 1

 SCF Done:  E(RB3LYP) =  -751.599071578     A.U. after   14 cycles
 Normal termination of Gaussian 16 at Mon Dec 14 17:15:23 2020.

 ----------------------------------------------------------------------
 # B3LYP/6-311++G(d,p) empiricaldispersion=gd3bj scf=xqc pop=npa geom=c
 heck
 ----------------------------------------------------------------------

 -------------------------------------
 CID_104016661_JID_7375_Energie_kation
 -------------------------------------
 Structure from the checkpoint file:  "JID_7375.chk"
 Charge =  1 Multiplicity = 2

 SCF Done:  E(UB3LYP) =  -751.308579765     A.U. after   25 cycles
 Normal termination of Gaussian 16 at Mon Dec 14 17:34:04 2020.
 Gaussian 16:  ES64L-G16RevA.03 25-Dec-2016

 ----------------------------------------------------------------------
 # B3LYP/6-311++G(d,p) empiricaldispersion=gd3bj scf=xqc pop=npa geom=c
 heck
 ----------------------------------------------------------------------

 ------------------------------------
 CID_104016661_JID_7375_Energie_anion
 ------------------------------------
 Structure from the checkpoint file:  "JID_7375.chk"
 Charge = -1 Multiplicity = 2

                         Standard orientation:
 ---------------------------------------------------------------------
 Center     Atomic      Atomic             Coordinates (Angstroms)
 Number     Number       Type             X           Y           Z
 ---------------------------------------------------------------------
      1          6           0        4.188474   -0.753783    0.315797
      2          6           0        2.921279    0.094203    0.273574
      3          6           0        3.041255    1.420716    1.051448
      4          6           0        2.257781    2.413743    0.183232
      5          6           0        2.583708    1.902491   -1.220224
      6          8           0        2.679588    0.483319   -1.107275
      7          6           0        1.687159   -0.698893    0.732925
      8          7           0        1.415704   -1.788505   -0.194608
      9          6           0        0.154524   -2.490937    0.057884
     10          6           0       -1.090045   -1.624334   -0.026459
     11          6           0       -1.572766   -1.204669   -1.272274
     12          6           0       -2.668042   -0.349670   -1.364989
     13          6           0       -3.318898    0.103782   -0.212092
     14          6           0       -2.840070   -0.309996    1.034993
     15          6           0       -1.738760   -1.160723    1.123029
     16          6           0       -4.530415    1.006768   -0.307033
     17          8           0       -4.621846    1.945257    0.758515
     18          1           0        4.041458   -1.678801   -0.246513
     19          1           0        4.439248   -1.015564    1.350560
     20          1           0        5.027634   -0.199061   -0.116371
     21          1           0        2.652657    1.334950    2.071056
     22          1           0        4.093213    1.722115    1.118278
     23          1           0        2.555878    3.455175    0.337910
     24          1           0        1.182690    2.333245    0.377783
     25          1           0        3.541291    2.316293   -1.573849
     26          1           0        1.815453    2.137817   -1.964334
     27          1           0        1.875813   -1.121914    1.729610
     28          1           0        0.839554    0.001314    0.836281
     29          1           0        1.401221   -1.383409   -1.130301
     30          1           0        0.086286   -3.309258   -0.668922
     31          1           0        0.216832   -2.949700    1.052573
     32          1           0       -1.078434   -1.546202   -2.179685
     33          1           0       -3.024365   -0.031386   -2.342487
     34          1           0       -3.334919    0.046719    1.933441
     35          1           0       -1.376935   -1.474012    2.099934
     36          1           0       -4.541367    1.509148   -1.287698
     37          1           0       -5.452642    0.417436   -0.241475
     38          1           0       -3.783531    2.433824    0.777678
 ---------------------------------------------------------------------

 SCF Done:  E(UB3LYP) =  -751.588232859     A.U. after   33 cycles
 SCF Done:  E(UB3LYP) =  -751.588232859     a.u. after    1 cycles

 The electronic state is 2-A.
 Alpha  occ. eigenvalues --  -19.02791 -19.02322 -14.19959 -10.13274 -10.12626
 Alpha  occ. eigenvalues --  -10.11837 -10.10368 -10.09117 -10.08430 -10.08150
 Alpha  occ. eigenvalues --  -10.08131 -10.07932 -10.07925 -10.07636 -10.07569
 Alpha  occ. eigenvalues --  -10.07388 -10.06342  -0.94059  -0.92949  -0.81356
 Alpha  occ. eigenvalues --   -0.76295  -0.70257  -0.68510  -0.67144  -0.65290
 Alpha  occ. eigenvalues --   -0.61191  -0.58628  -0.57203  -0.53664  -0.51682
 Alpha  occ. eigenvalues --   -0.50535  -0.48402  -0.45646  -0.42932  -0.41233
 Alpha  occ. eigenvalues --   -0.40070  -0.39669  -0.37925  -0.36127  -0.35710
 Alpha  occ. eigenvalues --   -0.35561  -0.34781  -0.34524  -0.33162  -0.32702
 Alpha  occ. eigenvalues --   -0.32467  -0.31434  -0.30371  -0.28992  -0.28136
 Alpha  occ. eigenvalues --   -0.27210  -0.26746  -0.26416  -0.26045  -0.24833
 Alpha  occ. eigenvalues --   -0.24050  -0.23666  -0.23368  -0.22137  -0.19121
 Alpha  occ. eigenvalues --   -0.16322  -0.16217  -0.15163  -0.13050   0.04096
 Alpha virt. eigenvalues --    0.06020   0.06584   0.07036   0.07375   0.07670
 Alpha virt. eigenvalues --    0.08023   0.08424   0.08761   0.09332   0.09359
 Alpha virt. eigenvalues --    0.10137   0.10560   0.11169   0.11285   0.11647

  Beta  occ. eigenvalues --  -19.02752 -19.02318 -14.19953 -10.13275 -10.12608
  Beta  occ. eigenvalues --  -10.11821 -10.10365 -10.09102 -10.08412 -10.08126
  Beta  occ. eigenvalues --  -10.08110 -10.07931 -10.07906 -10.07618 -10.07527
  Beta  occ. eigenvalues --  -10.07363 -10.06329  -0.94050  -0.92859  -0.81336
  Beta  occ. eigenvalues --   -0.76243  -0.70231  -0.68460  -0.67096  -0.65232
  Beta  occ. eigenvalues --   -0.61144  -0.58588  -0.57149  -0.53626  -0.51640
  Beta  occ. eigenvalues --   -0.50475  -0.48337  -0.45612  -0.42880  -0.41214
  Beta  occ. eigenvalues --   -0.40016  -0.39618  -0.37888  -0.36079  -0.35677
  Beta  occ. eigenvalues --   -0.35518  -0.34719  -0.34490  -0.33131  -0.32674
  Beta  occ. eigenvalues --   -0.32433  -0.31406  -0.30342  -0.28958  -0.28104
  Beta  occ. eigenvalues --   -0.27182  -0.26716  -0.26328  -0.26009  -0.24800
  Beta  occ. eigenvalues --   -0.24019  -0.23626  -0.23336  -0.22120  -0.19067
  Beta  occ. eigenvalues --   -0.16210  -0.16202  -0.15014  -0.13014
  Beta virt. eigenvalues --    0.06142   0.06736   0.07135   0.07509   0.07614
  Beta virt. eigenvalues --    0.07798   0.08268   0.08888   0.09083   0.09498
  Beta virt. eigenvalues --    0.09589   0.10356   0.10806   0.11332   0.11529

 Mulliken charges and spin densities:
               1          2
     1  C    0.324577  -0.656846
     2  C   -0.525598   0.750804
     3  C   -0.404693   0.065490
     4  C    0.048966  -0.400832
     5  C    0.518886  -0.731489
     6  O   -0.089939   0.017305
     7  C   -0.510897  -0.430339
     8  N    0.048612   0.030530
     9  C    0.107974  -1.012775
    10  C    1.457870  -0.643397
    11  C   -0.665631   0.484756
    12  C   -0.837950   0.235393
    13  C    0.062992   0.485883
    14  C   -0.959475   0.795356
    15  C   -0.633418   0.316646
    16  C    1.943779  -2.504716
    17  O   -0.229624  -0.000542
    18  H    0.117101   0.041984
    19  H    0.015882   0.118632
    20  H   -0.026219   0.169061
    21  H   -0.323845   0.483300
    22  H   -0.124099   0.300349
    23  H   -0.574337   0.754556
    24  H   -0.081352   0.218811
    25  H    0.012749   0.109379
    26  H   -0.058508   0.217181
    27  H   -0.004177   0.178190
    28  H    1.020136  -0.865410
    29  H    0.279607  -0.027213
    30  H    0.107394   0.076038
    31  H    0.060654   0.088331
    32  H   -0.165484   0.318927
    33  H   -0.260582   0.422971
    34  H   -0.149957   0.344485
    35  H   -0.257185   0.415136
    36  H   -0.214714   0.399157
    37  H    0.033910   0.125306
    38  H   -0.063407   0.309603
 Sum of Mulliken charges =  -1.00000   1.00000

 Dipole moment (field-independent basis, Debye):
    X=              1.4805    Y=             -4.8223    Z=             -1.1922  Tot=              5.1834
 Quadrupole moment (field-independent basis, Debye-Ang):
   XX=           -189.7695   YY=           -156.2173   ZZ=           -137.2130
   XY=              3.6058   XZ=              1.5951   YZ=             -3.1993

 Summary of Natural Population Analysis:

                                       Natural Population
                Natural  -----------------------------------------------
    Atom  No    Charge         Core      Valence    Rydberg      Total
 -----------------------------------------------------------------------
      C    1   -0.29202      0.99960     2.28632    0.00611     3.29202
      C    2    0.13459      0.99953     1.84903    0.01685     2.86541
      C    3   -0.20038      0.99958     2.19134    0.00946     3.20038
      C    4   -0.20489      0.99964     2.19718    0.00807     3.20489
      C    5   -0.00663      0.99959     1.99438    0.01266     3.00663
      O    6   -0.31844      0.99988     3.31007    0.00849     4.31844
      C    7   -0.09628      0.99954     2.08494    0.01180     3.09628
      N    8   -0.33855      0.99975     2.82809    0.01071     3.83855
      C    9   -0.09126      0.99959     2.08054    0.01112     3.09126
      C   10   -0.02180      0.99950     2.01301    0.00929     3.02180
      C   11   -0.09616      0.99951     2.08650    0.01014     3.09616
      C   12   -0.09685      0.99951     2.08743    0.00990     3.09685
      C   13   -0.03487      0.99950     2.02471    0.01066     3.03487
      C   14   -0.09196      0.99951     2.08299    0.00947     3.09196
      C   15   -0.10091      0.99951     2.09136    0.01004     3.10091
      C   16   -0.01350      0.99956     2.00010    0.01384     3.01350
      O   17   -0.36671      0.99990     3.36029    0.00652     4.36671
      H   18    0.10955      0.00000     0.38917    0.00127     0.39045
      H   19    0.09816      0.00000     0.40095    0.00089     0.40184
      H   20    0.09952      0.00000     0.39948    0.00100     0.40048
      H   21    0.10679      0.00000     0.39202    0.00119     0.39321
      H   22    0.09936      0.00000     0.39940    0.00124     0.40064
      H   23    0.10471      0.00000     0.39355    0.00174     0.39529
      H   24    0.10134      0.00000     0.39667    0.00199     0.39866
      H   25    0.07592      0.00000     0.42272    0.00137     0.42408
      H   26    0.09025      0.00000     0.40858    0.00117     0.40975
      H   27    0.09113      0.00000     0.40756    0.00131     0.40887
      H   28    0.08900      0.00000     0.40828    0.00272     0.41100
      H   29    0.17917      0.00000     0.31741    0.00342     0.32083
      H   30    0.09668      0.00000     0.40233    0.00098     0.40332
      H   31    0.09217      0.00000     0.40665    0.00118     0.40783
      H   32    0.09735      0.00000     0.40110    0.00155     0.40265
      H   33    0.09931      0.00000     0.39951    0.00117     0.40069
      H   34    0.10659      0.00000     0.39222    0.00119     0.39341
      H   35    0.09894      0.00000     0.39990    0.00116     0.40106
      H   36    0.08005      0.00000     0.41844    0.00151     0.41995
      H   37    0.08969      0.00000     0.40906    0.00125     0.41031
      H   38    0.23094      0.00000     0.26392    0.00514     0.26906
 =======================================================================
   * Total *   -0.00000     16.99320    46.79722    0.20958    64.00000

 Normal termination of Gaussian 16 at Mon Dec 14 17:58:53 2020.
