 Gaussian 16, Revision A.03,

 -----------------------------------------------------------
 # opt freq B3LYP/6-31G(d) empiricaldispersion=gd3bj scf=xqc
 -----------------------------------------------------------

 -----------------------------
 CID_58662570_JID_221_neutraal
 -----------------------------
 Symbolic Z-matrix:
 Charge =  0 Multiplicity = 1

 SCF Done:  E(RB3LYP) =  -839.911526072     A.U. after   13 cycles
 SCF Done:  E(RB3LYP) =  -839.918315255     A.U. after   12 cycles
 SCF Done:  E(RB3LYP) =  -839.918959634     A.U. after   12 cycles
 SCF Done:  E(RB3LYP) =  -839.919137572     A.U. after   11 cycles
 SCF Done:  E(RB3LYP) =  -839.919348476     A.U. after   11 cycles
 SCF Done:  E(RB3LYP) =  -839.919706890     A.U. after   11 cycles
 SCF Done:  E(RB3LYP) =  -839.920836978     A.U. after   13 cycles
 SCF Done:  E(RB3LYP) =  -839.921527334     A.U. after   12 cycles
 SCF Done:  E(RB3LYP) =  -839.921835743     A.U. after   12 cycles
 SCF Done:  E(RB3LYP) =  -839.921992829     A.U. after   12 cycles
 SCF Done:  E(RB3LYP) =  -839.922128404     A.U. after   10 cycles
 SCF Done:  E(RB3LYP) =  -839.922140528     A.U. after   10 cycles
 SCF Done:  E(RB3LYP) =  -839.922142444     A.U. after    9 cycles
 SCF Done:  E(RB3LYP) =  -839.922143382     A.U. after    8 cycles
 SCF Done:  E(RB3LYP) =  -839.922143657     A.U. after    8 cycles
 Optimization completed.
    -- Stationary point found.
 Normal termination of Gaussian 16 at Tue Dec  8 10:22:51 2020.

 --------------------------------------------------------------------
 #N Geom=AllCheck Guess=TCheck SCRF=Check GenChk RB3LYP/6-31G(d) Freq
 --------------------------------------------------------------------

 Structure from the checkpoint file:  "JID_221.chk"
 -----------------------------
 CID_58662570_JID_221_neutraal
 -----------------------------
 Charge =  0 Multiplicity = 1

 SCF Done:  E(RB3LYP) =  -839.922143657     A.U. after    1 cycles

  Exact polarizability: 107.981   1.625  89.071   1.607  -2.041  77.269
 Approx polarizability: 138.711   4.749 132.149   6.239  -1.075 113.963

                      1                      2                      3
                      A                      A                      A
 Frequencies --     41.1211                51.9742               106.6176
 Red. masses --      3.9447                 4.7552                 6.6622
 Frc consts  --      0.0039                 0.0076                 0.0446
 IR Inten    --      0.3801                 0.7716                 1.9226

                      4                      5                      6
                      A                      A                      A
 Frequencies --    127.0059               165.5145               210.2176
 Red. masses --      4.1551                 2.7149                 1.0822
 Frc consts  --      0.0395                 0.0438                 0.0282
 IR Inten    --      0.1922                 3.4326                 0.0534

                      7                      8                      9
                      A                      A                      A
 Frequencies --    247.0461               256.1726               274.0252
 Red. masses --      2.1892                 1.0470                 1.0687
 Frc consts  --      0.0787                 0.0405                 0.0473
 IR Inten    --      4.7656                 0.5250                 0.0097

                     10                     11                     12
                      A                      A                      A
 Frequencies --    293.1757               325.5555               351.0998
 Red. masses --      1.3538                 3.1778                 2.5381
 Frc consts  --      0.0686                 0.1984                 0.1843
 IR Inten    --     13.9104                 6.6743                 1.9673

                     13                     14                     15
                      A                      A                      A
 Frequencies --    370.4266               415.8336               432.5037
 Red. masses --      3.2778                 2.7595                 2.7230
 Frc consts  --      0.2650                 0.2811                 0.3001
 IR Inten    --      7.4001                 1.9485                 1.8789

                     16                     17                     18
                      A                      A                      A
 Frequencies --    462.2040               540.3799               604.9569
 Red. masses --      2.9047                 1.9638                 2.2867
 Frc consts  --      0.3656                 0.3379                 0.4931
 IR Inten    --      5.1035                83.3410                39.1702

                     19                     20                     21
                      A                      A                      A
 Frequencies --    626.1705               658.2225               767.9000
 Red. masses --      2.2106                 4.6164                 2.9604
 Frc consts  --      0.5107                 1.1784                 1.0285
 IR Inten    --     36.4881                39.6107                15.5050

                     22                     23                     24
                      A                      A                      A
 Frequencies --    772.5407               809.8256               866.1977
 Red. masses --      4.4728                 1.8179                 4.0702
 Frc consts  --      1.5728                 0.7024                 1.7993
 IR Inten    --     22.7734                 8.7437                 6.8058

                     25                     26                     27
                      A                      A                      A
 Frequencies --    938.0858               938.4861               983.4015
 Red. masses --      1.6327                 1.6274                 1.2038
 Frc consts  --      0.8465                 0.8445                 0.6859
 IR Inten    --      0.1042                 0.5329                 0.3955

                     28                     29                     30
                      A                      A                      A
 Frequencies --    984.5572              1063.9936              1067.6371
 Red. masses --      2.3694                 1.9085                 1.4076
 Frc consts  --      1.3532                 1.2729                 0.9453
 IR Inten    --     10.3596                92.3442                 1.3813

                     31                     32                     33
                      A                      A                      A
 Frequencies --   1074.6720              1151.8988              1219.2684
 Red. masses --      1.5797                 3.0221                 2.2234
 Frc consts  --      1.0749                 2.3626                 1.9475
 IR Inten    --     27.0015                87.4007               272.9448

                     34                     35                     36
                      A                      A                      A
 Frequencies --   1284.8777              1287.5717              1302.7272
 Red. masses --      1.5573                 2.7059                 2.1918
 Frc consts  --      1.5147                 2.6430                 2.1916
 IR Inten    --     72.0831                13.8600                18.7258

                     37                     38                     39
                      A                      A                      A
 Frequencies --   1329.6224              1399.5942              1425.0680
 Red. masses --      1.3621                 2.1855                 1.2840
 Frc consts  --      1.4188                 2.5223                 1.5364
 IR Inten    --    112.4032               211.0306                18.4917

                     40                     41                     42
                      A                      A                      A
 Frequencies --   1428.4317              1453.2248              1490.6342
 Red. masses --      1.2967                 1.2376                 1.5024
 Frc consts  --      1.5589                 1.5400                 1.9668
 IR Inten    --     26.5327                21.0241                64.6561

                     43                     44                     45
                      A                      A                      A
 Frequencies --   1496.7442              1500.0451              1518.9842
 Red. masses --      1.1325                 1.0464                 1.0472
 Frc consts  --      1.4948                 1.3873                 1.4236
 IR Inten    --     18.4028                 0.5194                 0.2633

                     46                     47                     48
                      A                      A                      A
 Frequencies --   1520.5309              1525.2396              1534.8812
 Red. masses --      1.0515                 1.0649                 1.0525
 Frc consts  --      1.4324                 1.4596                 1.4609
 IR Inten    --      0.8177                16.7922                 1.4181

                     49                     50                     51
                      A                      A                      A
 Frequencies --   1557.0084              1820.8812              2691.4918
 Red. masses --      1.0562                 8.9137                 1.0382
 Frc consts  --      1.5087                17.4130                 4.4312
 IR Inten    --     15.0665               412.7555                 8.8258

                     52                     53                     54
                      A                      A                      A
 Frequencies --   3058.1353              3060.3035              3067.2218
 Red. masses --      1.0357                 1.0382                 1.0386
 Frc consts  --      5.7069                 5.7285                 5.7570
 IR Inten    --      8.8405                24.5219                15.1613

                     55                     56                     57
                      A                      A                      A
 Frequencies --   3121.7701              3122.6282              3124.9436
 Red. masses --      1.1024                 1.0618                 1.1024
 Frc consts  --      6.3297                 6.1000                 6.3425
 IR Inten    --      8.2513                17.6176                16.0574

                     58                     59                     60
                      A                      A                      A
 Frequencies --   3133.1512              3138.8276              3175.0122
 Red. masses --      1.1030                 1.1025                 1.0997
 Frc consts  --      6.3798                 6.3995                 6.5316
 IR Inten    --     34.1777                44.0291                 0.9921

                     61                     62                     63
                      A                      A                      A
 Frequencies --   3178.1740              3192.8593              3619.7151
 Red. masses --      1.0991                 1.1070                 1.0766
 Frc consts  --      6.5408                 6.6488                 8.3108
 IR Inten    --      8.4736                 2.9193                39.0175

 - Thermochemistry -
 -------------------
 Temperature   298.150 Kelvin.  Pressure   1.00000 Atm.
 Atom     1 has atomic number  6 and mass  12.00000

 Molecular mass:   163.06670 amu.
 Principal axes and moments of inertia in atomic units:
                           1         2         3
     Eigenvalues --  1054.281802592.533913036.15530
           X            0.99956  -0.02865   0.00764
           Y            0.02871   0.99956  -0.00729
           Z           -0.00743   0.00751   0.99994
 This molecule is an asymmetric top.
 Rotational symmetry number  1.
 Warning -- assumption of classical behavior for rotation
           may cause significant error
 Rotational temperatures (Kelvin)      0.08215     0.03341     0.02853
 Rotational constants (GHZ):           1.71182     0.69613     0.59442
 Zero-point vibrational energy     506971.3 (Joules/Mol)
                                  121.16906 (Kcal/Mol)
 Warning -- explicit consideration of  18 degrees of freedom as
           vibrations may cause significant error
 Vibrational temperatures:     59.16    74.78   153.40   182.73   238.14
          (Kelvin)            302.46   355.44   368.58   394.26   421.81
                              468.40   505.15   532.96   598.29   622.28
                              665.01   777.49   870.40   900.92   947.04
                             1104.84  1111.51  1165.16  1246.27  1349.70
                             1350.27  1414.90  1416.56  1530.85  1536.09
                             1546.21  1657.33  1754.26  1848.65  1852.53
                             1874.33  1913.03  2013.70  2050.35  2055.19
                             2090.87  2144.69  2153.48  2158.23  2185.48
                             2187.70  2194.48  2208.35  2240.19  2619.84
                             3872.46  4399.97  4403.09  4413.05  4491.53
                             4492.77  4496.10  4507.91  4516.07  4568.13
                             4572.68  4593.81  5207.96

 Zero-point correction=                           0.193095 (Hartree/Particle)
 Thermal correction to Energy=                    0.205290
 Thermal correction to Enthalpy=                  0.206234
 Thermal correction to Gibbs Free Energy=         0.154649
 Sum of electronic and zero-point Energies=           -839.729048
 Sum of electronic and thermal Energies=              -839.716854
 Sum of electronic and thermal Enthalpies=            -839.715910
 Sum of electronic and thermal Free Energies=         -839.767495

                     E (Thermal)             CV                S
                      KCal/Mol        Cal/Mol-Kelvin    Cal/Mol-Kelvin
 Total                  128.821             44.593            108.570
 Electronic               0.000              0.000              0.000
 Translational            0.889              2.981             41.176
 Rotational               0.889              2.981             30.496
 Vibrational            127.044             38.632             36.898
 Vibration     1          0.594              1.981              5.204
 Vibration     2          0.596              1.977              4.741
 Vibration     3          0.605              1.944              3.330
 Vibration     4          0.611              1.926              2.991
 Vibration     5          0.624              1.885              2.486
 Vibration     6          0.642              1.825              2.042
 Vibration     7          0.661              1.768              1.752
 Vibration     8          0.666              1.752              1.688
 Vibration     9          0.676              1.721              1.571
 Vibration    10          0.688              1.686              1.456
 Vibration    11          0.710              1.624              1.282
 Vibration    12          0.728              1.573              1.161
 Vibration    13          0.742              1.533              1.078
 Vibration    14          0.779              1.436              0.906
 Vibration    15          0.793              1.399              0.851
 Vibration    16          0.820              1.334              0.760
 Vibration    17          0.895              1.161              0.564
 Vibration    18          0.964              1.021              0.441

 Optimization completed.
    -- Stationary point found.
 Normal termination of Gaussian 16 at Tue Dec  8 10:27:07 2020.

 ----------------------------------------------------------------------
 # B3LYP/6-311++G(d,p) empiricaldispersion=gd3bj scf=xqc pop=npa geom=c
 heck
 ----------------------------------------------------------------------

 -------------------------------------
 CID_58662570_JID_221_Energie_neutraal
 -------------------------------------
 Structure from the checkpoint file:  "JID_221.chk"
 Charge =  0 Multiplicity = 1

 SCF Done:  E(RB3LYP) =  -840.087604788     A.U. after   13 cycles
 Normal termination of Gaussian 16 at Tue Dec  8 10:28:51 2020.

 ----------------------------------------------------------------------
 # B3LYP/6-311++G(d,p) empiricaldispersion=gd3bj scf=xqc pop=npa geom=c
 heck
 ----------------------------------------------------------------------

 -----------------------------------
 CID_58662570_JID_221_Energie_kation
 -----------------------------------
 Structure from the checkpoint file:  "JID_221.chk"
 Charge =  1 Multiplicity = 2

 SCF Done:  E(UB3LYP) =  -839.754949262     A.U. after   33 cycles
 SCF Done:  E(UB3LYP) =  -839.754949262     a.u. after    1 cycles
 Normal termination of Gaussian 16 at Tue Dec  8 10:35:59 2020.
 Gaussian 16:  ES64L-G16RevA.03 25-Dec-2016

 ----------------------------------------------------------------------
 # B3LYP/6-311++G(d,p) empiricaldispersion=gd3bj scf=xqc pop=npa geom=c
 heck
 ----------------------------------------------------------------------

 ----------------------------------
 CID_58662570_JID_221_Energie_anion
 ----------------------------------
 Structure from the checkpoint file:  "JID_221.chk"
 Charge = -1 Multiplicity = 2

                         Standard orientation:
 ---------------------------------------------------------------------
 Center     Atomic      Atomic             Coordinates (Angstroms)
 Number     Number       Type             X           Y           Z
 ---------------------------------------------------------------------
      1          6           0        1.853165   -1.830952   -0.661110
      2          6           0        1.764323   -0.435827   -0.044535
      3          6           0        1.977009   -0.492786    1.468917
      4          6           0        2.730484    0.528542   -0.733897
      5          8           0        0.375167   -0.046821   -0.337927
      6          6           0       -0.099573    1.158908    0.047211
      7          8           0        0.503727    2.015415    0.666452
      8          7           0       -1.399851    1.316864   -0.383309
      9          6           0       -2.216777    0.239083   -0.870510
     10         16           0       -2.854457   -0.944572    0.413940
     11          1           0        2.855897   -2.243139   -0.510794
     12          1           0        1.650748   -1.791624   -1.736035
     13          1           0        1.127822   -2.506443   -0.196110
     14          1           0        2.974217   -0.892281    1.682734
     15          1           0        1.889719    0.499118    1.913261
     16          1           0        1.238186   -1.156407    1.931342
     17          1           0        2.512840    0.580391   -1.806004
     18          1           0        2.654620    1.529127   -0.306962
     19          1           0        3.756883    0.166453   -0.610781
     20          1           0       -1.864793    2.087176    0.079054
     21          1           0       -3.109805    0.654394   -1.340541
     22          1           0       -1.657482   -0.326059   -1.613191
     23          1           0       -1.641501   -1.456151    0.709491
 ---------------------------------------------------------------------

 SCF Done:  E(UB3LYP) =  -840.074766711     A.U. after   27 cycles

 The electronic state is 2-A.
 Alpha  occ. eigenvalues --  -88.73625 -19.05846 -18.99582 -14.23977 -10.22030
 Alpha  occ. eigenvalues --  -10.14407 -10.13355 -10.05908 -10.05842 -10.05799
 Alpha  occ. eigenvalues --   -7.82323  -5.78672  -5.78357  -5.77725  -1.00505
 Alpha  occ. eigenvalues --   -0.91746  -0.83479  -0.71140  -0.66119  -0.59540
 Alpha  occ. eigenvalues --   -0.59521  -0.56557  -0.53497  -0.44685  -0.41357
 Alpha  occ. eigenvalues --   -0.40375  -0.37610  -0.36499  -0.34652  -0.34309
 Alpha  occ. eigenvalues --   -0.33205  -0.31357  -0.30217  -0.28992  -0.28327
 Alpha  occ. eigenvalues --   -0.26959  -0.26180  -0.25544  -0.24741  -0.23856
 Alpha  occ. eigenvalues --   -0.20172  -0.17929  -0.16405  -0.14020   0.04542
 Alpha virt. eigenvalues --    0.06502   0.08384   0.08506   0.09460   0.09778
 Alpha virt. eigenvalues --    0.10396   0.11190   0.11665   0.12016   0.12499
 Alpha virt. eigenvalues --    0.13398   0.13494   0.13715   0.14889   0.15538

  Beta  occ. eigenvalues --  -88.73608 -19.05827 -18.99577 -14.23954 -10.22029
  Beta  occ. eigenvalues --  -10.14403 -10.13300 -10.05861 -10.05812 -10.05770
  Beta  occ. eigenvalues --   -7.82306  -5.78630  -5.78348  -5.77714  -1.00485
  Beta  occ. eigenvalues --   -0.91731  -0.83440  -0.71111  -0.66029  -0.59484
  Beta  occ. eigenvalues --   -0.59457  -0.56474  -0.53416  -0.44627  -0.41314
  Beta  occ. eigenvalues --   -0.40266  -0.37574  -0.36458  -0.34608  -0.34265
  Beta  occ. eigenvalues --   -0.33146  -0.31318  -0.30149  -0.28939  -0.28273
  Beta  occ. eigenvalues --   -0.26919  -0.26141  -0.25495  -0.24677  -0.23812
  Beta  occ. eigenvalues --   -0.20152  -0.17904  -0.16357  -0.13979
  Beta virt. eigenvalues --    0.07010   0.07997   0.08772   0.09229   0.09968
  Beta virt. eigenvalues --    0.10347   0.10843   0.11551   0.12086   0.12398
  Beta virt. eigenvalues --    0.12828   0.13605   0.13834   0.14015   0.15095

 Mulliken charges and spin densities:
               1          2
     1  C    0.819369  -1.231241
     2  C   -1.462473   1.395270
     3  C    0.768856  -1.193409
     4  C    0.630580  -1.042662
     5  O    0.063716  -0.029525
     6  C    0.318906  -0.273539
     7  O   -0.322349   0.019769
     8  N   -0.288086   0.158146
     9  C    0.858961  -1.369604
    10  S   -0.057879   0.100723
    11  H   -0.183965   0.333463
    12  H   -0.267616   0.423887
    13  H   -0.400548   0.545945
    14  H   -0.235422   0.393716
    15  H    0.079431   0.094374
    16  H   -0.079311   0.206170
    17  H   -0.098741   0.249951
    18  H    0.055583   0.116402
    19  H   -0.195905   0.354738
    20  H   -0.062979   0.334603
    21  H   -0.948762   1.210439
    22  H   -0.107840   0.324787
    23  H    0.116474  -0.122402
 Sum of Mulliken charges =  -1.00000   1.00000

 Dipole moment (field-independent basis, Debye):
    X=              0.5022    Y=              0.4439    Z=              1.8025  Tot=              1.9231
 Quadrupole moment (field-independent basis, Debye-Ang):
   XX=           -136.5760   YY=           -107.7751   ZZ=           -100.3562
   XY=              8.9312   XZ=             -5.5194   YZ=             -1.2485

 Summary of Natural Population Analysis:

                                       Natural Population
                Natural  -----------------------------------------------
    Atom  No    Charge         Core      Valence    Rydberg      Total
 -----------------------------------------------------------------------
      C    1   -0.28913      0.99960     2.28210    0.00743     3.28913
      C    2    0.13529      0.99953     1.85043    0.01475     2.86471
      C    3   -0.30153      0.99960     2.29520    0.00673     3.30153
      C    4   -0.30176      0.99960     2.29568    0.00649     3.30176
      O    5   -0.30386      0.99985     3.29279    0.01122     4.30386
      C    6    0.46904      0.99969     1.50531    0.02596     2.53096
      O    7   -0.33161      0.99987     3.32656    0.00517     4.33161
      N    8   -0.32632      0.99967     2.81429    0.01236     3.82632
      C    9   -0.14422      0.99959     2.12973    0.01489     3.14422
      S   10   -0.03993      4.99968     3.02568    0.01457     8.03993
      H   11    0.10454      0.00000     0.39338    0.00208     0.39546
      H   12    0.10473      0.00000     0.39388    0.00139     0.39527
      H   13    0.10345      0.00000     0.39496    0.00160     0.39655
      H   14    0.10447      0.00000     0.39436    0.00117     0.39553
      H   15    0.11365      0.00000     0.38541    0.00095     0.38635
      H   16    0.10150      0.00000     0.39730    0.00120     0.39850
      H   17    0.10291      0.00000     0.39607    0.00103     0.39709
      H   18    0.11324      0.00000     0.38580    0.00097     0.38676
      H   19    0.10443      0.00000     0.39440    0.00117     0.39557
      H   20    0.19811      0.00000     0.29875    0.00314     0.30189
      H   21    0.10760      0.00000     0.38791    0.00449     0.39240
      H   22    0.10998      0.00000     0.38799    0.00203     0.39002
      H   23    0.06542      0.00000     0.43119    0.00339     0.43458
 =======================================================================
   * Total *   -0.00000     13.99668    29.85914    0.14418    44.00000

 Normal termination of Gaussian 16 at Tue Dec  8 10:44:26 2020.
