 Gaussian 16, Revision A.03,

 -----------------------------------------------------------
 # opt freq B3LYP/6-31G(d) empiricaldispersion=gd3bj scf=xqc
 -----------------------------------------------------------

 -------------------------------
 CID_106229917_JID_4212_neutraal
 -------------------------------
 Symbolic Z-matrix:
 Charge =  0 Multiplicity = 1

 SCF Done:  E(RB3LYP) =  -635.783774060     A.U. after   15 cycles
 SCF Done:  E(RB3LYP) =  -635.804354973     A.U. after   13 cycles
 SCF Done:  E(RB3LYP) =  -635.806550986     A.U. after   13 cycles
 SCF Done:  E(RB3LYP) =  -635.805104085     A.U. after   12 cycles
 SCF Done:  E(RB3LYP) =  -635.807122974     A.U. after   12 cycles
 SCF Done:  E(RB3LYP) =  -635.806307109     A.U. after   12 cycles
 SCF Done:  E(RB3LYP) =  -635.807325643     A.U. after   11 cycles
 SCF Done:  E(RB3LYP) =  -635.807384770     A.U. after   11 cycles
 SCF Done:  E(RB3LYP) =  -635.807468355     A.U. after   10 cycles
 SCF Done:  E(RB3LYP) =  -635.807561266     A.U. after   11 cycles
 SCF Done:  E(RB3LYP) =  -635.808060888     A.U. after   12 cycles
 SCF Done:  E(RB3LYP) =  -635.808074340     A.U. after   11 cycles
 SCF Done:  E(RB3LYP) =  -635.808074225     A.U. after    7 cycles
 SCF Done:  E(RB3LYP) =  -635.808074101     A.U. after    9 cycles
 SCF Done:  E(RB3LYP) =  -635.808074575     A.U. after    9 cycles
 Optimization completed.
    -- Stationary point found.
 Normal termination of Gaussian 16 at Thu Dec 10 09:31:35 2020.

 --------------------------------------------------------------------
 #N Geom=AllCheck Guess=TCheck SCRF=Check GenChk RB3LYP/6-31G(d) Freq
 --------------------------------------------------------------------

 Structure from the checkpoint file:  "JID_4212.chk"
 -------------------------------
 CID_106229917_JID_4212_neutraal
 -------------------------------
 Charge =  0 Multiplicity = 1

 SCF Done:  E(RB3LYP) =  -635.808074575     A.U. after    1 cycles

  Exact polarizability: 142.061   0.928 123.805   3.409   7.304 105.374
 Approx polarizability: 173.592   6.090 181.904  10.484  16.984 165.147

                      1                      2                      3
                      A                      A                      A
 Frequencies --     20.2222                34.8469                42.0658
 Red. masses --      3.8330                 4.2923                 6.4345
 Frc consts  --      0.0009                 0.0031                 0.0067
 IR Inten    --      0.3027                 0.1029                 0.4379

                      4                      5                      6
                      A                      A                      A
 Frequencies --     47.5366                62.5967               104.4098
 Red. masses --      4.4577                 3.1273                 3.0186
 Frc consts  --      0.0059                 0.0072                 0.0194
 IR Inten    --      0.4347                 0.3897                 0.1391

                      7                      8                      9
                      A                      A                      A
 Frequencies --    138.5044               155.8650               168.9791
 Red. masses --      3.6470                 1.9493                 3.9570
 Frc consts  --      0.0412                 0.0279                 0.0666
 IR Inten    --      0.0743                 0.6658                 0.5489

                     10                     11                     12
                      A                      A                      A
 Frequencies --    215.4413               235.4588               241.0051
 Red. masses --      3.1888                 2.1484                 1.3182
 Frc consts  --      0.0872                 0.0702                 0.0451
 IR Inten    --      0.5725                 0.2655                 0.2150

                     13                     14                     15
                      A                      A                      A
 Frequencies --    249.3349               258.2577               270.5607
 Red. masses --      1.5193                 1.2885                 1.9231
 Frc consts  --      0.0556                 0.0506                 0.0829
 IR Inten    --      0.5572                 0.3960                 0.6491

                     16                     17                     18
                      A                      A                      A
 Frequencies --    297.2547               326.2860               364.5400
 Red. masses --      2.0042                 3.4465                 3.3718
 Frc consts  --      0.1043                 0.2162                 0.2640
 IR Inten    --      2.8911                 0.5465                 0.3993

                     19                     20                     21
                      A                      A                      A
 Frequencies --    407.9173               461.1996               469.0263
 Red. masses --      2.7049                 2.9921                 2.8961
 Frc consts  --      0.2652                 0.3750                 0.3754
 IR Inten    --      0.5394                 1.7103                 5.8840

                     22                     23                     24
                      A                      A                      A
 Frequencies --    538.3035               551.1531               602.1839
 Red. masses --      3.4504                 3.5724                 3.4472
 Frc consts  --      0.5891                 0.6394                 0.7365
 IR Inten    --     13.8367                 0.7399                 9.4995

                     25                     26                     27
                      A                      A                      A
 Frequencies --    611.5495               621.9874               625.7249
 Red. masses --      1.2202                 1.3458                 1.2640
 Frc consts  --      0.2689                 0.3068                 0.2916
 IR Inten    --     49.8498                49.4538                82.2439

                     28                     29                     30
                      A                      A                      A
 Frequencies --    643.3423               729.6387               766.7984
 Red. masses --      2.4458                 2.0251                 1.8426
 Frc consts  --      0.5964                 0.6352                 0.6383
 IR Inten    --     40.9006                30.1499                11.5604

                     31                     32                     33
                      A                      A                      A
 Frequencies --    779.5818               827.9707               843.7232
 Red. masses --      2.4072                 2.6835                 1.7952
 Frc consts  --      0.8619                 1.0839                 0.7530
 IR Inten    --     32.6435                12.9362                17.3182

                     34                     35                     36
                      A                      A                      A
 Frequencies --    870.1097               892.9117               945.1989
 Red. masses --      2.0594                 2.3535                 1.5722
 Frc consts  --      0.9186                 1.1056                 0.8275
 IR Inten    --      9.8371                 0.7196                 5.5025

                     37                     38                     39
                      A                      A                      A
 Frequencies --    964.3318              1002.4572              1014.7341
 Red. masses --      1.5516                 1.3395                 1.8559
 Frc consts  --      0.8501                 0.7931                 1.1259
 IR Inten    --     13.4122                 8.7866                12.6430

                     40                     41                     42
                      A                      A                      A
 Frequencies --   1035.5566              1063.2520              1086.3567
 Red. masses --      1.7473                 3.0652                 2.3236
 Frc consts  --      1.1040                 2.0417                 1.6157
 IR Inten    --     42.0441                45.3214                 3.6841

                     43                     44                     45
                      A                      A                      A
 Frequencies --   1112.0121              1128.8291              1135.6224
 Red. masses --      2.7828                 2.0300                 2.7865
 Frc consts  --      2.0275                 1.5240                 2.1173
 IR Inten    --     17.2872                 9.7642                36.9585

                     46                     47                     48
                      A                      A                      A
 Frequencies --   1156.5854              1194.7153              1204.3139
 Red. masses --      2.0419                 2.1753                 1.9667
 Frc consts  --      1.6093                 1.8294                 1.6806
 IR Inten    --     42.5257                38.2181                62.4958

                     49                     50                     51
                      A                      A                      A
 Frequencies --   1218.1981              1256.4447              1296.2362
 Red. masses --      2.1110                 1.4108                 1.2728
 Frc consts  --      1.8458                 1.3122                 1.2601
 IR Inten    --     98.4907                 1.9419                 2.9331

                     52                     53                     54
                      A                      A                      A
 Frequencies --   1315.2826              1334.8642              1348.2245
 Red. masses --      1.3696                 1.1654                 1.3243
 Frc consts  --      1.3960                 1.2235                 1.4182
 IR Inten    --      7.3717                 0.8984                 0.9830

                     55                     56                     57
                      A                      A                      A
 Frequencies --   1361.2852              1367.2416              1382.8572
 Red. masses --      1.4068                 1.9820                 1.3968
 Frc consts  --      1.5359                 2.1829                 1.5738
 IR Inten    --     21.6626                16.8674                11.3549

                     58                     59                     60
                      A                      A                      A
 Frequencies --   1396.0168              1401.9895              1416.2871
 Red. masses --      1.3995                 1.3687                 1.2452
 Frc consts  --      1.6070                 1.5851                 1.4716
 IR Inten    --      6.3223                 5.4119                 6.2552

                     61                     62                     63
                      A                      A                      A
 Frequencies --   1428.3982              1440.7703              1444.1091
 Red. masses --      1.2601                 1.2488                 1.2643
 Frc consts  --      1.5148                 1.5273                 1.5535
 IR Inten    --      7.4046                13.3717                 3.6299

                     64                     65                     66
                      A                      A                      A
 Frequencies --   1510.1306              1513.1273              1520.2470
 Red. masses --      1.1591                 1.0957                 1.0645
 Frc consts  --      1.5574                 1.4781                 1.4496
 IR Inten    --     14.7892                 0.2171                 1.5482

                     67                     68                     69
                      A                      A                      A
 Frequencies --   1525.2237              1528.3801              1532.6305
 Red. masses --      1.0783                 1.0542                 1.0598
 Frc consts  --      1.4780                 1.4510                 1.4667
 IR Inten    --      4.2410                 9.3014                 6.3376

                     70                     71                     72
                      A                      A                      A
 Frequencies --   1535.6637              1536.8906              1541.0312
 Red. masses --      1.0453                 1.0477                 1.0578
 Frc consts  --      1.4523                 1.4580                 1.4801
 IR Inten    --      3.6090                13.2127                 7.9935

                     73                     74                     75
                      A                      A                      A
 Frequencies --   1846.3531              2221.4426              3035.5673
 Red. masses --      9.4616                 5.9568                 1.0642
 Frc consts  --     19.0039                17.3194                 5.7775
 IR Inten    --    295.5146                 0.0442                18.9314

                     76                     77                     78
                      A                      A                      A
 Frequencies --   3045.2600              3046.6051              3050.6324
 Red. masses --      1.0403                 1.0425                 1.0649
 Frc consts  --      5.6841                 5.7009                 5.8391
 IR Inten    --     10.1271                22.5351                23.2359

                     79                     80                     81
                      A                      A                      A
 Frequencies --   3052.3766              3060.5052              3065.7244
 Red. masses --      1.0726                 1.0361                 1.0810
 Frc consts  --      5.8882                 5.7180                 5.9862
 IR Inten    --     23.6348                16.7157                12.8764

                     82                     83                     84
                      A                      A                      A
 Frequencies --   3078.1625              3088.4620              3093.5029
 Red. masses --      1.1020                 1.0858                 1.1005
 Frc consts  --      6.1522                 6.1021                 6.2052
 IR Inten    --      7.9420                13.4991                29.3472

                     85                     86                     87
                      A                      A                      A
 Frequencies --   3112.8232              3116.6659              3118.3231
 Red. masses --      1.1015                 1.0974                 1.1021
 Frc consts  --      6.2886                 6.2808                 6.3140
 IR Inten    --     49.7531                25.8534                53.1307

                     88                     89                     90
                      A                      A                      A
 Frequencies --   3128.9519              3140.8587              3148.3520
 Red. masses --      1.1025                 1.1024                 1.1021
 Frc consts  --      6.3593                 6.4076                 6.4362
 IR Inten    --     29.0513                20.2150                12.8853

                     91                     92                     93
                      A                      A                      A
 Frequencies --   3493.1556              3497.1414              3685.9997
 Red. masses --      1.1591                 1.0742                 1.0641
 Frc consts  --      8.3329                 7.7401                 8.5177
 IR Inten    --     55.1687                 0.5040                48.7959

 - Thermochemistry -
 -------------------
 Temperature   298.150 Kelvin.  Pressure   1.00000 Atm.
 Atom     1 has atomic number  6 and mass  12.00000

 Molecular mass:   197.14158 amu.
 Principal axes and moments of inertia in atomic units:
                           1         2         3
     Eigenvalues --  1467.173585677.071826252.82924
           X            0.99990  -0.01371   0.00287
           Y            0.01377   0.99963  -0.02352
           Z           -0.00255   0.02356   0.99972
 This molecule is an asymmetric top.
 Rotational symmetry number  1.
 Warning -- assumption of classical behavior for rotation
           may cause significant error
 Rotational temperatures (Kelvin)      0.05903     0.01526     0.01385
 Rotational constants (GHZ):           1.23008     0.31790     0.28863
 Zero-point vibrational energy     758424.3 (Joules/Mol)
                                  181.26777 (Kcal/Mol)
 Warning -- explicit consideration of  25 degrees of freedom as
           vibrations may cause significant error
 Vibrational temperatures:     29.10    50.14    60.52    68.39    90.06
          (Kelvin)            150.22   199.28   224.25   243.12   309.97
                              338.77   346.75   358.74   371.58   389.28
                              427.68   469.45   524.49   586.90   663.56
                              674.82   774.50   792.99   866.41   879.88
                              894.90   900.28   925.63  1049.79  1103.25
                             1121.64  1191.27  1213.93  1251.89  1284.70
                             1359.93  1387.46  1442.31  1459.98  1489.94
                             1529.78  1563.03  1599.94  1624.13  1633.91
                             1664.07  1718.93  1732.74  1752.72  1807.74
                             1864.99  1892.40  1920.57  1939.79  1958.59
                             1967.16  1989.62  2008.56  2017.15  2037.72
                             2055.15  2072.95  2077.75  2172.74  2177.05
                             2187.30  2194.46  2199.00  2205.11  2209.48
                             2211.24  2217.20  2656.49  3196.16  4367.50
                             4381.45  4383.39  4389.18  4391.69  4403.38
                             4410.89  4428.79  4443.61  4450.86  4478.66
                             4484.19  4486.57  4501.86  4519.00  4529.78
                             5025.87  5031.61  5303.33

 Zero-point correction=                           0.288869 (Hartree/Particle)
 Thermal correction to Energy=                    0.305730
 Thermal correction to Enthalpy=                  0.306674
 Thermal correction to Gibbs Free Energy=         0.242666
 Sum of electronic and zero-point Energies=           -635.519206
 Sum of electronic and thermal Energies=              -635.502345
 Sum of electronic and thermal Enthalpies=            -635.501401
 Sum of electronic and thermal Free Energies=         -635.565409

                     E (Thermal)             CV                S
                      KCal/Mol        Cal/Mol-Kelvin    Cal/Mol-Kelvin
 Total                  191.848             61.181            134.716
 Electronic               0.000              0.000              0.000
 Translational            0.889              2.981             41.741
 Rotational               0.889              2.981             32.321
 Vibrational            190.071             55.219             60.654
 Vibration     1          0.593              1.986              6.612
 Vibration     2          0.594              1.983              5.532
 Vibration     3          0.595              1.980              5.159
 Vibration     4          0.595              1.979              4.917
 Vibration     5          0.597              1.972              4.374
 Vibration     6          0.605              1.946              3.370
 Vibration     7          0.614              1.915              2.824
 Vibration     8          0.620              1.896              2.599
 Vibration     9          0.625              1.881              2.447
 Vibration    10          0.645              1.817              1.997
 Vibration    11          0.655              1.787              1.837
 Vibration    12          0.658              1.778              1.795
 Vibration    13          0.662              1.764              1.735
 Vibration    14          0.667              1.749              1.674
 Vibration    15          0.674              1.727              1.593
 Vibration    16          0.691              1.679              1.432
 Vibration    17          0.710              1.623              1.278
 Vibration    18          0.738              1.545              1.103
 Vibration    19          0.772              1.453              0.934
 Vibration    20          0.819              1.336              0.763
 Vibration    21          0.826              1.319              0.740
 Vibration    22          0.893              1.165              0.569
 Vibration    23          0.906              1.137              0.542
 Vibration    24          0.960              1.027              0.446
 Vibration    25          0.971              1.007              0.430

 Optimization completed.
    -- Stationary point found.
 Normal termination of Gaussian 16 at Thu Dec 10 09:40:24 2020.

 ----------------------------------------------------------------------
 # B3LYP/6-311++G(d,p) empiricaldispersion=gd3bj scf=xqc pop=npa geom=c
 heck
 ----------------------------------------------------------------------

 ---------------------------------------
 CID_106229917_JID_4212_Energie_neutraal
 ---------------------------------------
 Structure from the checkpoint file:  "JID_4212.chk"
 Charge =  0 Multiplicity = 1

 SCF Done:  E(RB3LYP) =  -636.006020038     A.U. after   14 cycles
 Normal termination of Gaussian 16 at Thu Dec 10 09:44:35 2020.

 ----------------------------------------------------------------------
 # B3LYP/6-311++G(d,p) empiricaldispersion=gd3bj scf=xqc pop=npa geom=c
 heck
 ----------------------------------------------------------------------

 -------------------------------------
 CID_106229917_JID_4212_Energie_kation
 -------------------------------------
 Structure from the checkpoint file:  "JID_4212.chk"
 Charge =  1 Multiplicity = 2

 SCF Done:  E(UB3LYP) =  -635.692150483     A.U. after   24 cycles
 Normal termination of Gaussian 16 at Thu Dec 10 09:54:34 2020.
 Gaussian 16:  ES64L-G16RevA.03 25-Dec-2016

 ----------------------------------------------------------------------
 # B3LYP/6-311++G(d,p) empiricaldispersion=gd3bj scf=xqc pop=npa geom=c
 heck
 ----------------------------------------------------------------------

 ------------------------------------
 CID_106229917_JID_4212_Energie_anion
 ------------------------------------
 Structure from the checkpoint file:  "JID_4212.chk"
 Charge = -1 Multiplicity = 2

                         Standard orientation:
 ---------------------------------------------------------------------
 Center     Atomic      Atomic             Coordinates (Angstroms)
 Number     Number       Type             X           Y           Z
 ---------------------------------------------------------------------
      1          6           0        4.046931   -1.414982    0.975485
      2          6           0        4.057651   -0.522548   -0.269342
      3          6           0        2.709090   -0.454106   -0.995388
      4          6           0        1.544386    0.084708   -0.142970
      5          6           0        1.861933    1.411274    0.425113
      6          6           0        2.103937    2.509803    0.867614
      7          7           0        0.315163    0.064707   -0.941325
      8          6           0       -0.918191    0.442896   -0.230132
      9          6           0       -1.409496    1.832509   -0.645510
     10          6           0       -1.989483   -0.654391   -0.472610
     11          6           0       -1.505491   -2.027509    0.015543
     12          6           0       -3.304834   -0.288948    0.179920
     13          8           0       -4.366183   -0.134973   -0.382994
     14          8           0       -3.178401   -0.139498    1.528173
     15          1           0        3.400117   -1.005123    1.759216
     16          1           0        5.052587   -1.508896    1.399318
     17          1           0        3.688345   -2.424258    0.737716
     18          1           0        4.368858    0.491320    0.009782
     19          1           0        4.807712   -0.895089   -0.978332
     20          1           0        2.807259    0.183205   -1.884611
     21          1           0        2.409793   -1.449049   -1.346081
     22          1           0        1.381940   -0.608375    0.691770
     23          1           0        2.317310    3.477687    1.260862
     24          1           0        0.439287    0.663475   -1.755158
     25          1           0       -0.702203    0.460352    0.844446
     26          1           0       -1.653627    1.851719   -1.715530
     27          1           0       -2.310516    2.123941   -0.096238
     28          1           0       -0.632947    2.577376   -0.449608
     29          1           0       -2.192995   -0.701683   -1.547472
     30          1           0       -1.332934   -2.017906    1.096771
     31          1           0       -2.239144   -2.809311   -0.207014
     32          1           0       -0.568168   -2.270239   -0.491485
     33          1           0       -4.068726    0.091430    1.853157
 ---------------------------------------------------------------------

 SCF Done:  E(UB3LYP) =  -635.992274992     A.U. after   33 cycles
 SCF Done:  E(UB3LYP) =  -635.992274992     a.u. after    1 cycles

 The electronic state is 2-A.
 Alpha  occ. eigenvalues --  -19.07395 -19.02315 -14.21474 -10.21116 -10.13536
 Alpha  occ. eigenvalues --  -10.11671 -10.09539 -10.08367 -10.08096 -10.07550
 Alpha  occ. eigenvalues --  -10.07470 -10.07181 -10.07096 -10.06615  -1.01506
 Alpha  occ. eigenvalues --   -0.92638  -0.83422  -0.73094  -0.69826  -0.66666
 Alpha  occ. eigenvalues --   -0.64668  -0.61280  -0.57117  -0.56128  -0.53073
 Alpha  occ. eigenvalues --   -0.49989  -0.48768  -0.44809  -0.41050  -0.40697
 Alpha  occ. eigenvalues --   -0.39578  -0.38564  -0.37361  -0.36246  -0.34809
 Alpha  occ. eigenvalues --   -0.34122  -0.33657  -0.31985  -0.31478  -0.30673
 Alpha  occ. eigenvalues --   -0.29743  -0.29470  -0.28468  -0.27649  -0.25465
 Alpha  occ. eigenvalues --   -0.25321  -0.24829  -0.24364  -0.23851  -0.23298
 Alpha  occ. eigenvalues --   -0.19491  -0.18876  -0.18513  -0.14732   0.04188
 Alpha virt. eigenvalues --    0.05810   0.06473   0.07103   0.07589   0.08491
 Alpha virt. eigenvalues --    0.08705   0.08975   0.09306   0.10101   0.10540
 Alpha virt. eigenvalues --    0.10893   0.11430   0.11808   0.12241   0.12510

  Beta  occ. eigenvalues --  -19.07345 -19.02298 -14.21463 -10.21110 -10.13529
  Beta  occ. eigenvalues --  -10.11666 -10.09530 -10.08369 -10.08081 -10.07524
  Beta  occ. eigenvalues --  -10.07453 -10.07162 -10.07080 -10.06585  -1.01442
  Beta  occ. eigenvalues --   -0.92581  -0.83405  -0.73071  -0.69795  -0.66641
  Beta  occ. eigenvalues --   -0.64643  -0.61241  -0.57055  -0.56078  -0.53020
  Beta  occ. eigenvalues --   -0.49918  -0.48706  -0.44758  -0.41015  -0.40671
  Beta  occ. eigenvalues --   -0.39540  -0.38536  -0.37321  -0.36217  -0.34774
  Beta  occ. eigenvalues --   -0.34098  -0.33621  -0.31954  -0.31444  -0.30638
  Beta  occ. eigenvalues --   -0.29719  -0.29436  -0.28438  -0.27626  -0.25439
  Beta  occ. eigenvalues --   -0.25289  -0.24795  -0.24329  -0.23824  -0.23250
  Beta  occ. eigenvalues --   -0.19471  -0.18825  -0.18474  -0.14715
  Beta virt. eigenvalues --    0.06226   0.07012   0.07167   0.07502   0.08233
  Beta virt. eigenvalues --    0.08699   0.08879   0.09183   0.09547   0.10269
  Beta virt. eigenvalues --    0.10792   0.11090   0.11711   0.11902   0.12398

 Mulliken charges and spin densities:
               1          2
     1  C    0.700888  -1.289935
     2  C   -0.550423   0.354136
     3  C   -0.478693   0.258396
     4  C   -1.457763   1.015663
     5  C    2.909173  -2.747252
     6  C   -1.066717   0.583715
     7  N    0.272902   0.022585
     8  C   -0.384508   0.031159
     9  C    0.261145  -1.006375
    10  C    0.626653   0.034414
    11  C   -0.066669  -0.607683
    12  C   -0.071767  -0.287332
    13  O   -0.266559   0.033001
    14  O   -0.155475   0.027178
    15  H   -0.211131   0.358460
    16  H   -0.319626   0.470105
    17  H   -0.043418   0.177402
    18  H    0.257570  -0.119030
    19  H   -0.442231   0.601811
    20  H   -0.107125   0.226337
    21  H   -0.053128   0.221678
    22  H    0.540778  -0.392726
    23  H   -0.931491   1.117485
    24  H    0.216158   0.029635
    25  H    0.111553   0.091365
    26  H    0.012652   0.129942
    27  H   -0.137752   0.327357
    28  H    0.162758  -0.005522
    29  H    0.114611   0.116227
    30  H    0.010506   0.150787
    31  H   -0.076904   0.247169
    32  H   -0.017749   0.174741
    33  H   -0.358221   0.655107
 Sum of Mulliken charges =  -1.00000   1.00000

 Dipole moment (field-independent basis, Debye):
    X=             -0.5147    Y=             -0.4064    Z=             -3.1362  Tot=              3.2040
 Quadrupole moment (field-independent basis, Debye-Ang):
   XX=           -187.8796   YY=           -130.7535   ZZ=           -124.2724
   XY=              5.1305   XZ=              2.2594   YZ=             -5.3227

 Summary of Natural Population Analysis:

                                       Natural Population
                Natural  -----------------------------------------------
    Atom  No    Charge         Core      Valence    Rydberg      Total
 -----------------------------------------------------------------------
      C    1   -0.28839      0.99967     2.28317    0.00555     3.28839
      C    2   -0.19351      0.99964     2.18589    0.00798     3.19351
      C    3   -0.18108      0.99961     2.17146    0.01001     3.18108
      C    4   -0.04763      0.99952     2.03590    0.01221     3.04763
      C    5   -0.01170      0.99937     2.00273    0.00960     3.01170
      C    6   -0.11612      0.99927     2.11243    0.00441     3.11612
      N    7   -0.33510      0.99973     2.82398    0.01138     3.83510
      C    8   -0.00821      0.99958     1.99617    0.01245     3.00821
      C    9   -0.29457      0.99964     2.28889    0.00604     3.29457
      C   10   -0.15340      0.99953     2.14163    0.01223     3.15340
      C   11   -0.28360      0.99964     2.27903    0.00492     3.28360
      C   12    0.41231      0.99967     1.56123    0.02680     2.58769
      O   13   -0.30651      0.99987     3.30039    0.00625     4.30651
      O   14   -0.34932      0.99988     3.34215    0.00729     4.34932
      H   15    0.09712      0.00000     0.40168    0.00121     0.40288
      H   16    0.10053      0.00000     0.39844    0.00102     0.39947
      H   17    0.09629      0.00000     0.40258    0.00113     0.40371
      H   18    0.09995      0.00000     0.39880    0.00125     0.40005
      H   19    0.09725      0.00000     0.40155    0.00120     0.40275
      H   20    0.09718      0.00000     0.40162    0.00120     0.40282
      H   21    0.10261      0.00000     0.39606    0.00132     0.39739
      H   22    0.10723      0.00000     0.38982    0.00295     0.39277
      H   23    0.11268      0.00000     0.38546    0.00187     0.38732
      H   24    0.17417      0.00000     0.32314    0.00269     0.32583
      H   25    0.09946      0.00000     0.39792    0.00262     0.40054
      H   26    0.09547      0.00000     0.40360    0.00093     0.40453
      H   27    0.10538      0.00000     0.39360    0.00102     0.39462
      H   28    0.10860      0.00000     0.39053    0.00088     0.39140
      H   29    0.10695      0.00000     0.39150    0.00155     0.39305
      H   30    0.10288      0.00000     0.39571    0.00141     0.39712
      H   31    0.09977      0.00000     0.39933    0.00090     0.40023
      H   32    0.10991      0.00000     0.38876    0.00133     0.39009
      H   33    0.24338      0.00000     0.24276    0.01386     0.25662
 =======================================================================
   * Total *    0.00000     13.99462    39.82793    0.17746    54.00000

 Normal termination of Gaussian 16 at Thu Dec 10 10:08:30 2020.
