 Gaussian 16, Revision A.03,

 -----------------------------------------------------------
 # opt freq B3LYP/6-31G(d) empiricaldispersion=gd3bj scf=xqc
 -----------------------------------------------------------

 ----------------------------
 CID_59443543_JID_25_neutraal
 ----------------------------
 Symbolic Z-matrix:
 Charge =  0 Multiplicity = 1

 SCF Done:  E(RB3LYP) =  -424.002079086     A.U. after   13 cycles
 SCF Done:  E(RB3LYP) =  -424.007053475     A.U. after   11 cycles
 SCF Done:  E(RB3LYP) =  -424.007957379     A.U. after   10 cycles
 SCF Done:  E(RB3LYP) =  -424.008148540     A.U. after   10 cycles
 SCF Done:  E(RB3LYP) =  -424.008133785     A.U. after   10 cycles
 SCF Done:  E(RB3LYP) =  -424.008192770     A.U. after   10 cycles
 SCF Done:  E(RB3LYP) =  -424.008213113     A.U. after    9 cycles
 SCF Done:  E(RB3LYP) =  -424.008214485     A.U. after    8 cycles
 Optimization completed.
    -- Stationary point found.

 1\1\GINC-NODE354\FOpt\RB3LYP\6-31G(d)\C8H16N2\VSC10255\08-Dec-2020\0\\
 # opt freq B3LYP/6-31G(d) empiricaldispersion=gd3bj scf=xqc\\CID_59443
 543_JID_25_neutraal\\0,1\C,0.9219986889,-0.1105389191,0.0543519353\C,0
 .5193846385,-0.2085082225,1.544804486\C,1.1516009015,0.9800454575,2.28
 49679538\C,-1.0168383124,-0.0997408076,1.6666350477\C,0.9777680298,-1.
 542317265,2.1194243423\C,1.8800481738,-1.6771406782,3.1094640478\N,2.3
 298697961,-2.9312240276,3.5900135797\C,1.4498661023,-4.0492479319,3.26
 3683927\C,1.0739224678,-3.9476800577,1.7859143255\N,0.3519614525,-2.69

 Normal termination of Gaussian 16 at Tue Dec  8 10:14:40 2020.

 --------------------------------------------------------------------
 #N Geom=AllCheck Guess=TCheck SCRF=Check GenChk RB3LYP/6-31G(d) Freq
 --------------------------------------------------------------------

 Structure from the checkpoint file:  "JID_25.chk"
 ----------------------------
 CID_59443543_JID_25_neutraal
 ----------------------------
 Charge =  0 Multiplicity = 1

 SCF Done:  E(RB3LYP) =  -424.008214485     A.U. after    1 cycles

  Exact polarizability: 116.025   4.416  97.634   0.575   0.148  75.096
 Approx polarizability: 148.468  15.144 151.622  -1.536  -3.805 108.640

                      1                      2                      3
                      A                      A                      A
 Frequencies --     61.1867                93.9569               199.7630
 Red. masses --      3.0309                 2.7596                 1.3719
 Frc consts  --      0.0067                 0.0144                 0.0323
 IR Inten    --      0.0136                 0.7823                 0.7526

                      4                      5                      6
                      A                      A                      A
 Frequencies --    224.7400               250.4799               264.2578
 Red. masses --      2.4710                 1.6324                 1.1460
 Frc consts  --      0.0735                 0.0603                 0.0472
 IR Inten    --      0.5676                 0.1795                 1.7131

                      7                      8                      9
                      A                      A                      A
 Frequencies --    286.2333               317.6401               325.1447
 Red. masses --      2.0063                 2.6159                 1.0934
 Frc consts  --      0.0968                 0.1555                 0.0681
 IR Inten    --      3.2185                 1.3837                 0.0399

                     10                     11                     12
                      A                      A                      A
 Frequencies --    345.3119               368.3311               437.4712
 Red. masses --      2.5588                 2.2839                 2.4921
 Frc consts  --      0.1798                 0.1826                 0.2810
 IR Inten    --      0.1613                 2.8764                 5.2319

                     13                     14                     15
                      A                      A                      A
 Frequencies --    458.3164               472.1536               502.5233
 Red. masses --      2.9636                 2.9970                 2.0675
 Frc consts  --      0.3668                 0.3936                 0.3076
 IR Inten    --      7.1825                 9.1365                39.2218

                     16                     17                     18
                      A                      A                      A
 Frequencies --    575.6338               622.6196               678.5863
 Red. masses --      2.0200                 2.5334                 2.9277
 Frc consts  --      0.3944                 0.5786                 0.7943
 IR Inten    --    138.1457                31.7263               100.6311

                     19                     20                     21
                      A                      A                      A
 Frequencies --    716.8763               798.8296               824.7272
 Red. masses --      1.7316                 1.3326                 2.2555
 Frc consts  --      0.5243                 0.5010                 0.9039
 IR Inten    --     24.8840                13.3382                15.9660

                     22                     23                     24
                      A                      A                      A
 Frequencies --    868.0038               908.0590               934.4640
 Red. masses --      2.4970                 2.1503                 1.8062
 Frc consts  --      1.1085                 1.0447                 0.9292
 IR Inten    --      4.9350                 0.9528                 0.2413

                     25                     26                     27
                      A                      A                      A
 Frequencies --    953.3789               974.4741              1003.9045
 Red. masses --      1.6854                 1.1995                 2.1126
 Frc consts  --      0.9026                 0.6711                 1.2544
 IR Inten    --      1.3718                 0.1280                 7.0247

                     28                     29                     30
                      A                      A                      A
 Frequencies --   1034.4809              1058.7708              1063.0861
 Red. masses --      2.5335                 1.3912                 1.4252
 Frc consts  --      1.5974                 0.9189                 0.9490
 IR Inten    --      5.6504                 0.1739                 0.5685

                     31                     32                     33
                      A                      A                      A
 Frequencies --   1115.5198              1127.9529              1172.3211
 Red. masses --      1.9432                 2.4859                 2.3117
 Frc consts  --      1.4247                 1.8634                 1.8719
 IR Inten    --      5.1502                 4.4053                33.4974

                     34                     35                     36
                      A                      A                      A
 Frequencies --   1195.3457              1240.0937              1256.1100
 Red. masses --      2.4081                 2.6146                 1.3319
 Frc consts  --      2.0273                 2.3690                 1.2381
 IR Inten    --     63.6706                 4.6261                 3.5134

                     37                     38                     39
                      A                      A                      A
 Frequencies --   1258.7200              1272.4406              1319.5221
 Red. masses --      1.4495                 1.6876                 2.7231
 Frc consts  --      1.3531                 1.6098                 2.7935
 IR Inten    --      0.8060                22.6217                11.7577

                     40                     41                     42
                      A                      A                      A
 Frequencies --   1357.6867              1390.2161              1410.1004
 Red. masses --      1.3753                 1.3712                 1.3558
 Frc consts  --      1.4936                 1.5614                 1.5884
 IR Inten    --      8.0714                94.3632                17.0396

                     43                     44                     45
                      A                      A                      A
 Frequencies --   1424.5626              1430.3095              1455.6049
 Red. masses --      1.2139                 1.3164                 1.2231
 Frc consts  --      1.4514                 1.5867                 1.5268
 IR Inten    --      4.8057                 1.1926                 5.1727

                     46                     47                     48
                      A                      A                      A
 Frequencies --   1494.5653              1505.9422              1511.1681
 Red. masses --      1.4032                 1.3456                 1.0986
 Frc consts  --      1.8467                 1.7980                 1.4781
 IR Inten    --      7.5007                14.5776                 4.1238

                     49                     50                     51
                      A                      A                      A
 Frequencies --   1515.8513              1521.7768              1532.4201
 Red. masses --      1.0507                 1.0467                 1.0676
 Frc consts  --      1.4225                 1.4281                 1.4771
 IR Inten    --      0.3686                 0.9640                 0.9342

                     52                     53                     54
                      A                      A                      A
 Frequencies --   1532.8158              1534.2857              1539.8686
 Red. masses --      1.0873                 1.0989                 1.0900
 Frc consts  --      1.5052                 1.5242                 1.5229
 IR Inten    --      3.7337                 7.1904                13.2300

                     55                     56                     57
                      A                      A                      A
 Frequencies --   1553.1137              1757.4603              2985.0375
 Red. masses --      1.0726                 5.9880                 1.0727
 Frc consts  --      1.5245                10.8969                 5.6318
 IR Inten    --     12.3241                23.8390                40.4110

                     58                     59                     60
                      A                      A                      A
 Frequencies --   2999.1000              3040.6070              3046.5888
 Red. masses --      1.0682                 1.0350                 1.0354
 Frc consts  --      5.6609                 5.6379                 5.6620
 IR Inten    --     94.7030                30.7568                27.5509

                     61                     62                     63
                      A                      A                      A
 Frequencies --   3053.1320              3081.8735              3086.1359
 Red. masses --      1.0362                 1.0962                 1.0907
 Frc consts  --      5.6912                 6.1344                 6.1207
 IR Inten    --     21.4151                37.5077                71.3776

                     64                     65                     66
                      A                      A                      A
 Frequencies --   3100.0765              3113.3610              3115.9990
 Red. masses --      1.1008                 1.1020                 1.1025
 Frc consts  --      6.2331                 6.2932                 6.3071
 IR Inten    --     32.0806                 5.1378                18.0371

                     67                     68                     69
                      A                      A                      A
 Frequencies --   3122.1169              3122.8230              3130.8424
 Red. masses --      1.1021                 1.1023                 1.1013
 Frc consts  --      6.3294                 6.3336                 6.3605
 IR Inten    --     67.8567                41.9361                31.9356

                     70                     71                     72
                      A                      A                      A
 Frequencies --   3253.2185              3541.8157              3552.2816
 Red. masses --      1.0908                 1.0754                 1.0743
 Frc consts  --      6.8018                 7.9486                 7.9870
 IR Inten    --      7.8631                 1.0255                 0.7477

 - Thermochemistry -
 -------------------
 Temperature   298.150 Kelvin.  Pressure   1.00000 Atm.
 Atom     1 has atomic number  6 and mass  12.00000

 Molecular mass:   140.13135 amu.
 Principal axes and moments of inertia in atomic units:
                           1         2         3
     Eigenvalues --   753.922671965.984282268.90192
           X            0.99996  -0.00831   0.00312
           Y            0.00824   0.99974   0.02120
           Z           -0.00329  -0.02117   0.99977
 This molecule is an asymmetric top.
 Rotational symmetry number  1.
 Warning -- assumption of classical behavior for rotation
           may cause significant error
 Rotational temperatures (Kelvin)      0.11488     0.04406     0.03817
 Rotational constants (GHZ):           2.39380     0.91798     0.79542
 Zero-point vibrational energy     624415.9 (Joules/Mol)
                                  149.23898 (Kcal/Mol)
 Warning -- explicit consideration of  16 degrees of freedom as
           vibrations may cause significant error
 Vibrational temperatures:     88.03   135.18   287.41   323.35   360.38
          (Kelvin)            380.21   411.83   457.01   467.81   496.83
                              529.95   629.42   659.42   679.32   723.02
                              828.21   895.81   976.33  1031.43  1149.34
                             1186.60  1248.86  1306.49  1344.49  1371.70
                             1402.05  1444.39  1488.39  1523.34  1529.54
                             1604.98  1622.87  1686.71  1719.84  1784.22
                             1807.26  1811.02  1830.76  1898.50  1953.41
                             2000.21  2028.82  2049.63  2057.90  2094.29
                             2150.35  2166.71  2174.23  2180.97  2189.50
                             2204.81  2205.38  2207.49  2215.53  2234.58
                             2528.59  4294.80  4315.04  4374.76  4383.36
                             4392.78  4434.13  4440.26  4460.32  4479.43
                             4483.23  4492.03  4493.05  4504.58  4680.66
                             5095.88  5110.94

 Zero-point correction=                           0.237827 (Hartree/Particle)
 Thermal correction to Energy=                    0.248494
 Thermal correction to Enthalpy=                  0.249438
 Thermal correction to Gibbs Free Energy=         0.202616
 Sum of electronic and zero-point Energies=           -423.770387
 Sum of electronic and thermal Energies=              -423.759721
 Sum of electronic and thermal Enthalpies=            -423.758776
 Sum of electronic and thermal Free Energies=         -423.805598

                     E (Thermal)             CV                S
                      KCal/Mol        Cal/Mol-Kelvin    Cal/Mol-Kelvin
 Total                  155.932             42.188             98.545
 Electronic               0.000              0.000              0.000
 Translational            0.889              2.981             40.724
 Rotational               0.889              2.981             29.599
 Vibrational            154.155             36.226             28.223
 Vibration     1          0.597              1.973              4.419
 Vibration     2          0.603              1.954              3.576
 Vibration     3          0.638              1.840              2.135
 Vibration     4          0.649              1.803              1.921
 Vibration     5          0.663              1.762              1.727
 Vibration     6          0.671              1.738              1.633
 Vibration     7          0.684              1.699              1.496
 Vibration     8          0.704              1.640              1.322
 Vibration     9          0.709              1.625              1.284
 Vibration    10          0.724              1.585              1.187
 Vibration    11          0.741              1.537              1.087
 Vibration    12          0.798              1.389              0.835
 Vibration    13          0.816              1.342              0.771
 Vibration    14          0.829              1.312              0.732
 Vibration    15          0.858              1.244              0.652
 Vibration    16          0.932              1.084              0.494

                           ! Non-Optimized Parameters !

 1\1\GINC-NODE354\Freq\RB3LYP\6-31G(d)\C8H16N2\VSC10255\08-Dec-2020\0\\
 #N Geom=AllCheck Guess=TCheck SCRF=Check GenChk RB3LYP/6-31G(d) Freq\\
 CID_59443543_JID_25_neutraal\\0,1\C,0.9219986889,-0.1105389191,0.05435
 19353\C,0.5193846385,-0.2085082225,1.544804486\C,1.1516009015,0.980045
 4575,2.2849679538\C,-1.0168383124,-0.0997408076,1.6666350477\C,0.97776
 80298,-1.542317265,2.1194243423\C,1.8800481738,-1.6771406782,3.1094640
 478\N,2.3298697961,-2.9312240276,3.5900135797\C,1.4498661023,-4.049247
 9319,3.263683927\C,1.0739224678,-3.9476800577,1.7859143255\N,0.3519614

 Normal termination of Gaussian 16 at Tue Dec  8 10:19:26 2020.

 ----------------------------------------------------------------------
 # B3LYP/6-311++G(d,p) empiricaldispersion=gd3bj scf=xqc pop=npa geom=c
 heck
 ----------------------------------------------------------------------

 ------------------------------------
 CID_59443543_JID_25_Energie_neutraal
 ------------------------------------
 Structure from the checkpoint file:  "JID_25.chk"
 Charge =  0 Multiplicity = 1

 SCF Done:  E(RB3LYP) =  -424.133156610     A.U. after   14 cycles
 Normal termination of Gaussian 16 at Tue Dec  8 10:21:13 2020.

 ----------------------------------------------------------------------
 # B3LYP/6-311++G(d,p) empiricaldispersion=gd3bj scf=xqc pop=npa geom=c
 heck
 ----------------------------------------------------------------------

 ----------------------------------
 CID_59443543_JID_25_Energie_kation
 ----------------------------------
 Structure from the checkpoint file:  "JID_25.chk"
 Charge =  1 Multiplicity = 2

 SCF Done:  E(UB3LYP) =  -423.891690869     A.U. after   16 cycles
 Normal termination of Gaussian 16 at Tue Dec  8 10:23:51 2020.
 Gaussian 16:  ES64L-G16RevA.03 25-Dec-2016

 ---------------------------------
 CID_59443543_JID_25_Energie_anion
 ---------------------------------
 Structure from the checkpoint file:  "JID_25.chk"
 Charge = -1 Multiplicity = 2

                         Standard orientation:
 ---------------------------------------------------------------------
 Center     Atomic      Atomic             Coordinates (Angstroms)
 Number     Number       Type             X           Y           Z
 ---------------------------------------------------------------------
      1          6           0       -2.047547   -0.776604   -1.205427
      2          6           0       -1.535976    0.021489    0.017065
      3          6           0       -2.160924    1.423846   -0.037994
      4          6           0       -2.007115   -0.673639    1.313784
      5          6           0       -0.014201    0.078445   -0.000432
      6          6           0        0.705878    1.209707   -0.119596
      7          7           0        2.120435    1.230977   -0.187187
      8          6           0        2.763152    0.020605    0.315596
      9          6           0        2.041274   -1.187822   -0.279423
     10          7           0        0.650355   -1.168595    0.165592
     11          1           0       -3.143255   -0.812988   -1.207926
     12          1           0       -1.693308   -1.814543   -1.205193
     13          1           0       -1.715149   -0.308094   -2.137983
     14          1           0       -3.252981    1.344395   -0.003522
     15          1           0       -1.840069    2.034924    0.812212
     16          1           0       -1.892105    1.948171   -0.961323
     17          1           0       -1.586812   -1.679200    1.408900
     18          1           0       -1.689875   -0.099650    2.190931
     19          1           0       -3.100595   -0.755558    1.329894
     20          1           0        0.232639    2.177132   -0.213228
     21          1           0        2.508432    2.069684    0.231166
     22          1           0        2.723535   -0.057422    1.414305
     23          1           0        3.814971    0.017737    0.008296
     24          1           0        2.135598   -1.144354   -1.376683
     25          1           0        2.512387   -2.113395    0.069248
     26          1           0        0.123807   -1.939673   -0.229364
 ---------------------------------------------------------------------

 SCF Done:  E(UB3LYP) =  -424.116947505     A.U. after   32 cycles

 The electronic state is 2-A.
 Alpha  occ. eigenvalues --  -14.19588 -14.19449 -10.08510 -10.08445 -10.08160
 Alpha  occ. eigenvalues --  -10.07162 -10.06290 -10.05213 -10.05105 -10.04835
 Alpha  occ. eigenvalues --   -0.83209  -0.77803  -0.71151  -0.63959  -0.58731
 Alpha  occ. eigenvalues --   -0.57852  -0.56335  -0.52454  -0.46130  -0.42342
 Alpha  occ. eigenvalues --   -0.38951  -0.37896  -0.36074  -0.34523  -0.33369
 Alpha  occ. eigenvalues --   -0.32136  -0.31654  -0.29195  -0.28034  -0.27498
 Alpha  occ. eigenvalues --   -0.26554  -0.25958  -0.24587  -0.23530  -0.22447
 Alpha  occ. eigenvalues --   -0.21702  -0.19675  -0.15332  -0.05786   0.04706
 Alpha virt. eigenvalues --    0.06900   0.07462   0.08846   0.09169   0.09348
 Alpha virt. eigenvalues --    0.10342   0.10651   0.11316   0.11621   0.12175
 Alpha virt. eigenvalues --    0.13073   0.13581   0.14480   0.14714   0.15683

  Beta  occ. eigenvalues --  -14.19565 -14.19431 -10.08487 -10.08422 -10.08157
  Beta  occ. eigenvalues --  -10.07162 -10.06278 -10.05176 -10.05081 -10.04815
  Beta  occ. eigenvalues --   -0.83174  -0.77760  -0.71130  -0.63916  -0.58677
  Beta  occ. eigenvalues --   -0.57800  -0.56280  -0.52402  -0.46067  -0.42272
  Beta  occ. eigenvalues --   -0.38902  -0.37845  -0.36040  -0.34487  -0.33331
  Beta  occ. eigenvalues --   -0.32099  -0.31617  -0.29163  -0.28001  -0.27467
  Beta  occ. eigenvalues --   -0.26510  -0.25927  -0.24537  -0.23500  -0.22417
  Beta  occ. eigenvalues --   -0.21671  -0.19648  -0.15306  -0.05765
  Beta virt. eigenvalues --    0.06981   0.07922   0.08531   0.09214   0.09901
  Beta virt. eigenvalues --    0.10016   0.10653   0.11004   0.11602   0.12295
  Beta virt. eigenvalues --    0.12766   0.13436   0.13870   0.14787   0.14957

 Mulliken charges and spin densities:
               1          2
     1  C    0.719533  -1.325462
     2  C   -2.050470   2.733598
     3  C    0.769252  -1.421109
     4  C    0.338974  -0.893011
     5  C    1.727164  -2.369462
     6  C   -0.539369   0.491566
     7  N   -0.259230   0.203747
     8  C    0.118643  -0.533814
     9  C    0.685811  -0.986224
    10  N   -0.144590   0.160601
    11  H   -0.245759   0.395942
    12  H   -0.480447   0.599392
    13  H    0.035843   0.115034
    14  H    0.095426   0.048305
    15  H   -0.180817   0.317708
    16  H   -0.058264   0.188394
    17  H   -0.144537   0.281421
    18  H    0.069611   0.076635
    19  H   -0.110242   0.253636
    20  H   -0.306862   0.495149
    21  H   -0.361388   0.606281
    22  H   -0.030041   0.176742
    23  H   -0.351279   0.531718
    24  H    0.086563   0.066330
    25  H   -0.598149   0.763291
    26  H    0.214624   0.023592
 Sum of Mulliken charges =  -1.00000   1.00000

 Dipole moment (field-independent basis, Debye):
    X=             -1.7364    Y=              0.3591    Z=              0.0615  Tot=              1.7742
 Quadrupole moment (field-independent basis, Debye-Ang):
   XX=           -122.6042   YY=           -108.0648   ZZ=            -93.2225
   XY=             -3.1494   XZ=             -1.7932   YZ=             -0.9085

 Summary of Natural Population Analysis:

                                       Natural Population
                Natural  -----------------------------------------------
    Atom  No    Charge         Core      Valence    Rydberg      Total
 -----------------------------------------------------------------------
      C    1   -0.28150      0.99963     2.27418    0.00769     3.28150
      C    2   -0.05876      0.99956     2.04614    0.01307     3.05876
      C    3   -0.28272      0.99964     2.27666    0.00643     3.28272
      C    4   -0.27942      0.99963     2.27332    0.00647     3.27942
      C    5    0.05609      0.99944     1.93033    0.01414     2.94391
      C    6   -0.03558      0.99944     2.02372    0.01242     3.03558
      N    7   -0.32914      0.99972     2.81572    0.01370     3.82914
      C    8   -0.08888      0.99963     2.07847    0.01079     3.08888
      C    9   -0.08740      0.99962     2.07687    0.01091     3.08740
      N   10   -0.33371      0.99969     2.82182    0.01219     3.83371
      H   11    0.09873      0.00000     0.40014    0.00114     0.40127
      H   12    0.09636      0.00000     0.40208    0.00157     0.40364
      H   13    0.10145      0.00000     0.39749    0.00105     0.39855
      H   14    0.09873      0.00000     0.40027    0.00101     0.40127
      H   15    0.10226      0.00000     0.39644    0.00130     0.39774
      H   16    0.10089      0.00000     0.39784    0.00127     0.39911
      H   17    0.10276      0.00000     0.39582    0.00142     0.39724
      H   18    0.10094      0.00000     0.39797    0.00108     0.39906
      H   19    0.09478      0.00000     0.40414    0.00108     0.40522
      H   20    0.09942      0.00000     0.39922    0.00136     0.40058
      H   21    0.18209      0.00000     0.31340    0.00450     0.31791
      H   22    0.08483      0.00000     0.41340    0.00177     0.41517
      H   23    0.09517      0.00000     0.40309    0.00174     0.40483
      H   24    0.08393      0.00000     0.41447    0.00160     0.41607
      H   25    0.09642      0.00000     0.40186    0.00173     0.40358
      H   26    0.18228      0.00000     0.31420    0.00352     0.31772
 =======================================================================
   * Total *   -0.00000      9.99600    28.86905    0.13495    39.00000

 Normal termination of Gaussian 16 at Tue Dec  8 10:29:02 2020.
