 Gaussian 16, Revision A.03,

 -----------------------------------------------------------
 # opt freq B3LYP/6-31G(d) empiricaldispersion=gd3bj scf=xqc
 -----------------------------------------------------------

 -------------------------------
 CID_131102207_JID_2731_neutraal
 -------------------------------
 Symbolic Z-matrix:
 Charge =  0 Multiplicity = 1

 SCF Done:  E(RB3LYP) =  -571.946627098     A.U. after   14 cycles
 SCF Done:  E(RB3LYP) =  -571.953997341     A.U. after   12 cycles
 SCF Done:  E(RB3LYP) =  -571.954504614     A.U. after   12 cycles
 SCF Done:  E(RB3LYP) =  -571.954595347     A.U. after   11 cycles
 SCF Done:  E(RB3LYP) =  -571.954619710     A.U. after   11 cycles
 SCF Done:  E(RB3LYP) =  -571.954635112     A.U. after    9 cycles
 SCF Done:  E(RB3LYP) =  -571.954640913     A.U. after   10 cycles
 SCF Done:  E(RB3LYP) =  -571.954643957     A.U. after   10 cycles
 SCF Done:  E(RB3LYP) =  -571.954645938     A.U. after   10 cycles
 SCF Done:  E(RB3LYP) =  -571.954647342     A.U. after   10 cycles
 SCF Done:  E(RB3LYP) =  -571.954647833     A.U. after    8 cycles
 SCF Done:  E(RB3LYP) =  -571.954648060     A.U. after    8 cycles
 SCF Done:  E(RB3LYP) =  -571.954648223     A.U. after    8 cycles
 SCF Done:  E(RB3LYP) =  -571.954648320     A.U. after    7 cycles
 SCF Done:  E(RB3LYP) =  -571.954648376     A.U. after    8 cycles
 SCF Done:  E(RB3LYP) =  -571.954648406     A.U. after    7 cycles
 Optimization completed.
    -- Stationary point found.
 Normal termination of Gaussian 16 at Wed Dec  9 17:55:58 2020.

 --------------------------------------------------------------------
 #N Geom=AllCheck Guess=TCheck SCRF=Check GenChk RB3LYP/6-31G(d) Freq
 --------------------------------------------------------------------

 Structure from the checkpoint file:  "JID_2731.chk"
 -------------------------------
 CID_131102207_JID_2731_neutraal
 -------------------------------
 Charge =  0 Multiplicity = 1

 SCF Done:  E(RB3LYP) =  -571.954648406     A.U. after    1 cycles

  Exact polarizability: 103.881  -8.611  93.145   4.840   2.753  88.352
 Approx polarizability: 137.578 -19.942 142.674   9.606  14.343 143.732

                      1                      2                      3
                      A                      A                      A
 Frequencies --     26.5056                36.3589                65.4979
 Red. masses --      4.0917                 5.4593                 3.7851
 Frc consts  --      0.0017                 0.0043                 0.0096
 IR Inten    --      1.2766                 4.5262                 1.9115

                      4                      5                      6
                      A                      A                      A
 Frequencies --     81.5925               125.9342               189.1431
 Red. masses --      3.6067                 3.0599                 3.0747
 Frc consts  --      0.0141                 0.0286                 0.0648
 IR Inten    --      2.2546                 0.6501                 2.7182

                      7                      8                      9
                      A                      A                      A
 Frequencies --    208.5650               246.5885               311.8685
 Red. masses --      3.0722                 1.1155                 3.2667
 Frc consts  --      0.0787                 0.0400                 0.1872
 IR Inten    --      2.3477                 0.4029                 2.3432

                     10                     11                     12
                      A                      A                      A
 Frequencies --    337.7867               428.5673               483.0466
 Red. masses --      3.4892                 2.9074                 3.9075
 Frc consts  --      0.2346                 0.3146                 0.5372
 IR Inten    --      3.9447                 2.6434                 5.5336

                     13                     14                     15
                      A                      A                      A
 Frequencies --    525.1378               610.4695               654.3999
 Red. masses --      2.4850                 5.1092                 2.4920
 Frc consts  --      0.4038                 1.1218                 0.6288
 IR Inten    --     11.2346                 3.0264                11.3841

                     16                     17                     18
                      A                      A                      A
 Frequencies --    732.5075               751.2045               787.9327
 Red. masses --      2.8041                 3.4230                 1.3396
 Frc consts  --      0.8865                 1.1381                 0.4900
 IR Inten    --     26.3903                 7.8308                33.0464

                     19                     20                     21
                      A                      A                      A
 Frequencies --    810.2802               865.5463               885.5480
 Red. masses --      2.3427                 1.3527                 2.4244
 Frc consts  --      0.9062                 0.5971                 1.1201
 IR Inten    --     90.9336                 0.6243                 9.5221

                     22                     23                     24
                      A                      A                      A
 Frequencies --    891.5089               910.5404               929.1519
 Red. masses --      5.1309                 1.3001                 3.2008
 Frc consts  --      2.4027                 0.6351                 1.6281
 IR Inten    --     31.6183                 4.9597                 7.0882

                     25                     26                     27
                      A                      A                      A
 Frequencies --    945.0129               990.8353              1002.7978
 Red. masses --      3.2361                 4.5902                 3.2556
 Frc consts  --      1.7027                 2.6551                 1.9289
 IR Inten    --      5.8157                 2.1247                 5.6537

                     28                     29                     30
                      A                      A                      A
 Frequencies --   1032.9150              1044.5102              1053.4011
 Red. masses --      2.1885                 4.3763                 1.9182
 Frc consts  --      1.3757                 2.8131                 1.2541
 IR Inten    --     30.0339                63.7501                 8.4743

                     31                     32                     33
                      A                      A                      A
 Frequencies --   1097.8279              1121.7592              1131.4714
 Red. masses --      1.7850                 2.6330                 2.4498
 Frc consts  --      1.2675                 1.9521                 1.8479
 IR Inten    --     21.1283                 3.9782                16.3649

                     34                     35                     36
                      A                      A                      A
 Frequencies --   1160.3441              1173.4271              1177.0834
 Red. masses --      1.9775                 1.0927                 1.5050
 Frc consts  --      1.5687                 0.8865                 1.2285
 IR Inten    --     18.0431                 0.3958                19.3030

                     37                     38                     39
                      A                      A                      A
 Frequencies --   1193.8793              1209.9937              1293.7576
 Red. masses --      2.1119                 1.6823                 1.4302
 Frc consts  --      1.7736                 1.4512                 1.4104
 IR Inten    --     17.8233                10.2044                 1.7109

                     40                     41                     42
                      A                      A                      A
 Frequencies --   1305.7696              1320.2139              1349.5894
 Red. masses --      2.1174                 1.2910                 1.5786
 Frc consts  --      2.1271                 1.3257                 1.6940
 IR Inten    --      0.4077                 2.7971                 6.4369

                     43                     44                     45
                      A                      A                      A
 Frequencies --   1361.7078              1376.0358              1429.5574
 Red. masses --      1.3522                 1.3303                 1.5366
 Frc consts  --      1.4773                 1.4841                 1.8502
 IR Inten    --      3.8476                18.6205                20.2899

                     46                     47                     48
                      A                      A                      A
 Frequencies --   1436.8353              1464.3106              1485.1106
 Red. masses --      1.2984                 3.7660                 4.9290
 Frc consts  --      1.5793                 4.7577                 6.4051
 IR Inten    --      2.3873                30.0826                17.3807

                     49                     50                     51
                      A                      A                      A
 Frequencies --   1498.2651              1523.9520              1529.7848
 Red. masses --      1.2021                 1.0640                 1.0964
 Frc consts  --      1.5899                 1.4559                 1.5117
 IR Inten    --      7.0641                11.9486                 0.5471

                     52                     53                     54
                      A                      A                      A
 Frequencies --   1531.0325              1558.5991              1616.2439
 Red. masses --      1.0814                 1.1181                 5.6548
 Frc consts  --      1.4935                 1.6002                 8.7033
 IR Inten    --      3.0513                 2.2856                16.6388

                     55                     56                     57
                      A                      A                      A
 Frequencies --   3018.1605              3030.6236              3043.6205
 Red. masses --      1.0848                 1.0546                 1.0602
 Frc consts  --      5.8219                 5.7069                 5.7866
 IR Inten    --     24.2867               101.8553                11.1110

                     58                     59                     60
                      A                      A                      A
 Frequencies --   3052.0679              3075.8372              3083.2422
 Red. masses --      1.0414                 1.0825                 1.1107
 Frc consts  --      5.7153                 6.0341                 6.2212
 IR Inten    --     16.3793                11.1437                48.9348

                     61                     62                     63
                      A                      A                      A
 Frequencies --   3098.7832              3121.5316              3149.3564
 Red. masses --      1.1095                 1.0970                 1.1037
 Frc consts  --      6.2772                 6.2978                 6.4497
 IR Inten    --     54.3393                28.0031                17.9818

                     64                     65                     66
                      A                      A                      A
 Frequencies --   3277.5082              3298.1278              3463.0867
 Red. masses --      1.0901                 1.1079                 1.0735
 Frc consts  --      6.8993                 7.1005                 7.5854
 IR Inten    --      0.2571                 0.7027                 1.1248

 - Thermochemistry -
 -------------------
 Temperature   298.150 Kelvin.  Pressure   1.00000 Atm.
 Atom     1 has atomic number  6 and mass  12.00000

 Molecular mass:   168.08988 amu.
 Principal axes and moments of inertia in atomic units:
                           1         2         3
     Eigenvalues --  1133.834703182.776753688.01863
           X            0.99989   0.01377   0.00532
           Y           -0.01364   0.99964  -0.02321
           Z           -0.00564   0.02314   0.99972
 This molecule is an asymmetric top.
 Rotational symmetry number  1.
 Warning -- assumption of classical behavior for rotation
           may cause significant error
 Rotational temperatures (Kelvin)      0.07639     0.02721     0.02349
 Rotational constants (GHZ):           1.59171     0.56703     0.48935
 Zero-point vibrational energy     526498.4 (Joules/Mol)
                                  125.83613 (Kcal/Mol)
 Warning -- explicit consideration of  14 degrees of freedom as
           vibrations may cause significant error
 Vibrational temperatures:     38.14    52.31    94.24   117.39   181.19
          (Kelvin)            272.13   300.08   354.79   448.71   486.00
                              616.61   695.00   755.56   878.33   941.54
                             1053.91  1080.82  1133.66  1165.81  1245.33
                             1274.11  1282.68  1310.06  1336.84  1359.66
                             1425.59  1442.80  1486.13  1502.82  1515.61
                             1579.53  1613.96  1627.93  1669.48  1688.30
                             1693.56  1717.73  1740.91  1861.43  1878.71
                             1899.49  1941.76  1959.19  1979.81  2056.81
                             2067.29  2106.82  2136.74  2155.67  2192.63
                             2201.02  2202.81  2242.48  2325.41  4342.46
                             4360.39  4379.09  4391.24  4425.44  4436.10
                             4458.46  4491.19  4531.22  4715.60  4745.27
                             4982.61

 Zero-point correction=                           0.200533 (Hartree/Particle)
 Thermal correction to Energy=                    0.211890
 Thermal correction to Enthalpy=                  0.212834
 Thermal correction to Gibbs Free Energy=         0.160889
 Sum of electronic and zero-point Energies=           -571.754116
 Sum of electronic and thermal Energies=              -571.742758
 Sum of electronic and thermal Enthalpies=            -571.741814
 Sum of electronic and thermal Free Energies=         -571.793759

                     E (Thermal)             CV                S
                      KCal/Mol        Cal/Mol-Kelvin    Cal/Mol-Kelvin
 Total                  132.963             41.262            109.328
 Electronic               0.000              0.000              0.000
 Translational            0.889              2.981             41.266
 Rotational               0.889              2.981             30.965
 Vibrational            131.186             35.301             37.096
 Vibration     1          0.593              1.984              6.075
 Vibration     2          0.594              1.982              5.448
 Vibration     3          0.597              1.971              4.284
 Vibration     4          0.600              1.962              3.852
 Vibration     5          0.611              1.927              3.007
 Vibration     6          0.633              1.855              2.236
 Vibration     7          0.642              1.828              2.056
 Vibration     8          0.661              1.768              1.755
 Vibration     9          0.700              1.651              1.352
 Vibration    10          0.718              1.600              1.223
 Vibration    11          0.790              1.408              0.863
 Vibration    12          0.839              1.288              0.702
 Vibration    13          0.880              1.194              0.598
 Vibration    14          0.970              1.010              0.432

 Optimization completed.
    -- Stationary point found.
 Normal termination of Gaussian 16 at Wed Dec  9 18:01:38 2020.

 ----------------------------------------------------------------------
 # B3LYP/6-311++G(d,p) empiricaldispersion=gd3bj scf=xqc pop=npa geom=c
 heck
 ----------------------------------------------------------------------

 ---------------------------------------
 CID_131102207_JID_2731_Energie_neutraal
 ---------------------------------------
 Structure from the checkpoint file:  "JID_2731.chk"
 Charge =  0 Multiplicity = 1

 SCF Done:  E(RB3LYP) =  -572.118669985     A.U. after   14 cycles
 Normal termination of Gaussian 16 at Wed Dec  9 18:05:17 2020.

 ----------------------------------------------------------------------
 # B3LYP/6-311++G(d,p) empiricaldispersion=gd3bj scf=xqc pop=npa geom=c
 heck
 ----------------------------------------------------------------------

 -------------------------------------
 CID_131102207_JID_2731_Energie_kation
 -------------------------------------
 Structure from the checkpoint file:  "JID_2731.chk"
 Charge =  1 Multiplicity = 2

 SCF Done:  E(UB3LYP) =  -571.795112045     A.U. after   27 cycles
 Normal termination of Gaussian 16 at Wed Dec  9 18:11:51 2020.
 Gaussian 16:  ES64L-G16RevA.03 25-Dec-2016

 ----------------------------------------------------------------------
 # B3LYP/6-311++G(d,p) empiricaldispersion=gd3bj scf=xqc pop=npa geom=c
 heck
 ----------------------------------------------------------------------

 ------------------------------------
 CID_131102207_JID_2731_Energie_anion
 ------------------------------------
 Structure from the checkpoint file:  "JID_2731.chk"
 Charge = -1 Multiplicity = 2

                         Standard orientation:
 ---------------------------------------------------------------------
 Center     Atomic      Atomic             Coordinates (Angstroms)
 Number     Number       Type             X           Y           Z
 ---------------------------------------------------------------------
      1          6           0        0.768306    2.622344   -0.310379
      2          6           0        0.276807    1.180343   -0.441116
      3          6           0        1.385089    0.184530   -0.182497
      4          7           0        1.580153   -0.812048   -1.018524
      5          8           0        2.617950   -1.578015   -0.465205
      6          6           0        3.001233   -1.010824    0.692325
      7          6           0        2.267745    0.105439    0.940634
      8          7           0       -0.886838    0.980575    0.434709
      9          6           0       -1.508148   -0.329017    0.311290
     10          6           0       -2.853957   -0.476739    1.044523
     11          8           0       -3.543227   -0.798181   -0.182793
     12          6           0       -2.353018   -0.532816   -0.961494
     13          1           0        1.114777    2.828900    0.709953
     14          1           0       -0.049941    3.311315   -0.536007
     15          1           0        1.601504    2.815139   -0.993054
     16          1           0       -0.066535    1.010561   -1.467730
     17          1           0        3.802781   -1.509441    1.218557
     18          1           0        2.344016    0.777592    1.781884
     19          1           0       -0.605475    1.132276    1.404024
     20          1           0       -0.819881   -1.166712    0.494333
     21          1           0       -2.927572   -1.286846    1.780342
     22          1           0       -3.213463    0.461760    1.487321
     23          1           0       -2.454626    0.376192   -1.568543
     24          1           0       -2.080920   -1.380415   -1.600115
 ---------------------------------------------------------------------

 SCF Done:  E(UB3LYP) =  -572.107555045     A.U. after   32 cycles

 The electronic state is 2-A.
 Alpha  occ. eigenvalues --  -19.10755 -19.02864 -14.25816 -14.21084 -10.13524
 Alpha  occ. eigenvalues --  -10.12567 -10.12420 -10.12022 -10.11184 -10.10996
 Alpha  occ. eigenvalues --  -10.07610 -10.06888  -1.04181  -0.95425  -0.82716
 Alpha  occ. eigenvalues --   -0.77079  -0.69403  -0.66999  -0.61256  -0.60327
 Alpha  occ. eigenvalues --   -0.55065  -0.51047  -0.47616  -0.46454  -0.43480
 Alpha  occ. eigenvalues --   -0.42266  -0.40363  -0.37857  -0.36713  -0.35886
 Alpha  occ. eigenvalues --   -0.34050  -0.32834  -0.32072  -0.31430  -0.30410
 Alpha  occ. eigenvalues --   -0.29053  -0.27858  -0.26001  -0.23571  -0.22652
 Alpha  occ. eigenvalues --   -0.21440  -0.19823  -0.16775  -0.16581  -0.14387
 Alpha  occ. eigenvalues --    0.04576
 Alpha virt. eigenvalues --    0.07215   0.07527   0.07698   0.08156   0.09653
 Alpha virt. eigenvalues --    0.09675   0.10379   0.11023   0.11419   0.12862
 Alpha virt. eigenvalues --    0.13229   0.13362   0.13897   0.14764   0.15024

  Beta  occ. eigenvalues --  -19.10727 -19.02861 -14.25793 -14.21049 -10.13467
  Beta  occ. eigenvalues --  -10.12566 -10.12402 -10.12018 -10.11182 -10.10989
  Beta  occ. eigenvalues --  -10.07574 -10.06859  -1.04130  -0.95416  -0.82672
  Beta  occ. eigenvalues --   -0.77035  -0.69332  -0.66968  -0.61216  -0.60300
  Beta  occ. eigenvalues --   -0.55013  -0.50954  -0.47561  -0.46408  -0.43397
  Beta  occ. eigenvalues --   -0.42231  -0.40334  -0.37798  -0.36610  -0.35817
  Beta  occ. eigenvalues --   -0.34014  -0.32786  -0.32035  -0.31414  -0.30352
  Beta  occ. eigenvalues --   -0.29017  -0.27825  -0.25954  -0.23547  -0.22635
  Beta  occ. eigenvalues --   -0.21401  -0.19728  -0.16624  -0.16569  -0.14355
  Beta virt. eigenvalues --    0.07234   0.07785   0.08036   0.08348   0.08787
  Beta virt. eigenvalues --    0.09918   0.10467   0.10700   0.11268   0.11777
  Beta virt. eigenvalues --    0.12995   0.13642   0.13744   0.13985   0.15003

 Mulliken charges and spin densities:
               1          2
     1  C    0.621169  -1.260470
     2  C    0.015597  -0.387955
     3  C    1.202804  -1.137491
     4  N   -0.417721   0.155405
     5  O    0.171580  -0.008202
     6  C    1.460295  -1.681723
     7  C   -0.936371   0.903728
     8  N    0.196658  -0.000524
     9  C   -0.018551  -0.253453
    10  C    0.128070  -0.379236
    11  O   -0.237662   0.016867
    12  C   -0.373018   0.094778
    13  H   -0.255089   0.426217
    14  H   -0.055219   0.220059
    15  H    0.033952   0.107373
    16  H    0.081755   0.103476
    17  H   -1.451278   1.660964
    18  H   -1.519264   1.709856
    19  H   -0.089261   0.342934
    20  H    0.296337  -0.099627
    21  H   -0.182876   0.334550
    22  H    0.031597   0.116437
    23  H    0.176411  -0.023740
    24  H    0.120087   0.039780
 Sum of Mulliken charges =  -1.00000   1.00000

 Dipole moment (field-independent basis, Debye):
    X=             -5.6667    Y=             -0.6094    Z=             -6.2694  Tot=              8.4728
 Quadrupole moment (field-independent basis, Debye-Ang):
   XX=           -144.2773   YY=           -108.0189   ZZ=           -113.4175
   XY=              1.2108   XZ=            -13.4695   YZ=             -6.1990

 Summary of Natural Population Analysis:

                                       Natural Population
                Natural  -----------------------------------------------
    Atom  No    Charge         Core      Valence    Rydberg      Total
 -----------------------------------------------------------------------
      C    1   -0.28248      0.99965     2.27682    0.00601     3.28248
      C    2   -0.02689      0.99955     2.01389    0.01345     3.02689
      C    3    0.07549      0.99957     1.90716    0.01779     2.92451
      N    4   -0.08793      0.99966     2.57564    0.01263     3.58793
      O    5   -0.16392      0.99987     3.15552    0.00852     4.16392
      C    6    0.09721      0.99954     1.88792    0.01532     2.90279
      C    7   -0.17201      0.99949     2.16144    0.01107     3.17201
      N    8   -0.33647      0.99973     2.82385    0.01289     3.83647
      C    9   -0.03767      0.99959     2.02583    0.01225     3.03767
      C   10   -0.00246      0.99962     1.98970    0.01314     3.00246
      O   11   -0.30642      0.99991     3.29867    0.00783     4.30642
      C   12   -0.00431      0.99962     1.99461    0.01008     3.00431
      H   13    0.10410      0.00000     0.39420    0.00170     0.39590
      H   14    0.10347      0.00000     0.39555    0.00098     0.39653
      H   15    0.10184      0.00000     0.39726    0.00089     0.39816
      H   16    0.09941      0.00000     0.39848    0.00211     0.40059
      H   17    0.10345      0.00000     0.39296    0.00358     0.39655
      H   18    0.12398      0.00000     0.36534    0.01068     0.37602
      H   19    0.18166      0.00000     0.31307    0.00527     0.31834
      H   20    0.09224      0.00000     0.40545    0.00232     0.40776
      H   21    0.08433      0.00000     0.41424    0.00144     0.41567
      H   22    0.08575      0.00000     0.41257    0.00169     0.41425
      H   23    0.08315      0.00000     0.41542    0.00143     0.41685
      H   24    0.08447      0.00000     0.41432    0.00121     0.41553
 =======================================================================
   * Total *    0.00000     11.99580    32.82992    0.17428    45.00000

 Normal termination of Gaussian 16 at Wed Dec  9 18:21:09 2020.
