 Gaussian 16, Revision A.03,

 -----------------------------------------------------------
 # opt freq B3LYP/6-31G(d) empiricaldispersion=gd3bj scf=xqc
 -----------------------------------------------------------

 ------------------------------
 CID_80279237_JID_2958_neutraal
 ------------------------------
 Symbolic Z-matrix:
 Charge =  0 Multiplicity = 1

 SCF Done:  E(RB3LYP) =  -528.648616988     A.U. after   16 cycles
 SCF Done:  E(RB3LYP) =  -528.673817316     A.U. after   14 cycles
 SCF Done:  E(RB3LYP) =  -528.674688849     A.U. after   13 cycles
 SCF Done:  E(RB3LYP) =  -528.675443968     A.U. after   13 cycles
 SCF Done:  E(RB3LYP) =  -528.675576370     A.U. after   12 cycles
 SCF Done:  E(RB3LYP) =  -528.675619034     A.U. after   12 cycles
 SCF Done:  E(RB3LYP) =  -528.675640598     A.U. after   11 cycles
 SCF Done:  E(RB3LYP) =  -528.675642757     A.U. after    9 cycles
 SCF Done:  E(RB3LYP) =  -528.675643589     A.U. after    8 cycles
 Optimization completed.
    -- Stationary point found.
 Normal termination of Gaussian 16 at Wed Dec  9 18:14:47 2020.

 --------------------------------------------------------------------
 #N Geom=AllCheck Guess=TCheck SCRF=Check GenChk RB3LYP/6-31G(d) Freq
 --------------------------------------------------------------------

 Structure from the checkpoint file:  "JID_2958.chk"
 ------------------------------
 CID_80279237_JID_2958_neutraal
 ------------------------------
 Charge =  0 Multiplicity = 1

 SCF Done:  E(RB3LYP) =  -528.675643589     A.U. after    1 cycles

  Exact polarizability: 106.095 -17.350 115.624  12.261   0.957  64.609
 Approx polarizability: 163.229 -44.658 200.448  31.356  -1.380 104.031

                      1                      2                      3
                      A                      A                      A
 Frequencies --     36.5884                60.9711                93.8724
 Red. masses --      6.3617                 7.8515                 4.4539
 Frc consts  --      0.0050                 0.0172                 0.0231
 IR Inten    --      7.9603                 8.8682                 6.3498

                      4                      5                      6
                      A                      A                      A
 Frequencies --    104.6910               165.2351               169.4123
 Red. masses --      8.5504                 6.0615                 5.5152
 Frc consts  --      0.0552                 0.0975                 0.0933
 IR Inten    --      5.3888                 1.9248                 7.0549

                      7                      8                      9
                      A                      A                      A
 Frequencies --    220.9362               286.1448               366.8317
 Red. masses --      2.8777                 4.6269                 2.4663
 Frc consts  --      0.0828                 0.2232                 0.1955
 IR Inten    --      1.3387                 1.2937                 0.0996

                     10                     11                     12
                      A                      A                      A
 Frequencies --    387.6860               438.6368               504.5307
 Red. masses --      3.0192                 3.5599                 9.0195
 Frc consts  --      0.2674                 0.4036                 1.3527
 IR Inten    --      0.3338                 0.6838                10.0679

                     13                     14                     15
                      A                      A                      A
 Frequencies --    549.4636               589.5550               617.8996
 Red. masses --      5.2394                 4.3576                 6.7212
 Frc consts  --      0.9320                 0.8924                 1.5119
 IR Inten    --      0.4985                 1.1276                 5.8177

                     16                     17                     18
                      A                      A                      A
 Frequencies --    646.0384               703.8927               713.7737
 Red. masses --      3.8222                 4.8572                 4.3745
 Frc consts  --      0.9399                 1.4179                 1.3131
 IR Inten    --      0.1846                 2.8217                 8.1218

                     19                     20                     21
                      A                      A                      A
 Frequencies --    777.5595               798.7503               858.6338
 Red. masses --      1.2378                 1.8879                 2.8284
 Frc consts  --      0.4409                 0.7097                 1.2286
 IR Inten    --     37.2979                 7.2163                 4.4408

                     22                     23                     24
                      A                      A                      A
 Frequencies --    868.9699               920.9305               943.8435
 Red. masses --      1.3385                 2.5494                 5.8178
 Frc consts  --      0.5955                 1.2739                 3.0536
 IR Inten    --      2.1453                 0.8664                 5.5276

                     25                     26                     27
                      A                      A                      A
 Frequencies --   1022.8880              1050.4509              1091.1320
 Red. masses --      1.8972                 2.0869                 2.6856
 Frc consts  --      1.1695                 1.3568                 1.8839
 IR Inten    --      2.6825                 3.3809                 5.6153

                     28                     29                     30
                      A                      A                      A
 Frequencies --   1108.5879              1158.4140              1199.6311
 Red. masses --      1.4220                 1.8674                 2.1099
 Frc consts  --      1.0296                 1.4764                 1.7890
 IR Inten    --      5.8581                17.6619                 2.6455

                     31                     32                     33
                      A                      A                      A
 Frequencies --   1230.5408              1251.9022              1304.3486
 Red. masses --      1.2293                 2.2481                 1.5283
 Frc consts  --      1.0967                 2.0759                 1.5320
 IR Inten    --      1.3072                 2.7367                 8.9522

                     34                     35                     36
                      A                      A                      A
 Frequencies --   1331.7711              1366.4366              1400.3334
 Red. masses --      2.1335                 1.3991                 1.5613
 Frc consts  --      2.2294                 1.5391                 1.8039
 IR Inten    --     48.8292                 4.4746                 3.1532

                     37                     38                     39
                      A                      A                      A
 Frequencies --   1410.4140              1436.6388              1442.8952
 Red. masses --      1.5202                 2.6925                 2.9407
 Frc consts  --      1.7817                 3.2742                 3.6072
 IR Inten    --     29.0254                 3.8439                11.2944

                     40                     41                     42
                      A                      A                      A
 Frequencies --   1491.8066              1497.1596              1517.9695
 Red. masses --      2.7215                 1.0864                 1.1047
 Frc consts  --      3.5685                 1.4348                 1.4998
 IR Inten    --     47.3070                 9.9030                 5.7057

                     43                     44                     45
                      A                      A                      A
 Frequencies --   1525.0132              1546.4120              2349.2564
 Red. masses --      1.3982                 3.2966                12.6628
 Frc consts  --      1.9158                 4.6448                41.1757
 IR Inten    --     25.4278                 5.9378                45.0422

                     46                     47                     48
                      A                      A                      A
 Frequencies --   2367.6514              3073.6431              3078.5306
 Red. masses --     12.5897                 1.0603                 1.0620
 Frc consts  --     41.5816                 5.9017                 5.9302
 IR Inten    --      5.9099                 2.7976                10.3076

                     49                     50                     51
                      A                      A                      A
 Frequencies --   3097.9894              3113.5186              3126.9710
 Red. masses --      1.0609                 1.1017                 1.1052
 Frc consts  --      5.9989                 6.2923                 6.3671
 IR Inten    --      9.9524                 2.7310                10.8601

                     52                     53                     54
                      A                      A                      A
 Frequencies --   3150.5750              3271.0620              3295.5117
 Red. masses --      1.1070                 1.0928                 1.1037
 Frc consts  --      6.4743                 6.8892                 7.0626
 IR Inten    --      5.5590                 4.9747                 1.7040

 - Thermochemistry -
 -------------------
 Temperature   298.150 Kelvin.  Pressure   1.00000 Atm.
 Atom     1 has atomic number  6 and mass  12.00000

 Molecular mass:   160.07490 amu.
 Principal axes and moments of inertia in atomic units:
                           1         2         3
     Eigenvalues --  1186.600052458.061383265.72026
           X            0.99961   0.02771  -0.00400
           Y           -0.02771   0.99962   0.00069
           Z            0.00402  -0.00058   0.99999
 This molecule is an asymmetric top.
 Rotational symmetry number  1.
 Warning -- assumption of classical behavior for rotation
           may cause significant error
 Rotational temperatures (Kelvin)      0.07299     0.03524     0.02652
 Rotational constants (GHZ):           1.52093     0.73421     0.55263
 Zero-point vibrational energy     407533.6 (Joules/Mol)
                                   97.40287 (Kcal/Mol)
 Warning -- explicit consideration of  15 degrees of freedom as
           vibrations may cause significant error
 Vibrational temperatures:     52.64    87.72   135.06   150.63   237.74
          (Kelvin)            243.75   317.88   411.70   527.79   557.79
                              631.10   725.91   790.56   848.24   889.02
                              929.51  1012.74  1026.96  1118.73  1149.22
                             1235.38  1250.25  1325.01  1357.98  1471.71
                             1511.36  1569.90  1595.01  1666.70  1726.00
                             1770.47  1801.21  1876.67  1916.12  1966.00
                             2014.77  2029.27  2067.00  2076.00  2146.38
                             2154.08  2184.02  2194.15  2224.94  3380.06
                             3406.52  4422.29  4429.32  4457.32  4479.66
                             4499.01  4532.97  4706.33  4741.51

 Zero-point correction=                           0.155221 (Hartree/Particle)
 Thermal correction to Energy=                    0.166057
 Thermal correction to Enthalpy=                  0.167001
 Thermal correction to Gibbs Free Energy=         0.117321
 Sum of electronic and zero-point Energies=           -528.520422
 Sum of electronic and thermal Energies=              -528.509586
 Sum of electronic and thermal Enthalpies=            -528.508642
 Sum of electronic and thermal Free Energies=         -528.558322

                     E (Thermal)             CV                S
                      KCal/Mol        Cal/Mol-Kelvin    Cal/Mol-Kelvin
 Total                  104.202             39.050            104.560
 Electronic               0.000              0.000              0.000
 Translational            0.889              2.981             41.120
 Rotational               0.889              2.981             30.633
 Vibrational            102.425             33.088             32.807
 Vibration     1          0.594              1.982              5.436
 Vibration     2          0.597              1.973              4.426
 Vibration     3          0.603              1.954              3.578
 Vibration     4          0.605              1.945              3.365
 Vibration     5          0.624              1.885              2.489
 Vibration     6          0.625              1.880              2.442
 Vibration     7          0.648              1.809              1.951
 Vibration     8          0.684              1.699              1.497
 Vibration     9          0.740              1.540              1.093
 Vibration    10          0.756              1.496              1.009
 Vibration    11          0.799              1.386              0.831
 Vibration    12          0.860              1.240              0.647
 Vibration    13          0.905              1.141              0.545
 Vibration    14          0.947              1.054              0.468
 Vibration    15          0.978              0.994              0.420

                           ! Non-Optimized Parameters !
 Normal termination of Gaussian 16 at Wed Dec  9 18:19:00 2020.

 ----------------------------------------------------------------------
 # B3LYP/6-311++G(d,p) empiricaldispersion=gd3bj scf=xqc pop=npa geom=c
 heck
 ----------------------------------------------------------------------

 --------------------------------------
 CID_80279237_JID_2958_Energie_neutraal
 --------------------------------------
 Structure from the checkpoint file:  "JID_2958.chk"
 Charge =  0 Multiplicity = 1

 SCF Done:  E(RB3LYP) =  -528.818166944     A.U. after   15 cycles
 Normal termination of Gaussian 16 at Wed Dec  9 18:20:37 2020.

 ----------------------------------------------------------------------
 # B3LYP/6-311++G(d,p) empiricaldispersion=gd3bj scf=xqc pop=npa geom=c
 heck
 ----------------------------------------------------------------------

 ------------------------------------
 CID_80279237_JID_2958_Energie_kation
 ------------------------------------
 Structure from the checkpoint file:  "JID_2958.chk"
 Charge =  1 Multiplicity = 2

 SCF Done:  E(UB3LYP) =  -528.477635053     A.U. after   22 cycles
 Normal termination of Gaussian 16 at Wed Dec  9 18:23:54 2020.
 Gaussian 16:  ES64L-G16RevA.03 25-Dec-2016

 ----------------------------------------------------------------------
 # B3LYP/6-311++G(d,p) empiricaldispersion=gd3bj scf=xqc pop=npa geom=c
 heck
 ----------------------------------------------------------------------

 -----------------------------------
 CID_80279237_JID_2958_Energie_anion
 -----------------------------------
 Structure from the checkpoint file:  "JID_2958.chk"
 Charge = -1 Multiplicity = 2

                         Standard orientation:
 ---------------------------------------------------------------------
 Center     Atomic      Atomic             Coordinates (Angstroms)
 Number     Number       Type             X           Y           Z
 ---------------------------------------------------------------------
      1          6           0        1.030253    2.303742    0.239501
      2          6           0        0.001451    1.653904   -0.414532
      3          7           0        0.404023    0.348614   -0.546994
      4          6           0        1.649802    0.268161    0.039201
      5          7           0        2.050383    1.438843    0.518707
      6          6           0        2.356827   -0.961821    0.094790
      7          7           0        2.873502   -2.004577    0.119626
      8          6           0       -0.370434   -0.760127   -1.100858
      9          6           0       -0.985823   -1.646040   -0.011190
     10          6           0       -1.830990   -0.858763    1.010940
     11          6           0       -2.849533   -0.033803    0.356578
     12          7           0       -3.609087    0.628765   -0.219442
     13          1           0        1.086626    3.346814    0.517264
     14          1           0       -0.958907    1.984900   -0.780749
     15          1           0       -1.149820   -0.324530   -1.730145
     16          1           0        0.286902   -1.356983   -1.738644
     17          1           0       -1.605704   -2.403878   -0.502193
     18          1           0       -0.194039   -2.172600    0.530636
     19          1           0       -2.316923   -1.548643    1.709057
     20          1           0       -1.189198   -0.198113    1.604911
 ---------------------------------------------------------------------

 SCF Done:  E(UB3LYP) =  -528.820812127     A.U. after   30 cycles

 The electronic state is 2-A.
 Alpha  occ. eigenvalues --  -14.25450 -14.21949 -14.17917 -14.17730 -10.12026
 Alpha  occ. eigenvalues --  -10.11979 -10.11854 -10.11701 -10.08914 -10.08429
 Alpha  occ. eigenvalues --  -10.07860 -10.07586  -0.91072  -0.81798  -0.78342
 Alpha  occ. eigenvalues --   -0.77736  -0.71410  -0.65308  -0.62802  -0.54626
 Alpha  occ. eigenvalues --   -0.51070  -0.49186  -0.43928  -0.41076  -0.39431
 Alpha  occ. eigenvalues --   -0.36964  -0.34988  -0.33691  -0.32768  -0.31841
 Alpha  occ. eigenvalues --   -0.28725  -0.28410  -0.28076  -0.26730  -0.24304
 Alpha  occ. eigenvalues --   -0.23740  -0.23584  -0.23009  -0.21410  -0.17136
 Alpha  occ. eigenvalues --   -0.16429  -0.12272   0.04341
 Alpha virt. eigenvalues --    0.06583   0.08464   0.08698   0.09955   0.10706
 Alpha virt. eigenvalues --    0.11074   0.11806   0.12486   0.12947   0.13248
 Alpha virt. eigenvalues --    0.13804   0.14007   0.14577   0.14691   0.16049

  Beta  occ. eigenvalues --  -14.25242 -14.21936 -14.17635 -14.17490 -10.12024
  Beta  occ. eigenvalues --  -10.11955 -10.11704 -10.11696 -10.08870 -10.08294
  Beta  occ. eigenvalues --  -10.07822 -10.07661  -0.90745  -0.81773  -0.77986
  Beta  occ. eigenvalues --   -0.77320  -0.71301  -0.65006  -0.62612  -0.54413
  Beta  occ. eigenvalues --   -0.50720  -0.49054  -0.43794  -0.40961  -0.39231
  Beta  occ. eigenvalues --   -0.36846  -0.34839  -0.33294  -0.32419  -0.31765
  Beta  occ. eigenvalues --   -0.28492  -0.28332  -0.27917  -0.26673  -0.23835
  Beta  occ. eigenvalues --   -0.23663  -0.23536  -0.21922  -0.21226  -0.16155
  Beta  occ. eigenvalues --   -0.15967  -0.11238
  Beta virt. eigenvalues --    0.07439   0.08576   0.08757   0.09725   0.10237
  Beta virt. eigenvalues --    0.10958   0.11306   0.11957   0.12717   0.13048
  Beta virt. eigenvalues --    0.13409   0.13811   0.14214   0.14829   0.14968

 Mulliken charges and spin densities:
               1          2
     1  C   -0.177303   0.093004
     2  C    0.069371  -0.002326
     3  N    0.085950   0.108068
     4  C    0.130161   0.741590
     5  N   -0.138978   0.113604
     6  C   -0.306297  -0.894091
     7  N   -0.354858   0.178489
     8  C   -0.142098  -0.254384
     9  C    0.662237  -0.970929
    10  C   -0.262718   0.251914
    11  C    0.675664  -0.693128
    12  N   -0.368783   0.027820
    13  H    0.114034   0.028898
    14  H    0.094055   0.043596
    15  H   -0.090539   0.264098
    16  H   -0.025377   0.237575
    17  H   -0.426613   0.593941
    18  H   -0.058625   0.232107
    19  H   -0.709032   0.942928
    20  H    0.229750  -0.042774
 Sum of Mulliken charges =  -1.00000   1.00000

 Dipole moment (field-independent basis, Debye):
    X=             -1.1794    Y=              4.2130    Z=             -0.2359  Tot=              4.3813
 Quadrupole moment (field-independent basis, Debye-Ang):
   XX=           -132.6020   YY=           -108.0029   ZZ=            -86.8476
   XY=              0.4233   XZ=             -2.9431   YZ=              2.5932

 Summary of Natural Population Analysis:

                                       Natural Population
                Natural  -----------------------------------------------
    Atom  No    Charge         Core      Valence    Rydberg      Total
 -----------------------------------------------------------------------
      C    1   -0.05688      0.99960     2.04358    0.01370     3.05688
      C    2   -0.00899      0.99957     1.99804    0.01138     3.00899
      N    3   -0.17431      0.99963     2.66435    0.01033     3.67431
      C    4    0.13526      0.99949     1.84843    0.01683     2.86474
      N    5   -0.20613      0.99971     2.69578    0.01065     3.70613
      C    6    0.13034      0.99963     1.85346    0.01658     2.86966
      N    7   -0.14718      0.99979     2.63845    0.00894     3.64718
      C    8   -0.08784      0.99961     2.07656    0.01167     3.08784
      C    9   -0.18766      0.99961     2.17857    0.00948     3.18766
      C   10   -0.25201      0.99954     2.24332    0.00916     3.25201
      C   11    0.16427      0.99966     1.81875    0.01732     2.83573
      N   12   -0.19125      0.99979     2.68081    0.01066     3.69125
      H   13    0.09295      0.00000     0.40612    0.00093     0.40705
      H   14    0.10522      0.00000     0.39380    0.00098     0.39478
      H   15    0.10414      0.00000     0.39464    0.00122     0.39586
      H   16    0.11154      0.00000     0.38718    0.00128     0.38846
      H   17    0.10748      0.00000     0.38813    0.00440     0.39252
      H   18    0.11189      0.00000     0.38669    0.00143     0.38811
      H   19    0.12563      0.00000     0.37221    0.00215     0.37437
      H   20    0.12354      0.00000     0.37483    0.00162     0.37646
 =======================================================================
   * Total *    0.00000     11.99561    29.84369    0.16070    42.00000

 Normal termination of Gaussian 16 at Wed Dec  9 18:27:58 2020.
