 Gaussian 16, Revision A.03,

 -----------------------------------------------------------
 # opt freq B3LYP/6-31G(d) empiricaldispersion=gd3bj scf=xqc
 -----------------------------------------------------------

 -------------------------------
 CID_119087292_JID_5780_neutraal
 -------------------------------
 Symbolic Z-matrix:
 Charge =  0 Multiplicity = 1

 SCF Done:  E(RB3LYP) =  -1008.17448534     A.U. after   15 cycles
 SCF Done:  E(RB3LYP) =  -1008.18208215     A.U. after   13 cycles
 SCF Done:  E(RB3LYP) =  -1008.18289409     A.U. after   12 cycles
 SCF Done:  E(RB3LYP) =  -1008.18296302     A.U. after   11 cycles
 SCF Done:  E(RB3LYP) =  -1008.18299198     A.U. after   10 cycles
 SCF Done:  E(RB3LYP) =  -1008.18301720     A.U. after   10 cycles
 SCF Done:  E(RB3LYP) =  -1008.18303276     A.U. after   11 cycles
 SCF Done:  E(RB3LYP) =  -1008.18303841     A.U. after   10 cycles
 SCF Done:  E(RB3LYP) =  -1008.18304118     A.U. after    9 cycles
 SCF Done:  E(RB3LYP) =  -1008.18304165     A.U. after    8 cycles
 Optimization completed.
    -- Stationary point found.
 Normal termination of Gaussian 16 at Thu Dec 10 16:53:17 2020.

 --------------------------------------------------------------------
 #N Geom=AllCheck Guess=TCheck SCRF=Check GenChk RB3LYP/6-31G(d) Freq
 --------------------------------------------------------------------

 Structure from the checkpoint file:  "JID_5780.chk"
 -------------------------------
 CID_119087292_JID_5780_neutraal
 -------------------------------
 Charge =  0 Multiplicity = 1

 SCF Done:  E(RB3LYP) =  -1008.18304165     A.U. after    1 cycles

  Exact polarizability: 182.406 -17.766 149.992   3.760   4.691  79.398
 Approx polarizability: 276.400 -36.135 276.258  11.973  17.422 127.416

                      1                      2                      3
                      A                      A                      A
 Frequencies --     39.3239                52.8376                86.8583
 Red. masses --      5.2702                 9.8424                 3.9428
 Frc consts  --      0.0048                 0.0162                 0.0175
 IR Inten    --      1.5860                 1.2249                 1.1266

                      4                      5                      6
                      A                      A                      A
 Frequencies --    147.7093               153.5762               202.1043
 Red. masses --      3.2801                 4.5916                 4.4790
 Frc consts  --      0.0422                 0.0638                 0.1078
 IR Inten    --      0.4967                 1.2590                 2.7441

                      7                      8                      9
                      A                      A                      A
 Frequencies --    231.7119               296.0403               343.9286
 Red. masses --      3.6571                 7.7113                 4.2451
 Frc consts  --      0.1157                 0.3982                 0.2959
 IR Inten    --      1.0992                 0.6922                 2.6840

                     10                     11                     12
                      A                      A                      A
 Frequencies --    411.2800               441.0686               473.2719
 Red. masses --      8.8520                 4.3645                 4.3669
 Frc consts  --      0.8822                 0.5003                 0.5763
 IR Inten    --      4.4580                 0.0918                 8.1309

                     13                     14                     15
                      A                      A                      A
 Frequencies --    500.8927               508.2086               514.2747
 Red. masses --      4.2852                 1.7782                 2.9949
 Frc consts  --      0.6334                 0.2706                 0.4667
 IR Inten    --     14.9428                49.7711                10.0522

                     16                     17                     18
                      A                      A                      A
 Frequencies --    551.6791               585.4157               606.7243
 Red. masses --      4.4820                 2.5356                 4.9946
 Frc consts  --      0.8037                 0.5120                 1.0833
 IR Inten    --      9.3225                41.7860                 0.6631

                     19                     20                     21
                      A                      A                      A
 Frequencies --    635.1771               676.8715               722.0877
 Red. masses --      3.8382                 4.2740                 5.4944
 Frc consts  --      0.9124                 1.1537                 1.6879
 IR Inten    --     16.1280                34.9737                 4.1544

                     22                     23                     24
                      A                      A                      A
 Frequencies --    766.4857               778.6631               799.0316
 Red. masses --      3.2258                 3.5438                 2.6226
 Frc consts  --      1.1166                 1.2659                 0.9865
 IR Inten    --     15.9090                 5.0156                 3.5145

                     25                     26                     27
                      A                      A                      A
 Frequencies --    816.0778               821.6780               826.4249
 Red. masses --      2.3160                 1.8473                 1.9880
 Frc consts  --      0.9088                 0.7348                 0.8000
 IR Inten    --     18.3860                20.2783                19.0889

                     28                     29                     30
                      A                      A                      A
 Frequencies --    874.4243               898.5564               930.8687
 Red. masses --      3.3341                 3.1193                 2.3056
 Frc consts  --      1.5020                 1.4839                 1.1771
 IR Inten    --      4.0654                 1.6359                 3.6134

                     31                     32                     33
                      A                      A                      A
 Frequencies --    951.5463               981.8461              1001.5157
 Red. masses --      1.3759                 1.3237                 2.3401
 Frc consts  --      0.7340                 0.7518                 1.3829
 IR Inten    --      0.2529                 0.3837                 8.6475

                     34                     35                     36
                      A                      A                      A
 Frequencies --   1041.6841              1070.3457              1079.5845
 Red. masses --      2.8874                 2.2588                 2.6835
 Frc consts  --      1.8460                 1.5246                 1.8427
 IR Inten    --      4.4799                 1.8954                 6.3183

                     37                     38                     39
                      A                      A                      A
 Frequencies --   1104.9652              1128.6027              1160.6057
 Red. masses --      2.1789                 2.8084                 1.3453
 Frc consts  --      1.5674                 2.1076                 1.0677
 IR Inten    --     18.5014                25.0879                 0.8569

                     40                     41                     42
                      A                      A                      A
 Frequencies --   1185.2492              1214.6916              1231.3011
 Red. masses --      1.3316                 1.3955                 1.4712
 Frc consts  --      1.1022                 1.2131                 1.3142
 IR Inten    --      4.3659                 3.4635                 3.7325

                     43                     44                     45
                      A                      A                      A
 Frequencies --   1263.0905              1289.6058              1301.8487
 Red. masses --      2.2439                 1.9359                 1.4441
 Frc consts  --      2.1093                 1.8969                 1.4420
 IR Inten    --    116.3803                 6.0507                10.4745

                     46                     47                     48
                      A                      A                      A
 Frequencies --   1319.4962              1341.2980              1356.8102
 Red. masses --      1.5304                 5.0474                 1.7860
 Frc consts  --      1.5698                 5.3501                 1.9372
 IR Inten    --     20.0956                 1.0039                16.9301

                     49                     50                     51
                      A                      A                      A
 Frequencies --   1376.6549              1417.8397              1429.4763
 Red. masses --      1.7462                 2.3217                 2.2464
 Frc consts  --      1.9498                 2.7499                 2.7045
 IR Inten    --     11.7259                42.5115                67.0197

                     52                     53                     54
                      A                      A                      A
 Frequencies --   1442.8006              1496.6834              1508.7684
 Red. masses --      1.9311                 1.0859                 2.5298
 Frc consts  --      2.3685                 1.4332                 3.3930
 IR Inten    --     35.7640                 4.5885                 2.8138

                     55                     56                     57
                      A                      A                      A
 Frequencies --   1525.1778              1572.0568              1615.7701
 Red. masses --      1.1080                 5.8228                 6.2393
 Frc consts  --      1.5185                 8.4784                 9.5972
 IR Inten    --      4.8943                28.7310                 5.5298

                     58                     59                     60
                      A                      A                      A
 Frequencies --   1638.9227              1840.2544              3047.6282
 Red. masses --      6.0535                10.5853                 1.0845
 Frc consts  --      9.5802                21.1207                 5.9350
 IR Inten    --     10.5545               480.7045                24.8321

                     61                     62                     63
                      A                      A                      A
 Frequencies --   3077.0427              3081.9806              3136.6030
 Red. masses --      1.0689                 1.0635                 1.0990
 Frc consts  --      5.9626                 5.9520                 6.3703
 IR Inten    --      3.4334                31.6096                 8.9710

                     64                     65                     66
                      A                      A                      A
 Frequencies --   3145.1048              3185.1595              3194.5832
 Red. masses --      1.1015                 1.0887                 1.0898
 Frc consts  --      6.4196                 6.5077                 6.5530
 IR Inten    --     24.8857                14.0846                15.6566

                     67                     68                     69
                      A                      A                      A
 Frequencies --   3219.5163              3262.8031              3618.7882
 Red. masses --      1.0960                 1.0932                 1.0775
 Frc consts  --      6.6933                 6.8571                 8.3135
 IR Inten    --     18.4957                 1.8885                24.2164

 - Thermochemistry -
 -------------------
 Temperature   298.150 Kelvin.  Pressure   1.00000 Atm.
 Atom     1 has atomic number  6 and mass  12.00000

 Molecular mass:   218.05138 amu.
 Principal axes and moments of inertia in atomic units:
                           1         2         3
     Eigenvalues --  1515.744005195.587106260.89591
           X            0.99997  -0.00589  -0.00428
           Y            0.00585   0.99994  -0.00938
           Z            0.00434   0.00935   0.99995
 This molecule is an asymmetric top.
 Rotational symmetry number  1.
 Warning -- assumption of classical behavior for rotation
           may cause significant error
 Rotational temperatures (Kelvin)      0.05714     0.01667     0.01383
 Rotational constants (GHZ):           1.19066     0.34736     0.28826
 Zero-point vibrational energy     511708.3 (Joules/Mol)
                                  122.30123 (Kcal/Mol)
 Warning -- explicit consideration of  18 degrees of freedom as
           vibrations may cause significant error
 Vibrational temperatures:     56.58    76.02   124.97   212.52   220.96
          (Kelvin)            290.78   333.38   425.94   494.84   591.74
                              634.60   680.93   720.67   731.20   739.93
                              793.74   842.28   872.94   913.88   973.87
                             1038.92  1102.80  1120.32  1149.63  1174.15
                             1182.21  1189.04  1258.10  1292.82  1339.31
                             1369.06  1412.66  1440.96  1498.75  1539.99
                             1553.28  1589.80  1623.81  1669.85  1705.31
                             1747.67  1771.57  1817.31  1855.46  1873.07
                             1898.46  1929.83  1952.15  1980.70  2039.96
                             2056.70  2075.87  2153.39  2170.78  2194.39
                             2261.84  2324.73  2358.04  2647.72  4384.86
                             4427.18  4434.28  4512.87  4525.10  4582.73
                             4596.29  4632.17  4694.45  5206.63

 Zero-point correction=                           0.194899 (Hartree/Particle)
 Thermal correction to Energy=                    0.206747
 Thermal correction to Enthalpy=                  0.207691
 Thermal correction to Gibbs Free Energy=         0.155623
 Sum of electronic and zero-point Energies=          -1007.988142
 Sum of electronic and thermal Energies=             -1007.976294
 Sum of electronic and thermal Enthalpies=           -1007.975350
 Sum of electronic and thermal Free Energies=        -1008.027419

                     E (Thermal)             CV                S
                      KCal/Mol        Cal/Mol-Kelvin    Cal/Mol-Kelvin
 Total                  129.736             46.798            109.587
 Electronic               0.000              0.000              0.000
 Translational            0.889              2.981             42.042
 Rotational               0.889              2.981             32.267
 Vibrational            127.958             40.837             35.279
 Vibration     1          0.594              1.981              5.293
 Vibration     2          0.596              1.976              4.708
 Vibration     3          0.601              1.958              3.730
 Vibration     4          0.617              1.905              2.702
 Vibration     5          0.619              1.899              2.627
 Vibration     6          0.639              1.837              2.114
 Vibration     7          0.653              1.792              1.866
 Vibration     8          0.690              1.681              1.439
 Vibration     9          0.723              1.588              1.194
 Vibration    10          0.775              1.446              0.922
 Vibration    11          0.801              1.381              0.823
 Vibration    12          0.830              1.309              0.728
 Vibration    13          0.856              1.248              0.656
 Vibration    14          0.863              1.232              0.638
 Vibration    15          0.869              1.218              0.623
 Vibration    16          0.907              1.136              0.541
 Vibration    17          0.942              1.063              0.475
 Vibration    18          0.965              1.018              0.438

                           ! Non-Optimized Parameters !
 Normal termination of Gaussian 16 at Thu Dec 10 17:01:18 2020.

 ----------------------------------------------------------------------
 # B3LYP/6-311++G(d,p) empiricaldispersion=gd3bj scf=xqc pop=npa geom=c
 heck
 ----------------------------------------------------------------------

 ---------------------------------------
 CID_119087292_JID_5780_Energie_neutraal
 ---------------------------------------
 Structure from the checkpoint file:  "JID_5780.chk"
 Charge =  0 Multiplicity = 1

 SCF Done:  E(RB3LYP) =  -1008.37315963     A.U. after   17 cycles
 Normal termination of Gaussian 16 at Thu Dec 10 17:04:44 2020.

 ----------------------------------------------------------------------
 # B3LYP/6-311++G(d,p) empiricaldispersion=gd3bj scf=xqc pop=npa geom=c
 heck
 ----------------------------------------------------------------------

 -------------------------------------
 CID_119087292_JID_5780_Energie_kation
 -------------------------------------
 Structure from the checkpoint file:  "JID_5780.chk"
 Charge =  1 Multiplicity = 2

 SCF Done:  E(UB3LYP) =  -1008.06378012     A.U. after   31 cycles
 Normal termination of Gaussian 16 at Thu Dec 10 17:13:51 2020.
 Gaussian 16:  ES64L-G16RevA.03 25-Dec-2016

 ----------------------------------------------------------------------
 # B3LYP/6-311++G(d,p) empiricaldispersion=gd3bj scf=xqc pop=npa geom=c
 heck
 ----------------------------------------------------------------------

 ------------------------------------
 CID_119087292_JID_5780_Energie_anion
 ------------------------------------
 Structure from the checkpoint file:  "JID_5780.chk"
 Charge = -1 Multiplicity = 2

                         Standard orientation:
 ---------------------------------------------------------------------
 Center     Atomic      Atomic             Coordinates (Angstroms)
 Number     Number       Type             X           Y           Z
 ---------------------------------------------------------------------
      1          6           0       -1.778765   -1.637911    0.608524
      2          6           0       -2.864990   -0.736761    1.211422
      3          6           0       -3.412689    0.049087    0.016724
      4          8           0       -4.409176    0.745901   -0.023622
      5          7           0       -2.539454   -0.164713   -1.026790
      6          6           0       -1.316229   -0.859151   -0.658436
      7          6           0       -0.161287    0.074039   -0.374763
      8          6           0       -0.265373    1.419873   -0.194431
      9         16           0        1.247579    2.220510    0.169129
     10          6           0        2.094870    0.676132    0.082987
     11          6           0        1.199550   -0.383127   -0.218105
     12          6           0        1.755676   -1.667200   -0.311629
     13          6           0        3.122920   -1.809342   -0.108995
     14          6           0        3.899770   -0.676531    0.182310
     15          7           0        3.403961    0.560535    0.280277
     16          1           0       -0.945964   -1.838174    1.286054
     17          1           0       -2.210171   -2.595415    0.299194
     18          1           0       -2.450655   -0.015060    1.924972
     19          1           0       -3.668350   -1.277380    1.716333
     20          1           0       -2.610652    0.402719   -1.861243
     21          1           0       -1.023812   -1.557985   -1.451744
     22          1           0       -1.171561    2.007974   -0.254407
     23          1           0        1.134256   -2.529774   -0.536141
     24          1           0        3.595893   -2.783923   -0.172283
     25          1           0        4.970893   -0.773762    0.344114
 ---------------------------------------------------------------------

 SCF Done:  E(UB3LYP) =  -1008.37881284     A.U. after   31 cycles

 The electronic state is 2-A.
 Alpha  occ. eigenvalues --  -88.73691 -18.99148 -14.23297 -14.16129 -10.17184
 Alpha  occ. eigenvalues --  -10.11310 -10.09595 -10.08125 -10.07677 -10.05740
 Alpha  occ. eigenvalues --  -10.05579 -10.04864 -10.04489 -10.04230 -10.03546
 Alpha  occ. eigenvalues --   -7.82334  -5.78626  -5.78302  -5.77886  -0.94072
 Alpha  occ. eigenvalues --   -0.84023  -0.81239  -0.73046  -0.68440  -0.66830
 Alpha  occ. eigenvalues --   -0.63336  -0.60002  -0.57438  -0.50912  -0.49731
 Alpha  occ. eigenvalues --   -0.48810  -0.46931  -0.43952  -0.39489  -0.39015
 Alpha  occ. eigenvalues --   -0.35593  -0.35309  -0.34454  -0.33094  -0.31167
 Alpha  occ. eigenvalues --   -0.30854  -0.30383  -0.29175  -0.28588  -0.27014
 Alpha  occ. eigenvalues --   -0.26411  -0.25646  -0.24778  -0.23469  -0.21659
 Alpha  occ. eigenvalues --   -0.21059  -0.17230  -0.16449  -0.15372  -0.12503
 Alpha  occ. eigenvalues --   -0.11523  -0.10018   0.04552
 Alpha virt. eigenvalues --    0.07067   0.08712   0.08946   0.09247   0.10330
 Alpha virt. eigenvalues --    0.10906   0.11271   0.11395   0.11836   0.12099
 Alpha virt. eigenvalues --    0.13242   0.13690   0.13792   0.14867   0.14917

  Beta  occ. eigenvalues --  -88.73683 -18.99147 -14.23288 -14.15800 -10.17184
  Beta  occ. eigenvalues --  -10.11306 -10.09664 -10.08123 -10.07662 -10.05532
  Beta  occ. eigenvalues --  -10.05243 -10.04831 -10.04414 -10.04302 -10.03179
  Beta  occ. eigenvalues --   -7.82327  -5.78628  -5.78303  -5.77850  -0.94069
  Beta  occ. eigenvalues --   -0.84003  -0.80805  -0.72683  -0.68406  -0.66429
  Beta  occ. eigenvalues --   -0.63210  -0.59623  -0.57296  -0.50810  -0.49120
  Beta  occ. eigenvalues --   -0.48731  -0.46792  -0.43740  -0.39409  -0.38866
  Beta  occ. eigenvalues --   -0.35420  -0.35178  -0.34380  -0.32969  -0.31057
  Beta  occ. eigenvalues --   -0.30815  -0.30287  -0.29108  -0.28058  -0.26814
  Beta  occ. eigenvalues --   -0.26143  -0.25491  -0.24652  -0.23355  -0.21546
  Beta  occ. eigenvalues --   -0.19975  -0.16471  -0.15944  -0.15267  -0.12162
  Beta  occ. eigenvalues --   -0.10712  -0.08742
  Beta virt. eigenvalues --    0.07271   0.08681   0.09010   0.09329   0.10285
  Beta virt. eigenvalues --    0.10333   0.11148   0.11431   0.11580   0.11886
  Beta virt. eigenvalues --    0.12130   0.13308   0.13713   0.13814   0.14779

 Mulliken charges and spin densities:
               1          2
     1  C   -0.309092  -0.380597
     2  C   -0.196623  -0.048997
     3  C   -0.016596   0.016823
     4  O   -0.384461   0.003355
     5  N   -0.196781   0.041714
     6  C    0.402308  -0.294778
     7  C    0.374332  -0.087056
     8  C   -0.086715   0.332064
     9  S   -0.445367  -0.000934
    10  C   -0.593145   0.041261
    11  C    0.620745   0.016334
    12  C   -0.523981   0.219932
    13  C   -0.359853  -0.125026
    14  C   -0.069517   0.141607
    15  N   -0.007228   0.136153
    16  H    0.166185  -0.014104
    17  H   -0.090297   0.238608
    18  H    0.162285   0.004146
    19  H    0.146156   0.017310
    20  H    0.175827   0.123049
    21  H   -0.192207   0.456010
    22  H    0.248444  -0.009963
    23  H   -0.039864   0.136584
    24  H    0.072583   0.051680
    25  H    0.142860  -0.015174
 Sum of Mulliken charges =  -1.00000   1.00000

 Dipole moment (field-independent basis, Debye):
    X=             -1.5579    Y=             -1.2105    Z=              1.1680  Tot=              2.2927
 Quadrupole moment (field-independent basis, Debye-Ang):
   XX=           -160.7072   YY=           -118.0117   ZZ=           -107.4706
   XY=              0.1491   XZ=             -3.1673   YZ=             -4.7975

 Summary of Natural Population Analysis:

                                       Natural Population
                Natural  -----------------------------------------------
    Atom  No    Charge         Core      Valence    Rydberg      Total
 -----------------------------------------------------------------------
      C    1   -0.18777      0.99962     2.17931    0.00883     3.18777
      C    2   -0.23665      0.99960     2.22986    0.00719     3.23665
      C    3    0.34330      0.99968     1.63146    0.02556     2.65670
      O    4   -0.32426      0.99987     3.31859    0.00580     4.32426
      N    5   -0.31927      0.99967     2.81010    0.00949     3.81927
      C    6   -0.00980      0.99956     1.99674    0.01349     3.00980
      C    7   -0.05558      0.99943     2.04455    0.01160     3.05558
      C    8   -0.11830      0.99944     2.10676    0.01210     3.11830
      S    9    0.16984      4.99946     2.80999    0.02072     7.83016
      C   10    0.01840      0.99944     1.96055    0.02161     2.98160
      C   11   -0.05345      0.99942     2.04382    0.01021     3.05345
      C   12   -0.02054      0.99953     2.01139    0.00961     3.02054
      C   13   -0.14623      0.99957     2.13795    0.00871     3.14623
      C   14    0.05360      0.99961     1.93234    0.01445     2.94640
      N   15   -0.20588      0.99964     2.69399    0.01225     3.70588
      H   16    0.10819      0.00000     0.39092    0.00089     0.39181
      H   17    0.09775      0.00000     0.40093    0.00131     0.40225
      H   18    0.11260      0.00000     0.38637    0.00103     0.38740
      H   19    0.10700      0.00000     0.39210    0.00090     0.39300
      H   20    0.19765      0.00000     0.30003    0.00231     0.30235
      H   21    0.10308      0.00000     0.39361    0.00331     0.39692
      H   22    0.10184      0.00000     0.39712    0.00105     0.39816
      H   23    0.09171      0.00000     0.40681    0.00148     0.40829
      H   24    0.09476      0.00000     0.40434    0.00090     0.40524
      H   25    0.07801      0.00000     0.42085    0.00114     0.42199
 =======================================================================
   * Total *    0.00000     18.99355    37.80049    0.20596    57.00000

 Normal termination of Gaussian 16 at Thu Dec 10 17:23:21 2020.
