 Gaussian 16, Revision A.03,

 -----------------------------------------------------------
 # opt freq B3LYP/6-31G(d) empiricaldispersion=gd3bj scf=xqc
 -----------------------------------------------------------

 -------------------------------
 CID_113479079_JID_8853_neutraal
 -------------------------------
 Symbolic Z-matrix:
 Charge =  0 Multiplicity = 1

 SCF Done:  E(RB3LYP) =  -1465.14296103     A.U. after   16 cycles
 SCF Done:  E(RB3LYP) =  -1465.14984678     A.U. after   13 cycles
 SCF Done:  E(RB3LYP) =  -1465.15048657     A.U. after   12 cycles
 SCF Done:  E(RB3LYP) =  -1465.15064045     A.U. after   12 cycles
 SCF Done:  E(RB3LYP) =  -1465.15052681     A.U. after   12 cycles
 SCF Done:  E(RB3LYP) =  -1465.15075915     A.U. after   12 cycles
 SCF Done:  E(RB3LYP) =  -1465.15084743     A.U. after   11 cycles
 SCF Done:  E(RB3LYP) =  -1465.15085233     A.U. after   10 cycles
 SCF Done:  E(RB3LYP) =  -1465.15085315     A.U. after    8 cycles
 SCF Done:  E(RB3LYP) =  -1465.15085341     A.U. after    7 cycles
 SCF Done:  E(RB3LYP) =  -1465.15085360     A.U. after    7 cycles
 Optimization completed.
    -- Stationary point found.
 Normal termination of Gaussian 16 at Fri Dec 11 22:15:19 2020.

 --------------------------------------------------------------------
 #N Geom=AllCheck Guess=TCheck SCRF=Check GenChk RB3LYP/6-31G(d) Freq
 --------------------------------------------------------------------

 Structure from the checkpoint file:  "JID_8853.chk"
 -------------------------------
 CID_113479079_JID_8853_neutraal
 -------------------------------
 Charge =  0 Multiplicity = 1

 SCF Done:  E(RB3LYP) =  -1465.15085360     A.U. after    1 cycles

  Exact polarizability: 266.207 -43.318 211.460 -10.970 -13.789 107.499
 Approx polarizability: 425.156 -97.184 341.683 -22.617 -29.350 176.481

                      1                      2                      3
                      A                      A                      A
 Frequencies --     30.4205                54.6139                59.5813
 Red. masses --      4.2292                 5.4448                 7.2333
 Frc consts  --      0.0023                 0.0096                 0.0151
 IR Inten    --      0.5182                 4.8849                 1.2294

                      4                      5                      6
                      A                      A                      A
 Frequencies --     92.5766               104.8308               131.7134
 Red. masses --      5.9892                 4.1646                 5.0269
 Frc consts  --      0.0302                 0.0270                 0.0514
 IR Inten    --      2.5021                 0.3439                 8.2536

                      7                      8                      9
                      A                      A                      A
 Frequencies --    148.6752               157.1561               184.8892
 Red. masses --      8.3621                 2.1247                 1.8505
 Frc consts  --      0.1089                 0.0309                 0.0373
 IR Inten    --      0.8895                 0.6794                 1.6513

                     10                     11                     12
                      A                      A                      A
 Frequencies --    198.8962               219.9452               243.2199
 Red. masses --      3.2326                 4.5538                 2.9120
 Frc consts  --      0.0753                 0.1298                 0.1015
 IR Inten    --      0.6952                 0.4566                 0.1061

                     13                     14                     15
                      A                      A                      A
 Frequencies --    259.3510               284.8241               303.8275
 Red. masses --      1.1815                 1.7763                 1.7576
 Frc consts  --      0.0468                 0.0849                 0.0956
 IR Inten    --      0.3201                 1.3260                 0.9300

                     16                     17                     18
                      A                      A                      A
 Frequencies --    310.3528               332.2911               346.3671
 Red. masses --      3.7853                 3.0411                 3.6804
 Frc consts  --      0.2148                 0.1978                 0.2601
 IR Inten    --      0.5615                 1.4206                 0.9672

                     19                     20                     21
                      A                      A                      A
 Frequencies --    361.6444               372.7132               408.8915
 Red. masses --      2.8103                10.7414                 2.6358
 Frc consts  --      0.2166                 0.8791                 0.2596
 IR Inten    --      3.1615                 4.6834                 1.2376

                     22                     23                     24
                      A                      A                      A
 Frequencies --    433.3330               466.7332               496.8729
 Red. masses --      3.4035                 3.4896                 6.6641
 Frc consts  --      0.3765                 0.4479                 0.9694
 IR Inten    --      0.3770                 6.5526                 7.4824

                     25                     26                     27
                      A                      A                      A
 Frequencies --    504.3267               534.0649               537.7364
 Red. masses --      6.5549                 1.9367                 1.8941
 Frc consts  --      0.9823                 0.3255                 0.3227
 IR Inten    --      5.7703                48.3000                43.0825

                     28                     29                     30
                      A                      A                      A
 Frequencies --    583.0476               603.9948               635.7603
 Red. masses --      4.1422                 4.4630                 3.8889
 Frc consts  --      0.8296                 0.9593                 0.9261
 IR Inten    --      5.7306                 2.5918                18.2953

                     31                     32                     33
                      A                      A                      A
 Frequencies --    645.2777               675.5301               719.5443
 Red. masses --      6.2960                 8.6626                 6.1309
 Frc consts  --      1.5446                 2.3291                 1.8702
 IR Inten    --      7.5702                 4.5082                 0.6365

                     34                     35                     36
                      A                      A                      A
 Frequencies --    734.6469               746.1281               817.2702
 Red. masses --      6.0838                 4.6672                 3.7259
 Frc consts  --      1.9346                 1.5308                 1.4663
 IR Inten    --      2.2002                 0.7694                 1.6695

                     37                     38                     39
                      A                      A                      A
 Frequencies --    821.2676               840.3773               861.4850
 Red. masses --      1.4859                 3.8133                 1.5220
 Frc consts  --      0.5905                 1.5867                 0.6655
 IR Inten    --     26.5568                 0.5402                11.5810

                     40                     41                     42
                      A                      A                      A
 Frequencies --    866.5068               917.5390               938.5715
 Red. masses --      3.4347                 2.2918                 1.2838
 Frc consts  --      1.5195                 1.1368                 0.6663
 IR Inten    --      1.2177                15.7399                 0.1063

                     43                     44                     45
                      A                      A                      A
 Frequencies --    968.9785               972.2640               988.5349
 Red. masses --      1.9589                 1.7934                 1.1962
 Frc consts  --      1.0836                 0.9988                 0.6887
 IR Inten    --      6.2566                 2.4799                 5.3274

                     46                     47                     48
                      A                      A                      A
 Frequencies --    989.8581              1028.4848              1053.2767
 Red. masses --      1.3042                 1.9303                 1.3709
 Frc consts  --      0.7529                 1.2030                 0.8961
 IR Inten    --      8.4854                 7.7924                 2.6803

                     49                     50                     51
                      A                      A                      A
 Frequencies --   1125.7127              1161.9595              1175.7970
 Red. masses --      2.9759                 1.7173                 1.6587
 Frc consts  --      2.2219                 1.3661                 1.3511
 IR Inten    --      4.9859                17.7280               104.3944

                     52                     53                     54
                      A                      A                      A
 Frequencies --   1201.8995              1211.6072              1225.5204
 Red. masses --      2.8304                 3.8389                 1.7860
 Frc consts  --      2.4090                 3.3203                 1.5804
 IR Inten    --      4.6977                56.8397                59.9706

                     55                     56                     57
                      A                      A                      A
 Frequencies --   1241.5815              1252.4503              1315.1304
 Red. masses --      2.2879                 2.8547                 1.4320
 Frc consts  --      2.0780                 2.6383                 1.4593
 IR Inten    --     13.3662                11.8080                12.0192

                     58                     59                     60
                      A                      A                      A
 Frequencies --   1330.3206              1365.4512              1389.5817
 Red. masses --      5.6524                 1.9461                 1.2210
 Frc consts  --      5.8939                 2.1377                 1.3891
 IR Inten    --      6.2595                28.3585                13.1091

                     61                     62                     63
                      A                      A                      A
 Frequencies --   1393.5616              1401.5870              1423.1343
 Red. masses --      3.7580                 3.2212                 1.4169
 Frc consts  --      4.2999                 3.7283                 1.6907
 IR Inten    --     80.7706               114.6426                 3.6146

                     64                     65                     66
                      A                      A                      A
 Frequencies --   1431.7360              1454.9499              1491.6526
 Red. masses --      1.2229                 1.2271                 1.2336
 Frc consts  --      1.4770                 1.5305                 1.6172
 IR Inten    --      7.1719                14.5013                79.1698

                     67                     68                     69
                      A                      A                      A
 Frequencies --   1495.1956              1501.2820              1509.6174
 Red. masses --      2.2587                 1.2405                 1.4614
 Frc consts  --      2.9752                 1.6474                 1.9623
 IR Inten    --    415.0712                30.1277                 3.2334

                     70                     71                     72
                      A                      A                      A
 Frequencies --   1516.6319              1519.0130              1522.5488
 Red. masses --      1.0692                 1.4537                 1.0593
 Frc consts  --      1.4489                 1.9762                 1.4468
 IR Inten    --      9.9803                25.5697                13.8251

                     73                     74                     75
                      A                      A                      A
 Frequencies --   1531.8979              1534.5017              1543.8628
 Red. masses --      1.1446                 2.5934                 1.0561
 Frc consts  --      1.5826                 3.5980                 1.4831
 IR Inten    --      7.2054                39.4378                 7.3685

                     76                     77                     78
                      A                      A                      A
 Frequencies --   1655.5197              1672.9228              2348.7038
 Red. masses --      6.5388                 7.0106                12.6780
 Frc consts  --     10.5589                11.5600                41.2057
 IR Inten    --     19.7321                26.5644                60.3321

                     79                     80                     81
                      A                      A                      A
 Frequencies --   3052.3349              3055.2017              3067.7635
 Red. masses --      1.0359                 1.0354                 1.0350
 Frc consts  --      5.6863                 5.6944                 5.7391
 IR Inten    --     12.0383                22.2703                11.2617

                     82                     83                     84
                      A                      A                      A
 Frequencies --   3076.2083              3115.9357              3124.7229
 Red. masses --      1.0581                 1.1016                 1.1052
 Frc consts  --      5.8996                 6.3015                 6.3581
 IR Inten    --     23.3177                13.2031                 8.2512

                     85                     86                     87
                      A                      A                      A
 Frequencies --   3133.0823              3137.3464              3140.9284
 Red. masses --      1.1006                 1.1028                 1.1022
 Frc consts  --      6.3654                 6.3955                 6.4066
 IR Inten    --     19.3511                21.6904                13.0102

                     88                     89                     90
                      A                      A                      A
 Frequencies --   3150.7914              3157.8702              3215.9153
 Red. masses --      1.1030                 1.1051                 1.0892
 Frc consts  --      6.4518                 6.4927                 6.6372
 IR Inten    --      7.2402                 6.5337                 3.2958

                     91                     92                     93
                      A                      A                      A
 Frequencies --   3232.6005              3280.1722              3663.5154
 Red. masses --      1.0950                 1.0913                 1.0807
 Frc consts  --      6.7419                 6.9183                 8.5454
 IR Inten    --      3.2250                 0.1997                93.8962

 - Thermochemistry -
 -------------------
 Temperature   298.150 Kelvin.  Pressure   1.00000 Atm.
 Atom     1 has atomic number  6 and mass  12.00000

 Molecular mass:   277.07074 amu.
 Principal axes and moments of inertia in atomic units:
                           1         2         3
     Eigenvalues --  4241.427315867.241689384.46730
           X            0.99558   0.09388  -0.00291
           Y           -0.09391   0.99542  -0.01769
           Z            0.00123   0.01788   0.99984
 This molecule is an asymmetric top.
 Rotational symmetry number  1.
 Warning -- assumption of classical behavior for rotation
           may cause significant error
 Rotational temperatures (Kelvin)      0.02042     0.01476     0.00923
 Rotational constants (GHZ):           0.42550     0.30760     0.19231
 Zero-point vibrational energy     691070.2 (Joules/Mol)
                                  165.16974 (Kcal/Mol)
 Warning -- explicit consideration of  29 degrees of freedom as
           vibrations may cause significant error
 Vibrational temperatures:     43.77    78.58    85.72   133.20   150.83
          (Kelvin)            189.51   213.91   226.11   266.01   286.17
                              316.45   349.94   373.15   409.80   437.14
                              446.53   478.09   498.34   520.33   536.25
                              588.30   623.47   671.52   714.89   725.61
                              768.40   773.68   838.88   869.01   914.72
                              928.41   971.94  1035.26  1056.99  1073.51
                             1175.87  1181.62  1209.12  1239.48  1246.71
                             1320.13  1350.40  1394.14  1398.87  1422.28
                             1424.19  1479.76  1515.43  1619.65  1671.80
                             1691.71  1729.27  1743.23  1763.25  1786.36
                             1802.00  1892.18  1914.03  1964.58  1999.30
                             2005.02  2016.57  2047.57  2059.95  2093.35
                             2146.16  2151.25  2160.01  2172.00  2182.10
                             2185.52  2190.61  2204.06  2207.81  2221.27
                             2381.92  2406.96  3379.26  4391.63  4395.75
                             4413.83  4425.98  4483.14  4495.78  4507.81
                             4513.94  4519.10  4533.29  4543.47  4626.98
                             4650.99  4719.44  5270.98

 Zero-point correction=                           0.263215 (Hartree/Particle)
 Thermal correction to Energy=                    0.280949
 Thermal correction to Enthalpy=                  0.281893
 Thermal correction to Gibbs Free Energy=         0.217514
 Sum of electronic and zero-point Energies=          -1464.887639
 Sum of electronic and thermal Energies=             -1464.869905
 Sum of electronic and thermal Enthalpies=           -1464.868960
 Sum of electronic and thermal Free Energies=        -1464.933340

                     E (Thermal)             CV                S
                      KCal/Mol        Cal/Mol-Kelvin    Cal/Mol-Kelvin
 Total                  176.298             67.586            135.498
 Electronic               0.000              0.000              0.000
 Translational            0.889              2.981             42.756
 Rotational               0.889              2.981             33.812
 Vibrational            174.521             61.624             58.930
 Vibration     1          0.594              1.984              5.802
 Vibration     2          0.596              1.976              4.643
 Vibration     3          0.597              1.974              4.471
 Vibration     4          0.602              1.954              3.605
 Vibration     5          0.605              1.945              3.362
 Vibration     6          0.612              1.922              2.921
 Vibration     7          0.618              1.904              2.689
 Vibration     8          0.621              1.895              2.584
 Vibration     9          0.631              1.860              2.278
 Vibration    10          0.637              1.841              2.143
 Vibration    11          0.647              1.811              1.960
 Vibration    12          0.659              1.774              1.779
 Vibration    13          0.668              1.747              1.666
 Vibration    14          0.683              1.702              1.505
 Vibration    15          0.695              1.666              1.396
 Vibration    16          0.699              1.654              1.360
 Vibration    17          0.714              1.611              1.249
 Vibration    18          0.724              1.583              1.183
 Vibration    19          0.736              1.551              1.115
 Vibration    20          0.744              1.528              1.069
 Vibration    21          0.773              1.451              0.931
 Vibration    22          0.794              1.398              0.848
 Vibration    23          0.824              1.324              0.747
 Vibration    24          0.852              1.257              0.666
 Vibration    25          0.860              1.240              0.647
 Vibration    26          0.889              1.175              0.578
 Vibration    27          0.893              1.167              0.570
 Vibration    28          0.940              1.068              0.480
 Vibration    29          0.962              1.023              0.443

 Optimization completed.
    -- Stationary point found.
 Normal termination of Gaussian 16 at Fri Dec 11 22:33:19 2020.

 ----------------------------------------------------------------------
 # B3LYP/6-311++G(d,p) empiricaldispersion=gd3bj scf=xqc pop=npa geom=c
 heck
 ----------------------------------------------------------------------

 ---------------------------------------
 CID_113479079_JID_8853_Energie_neutraal
 ---------------------------------------
 Structure from the checkpoint file:  "JID_8853.chk"
 Charge =  0 Multiplicity = 1

 SCF Done:  E(RB3LYP) =  -1465.37893580     A.U. after   16 cycles
 Normal termination of Gaussian 16 at Fri Dec 11 22:41:42 2020.

 ----------------------------------------------------------------------
 # B3LYP/6-311++G(d,p) empiricaldispersion=gd3bj scf=xqc pop=npa geom=c
 heck
 ----------------------------------------------------------------------

 -------------------------------------
 CID_113479079_JID_8853_Energie_kation
 -------------------------------------
 Structure from the checkpoint file:  "JID_8853.chk"
 Charge =  1 Multiplicity = 2

 SCF Done:  E(UB3LYP) =  -1465.09881553     A.U. after   25 cycles
 Normal termination of Gaussian 16 at Fri Dec 11 23:00:07 2020.
 Gaussian 16:  ES64L-G16RevA.03 25-Dec-2016

 ----------------------------------------------------------------------
 # B3LYP/6-311++G(d,p) empiricaldispersion=gd3bj scf=xqc pop=npa geom=c
 heck
 ----------------------------------------------------------------------

 ------------------------------------
 CID_113479079_JID_8853_Energie_anion
 ------------------------------------
 Structure from the checkpoint file:  "JID_8853.chk"
 Charge = -1 Multiplicity = 2

                         Standard orientation:
 ---------------------------------------------------------------------
 Center     Atomic      Atomic             Coordinates (Angstroms)
 Number     Number       Type             X           Y           Z
 ---------------------------------------------------------------------
      1          6           0        2.614676    0.454855    1.347905
      2          6           0        2.058222    1.226393    0.145852
      3          6           0        3.178256    2.018690   -0.539298
      4          6           0        1.443786    0.278163   -0.910806
      5          7           0        0.579895   -0.778766   -0.401996
      6          6           0       -0.798566   -0.700816   -0.195572
      7          6           0       -1.226641   -1.980228    0.216106
      8          6           0       -2.561278   -2.253630    0.501934
      9          6           0       -3.476466   -1.215795    0.350477
     10          6           0       -3.057102    0.059621   -0.079237
     11          6           0       -1.705920    0.333841   -0.357782
     12          6           0       -4.021492    1.105479   -0.233887
     13          7           0       -4.801315    1.958982   -0.364599
     14          7           0       -0.095399   -2.771537    0.231432
     15          6           0        1.020629   -2.073480   -0.177456
     16         16           0        2.543910   -2.714260   -0.385380
     17         16           0        0.784952    2.371403    0.876751
     18          6           0        0.389591    3.489057   -0.510921
     19          1           0        3.341395   -0.289864    1.012660
     20          1           0        1.821795   -0.072181    1.887388
     21          1           0        3.101477    1.145204    2.042865
     22          1           0        3.984444    1.337725   -0.836992
     23          1           0        2.827760    2.533306   -1.440222
     24          1           0        3.591240    2.765608    0.144327
     25          1           0        0.876424    0.846362   -1.654130
     26          1           0        2.258868   -0.233729   -1.430693
     27          1           0       -2.879740   -3.239545    0.823108
     28          1           0       -4.526788   -1.382626    0.560350
     29          1           0       -1.400653    1.322500   -0.666242
     30          1           0       -0.042567   -3.757131    0.442346
     31          1           0        1.233168    4.133003   -0.769822
     32          1           0        0.061317    2.947396   -1.404723
     33          1           0       -0.438358    4.116047   -0.169893
 ---------------------------------------------------------------------

 SCF Done:  E(UB3LYP) =  -1465.39360980     A.U. after   28 cycles

 The electronic state is 2-A.
 Alpha  occ. eigenvalues --  -88.74137 -88.66710 -14.25266 -14.25164 -14.16334
 Alpha  occ. eigenvalues --  -10.14220 -10.12647 -10.11486 -10.10674 -10.09341
 Alpha  occ. eigenvalues --  -10.08799 -10.08470 -10.06681 -10.06617 -10.06156
 Alpha  occ. eigenvalues --  -10.05987 -10.05087 -10.03607  -7.82779  -7.75487
 Alpha  occ. eigenvalues --   -5.79196  -5.78807  -5.78110  -5.71902  -5.71278
 Alpha  occ. eigenvalues --   -5.71081  -0.91972  -0.81320  -0.76765  -0.74288
 Alpha  occ. eigenvalues --   -0.73373  -0.66920  -0.65819  -0.63672  -0.62089
 Alpha  occ. eigenvalues --   -0.60770  -0.58227  -0.55268  -0.52690  -0.50282
 Alpha  occ. eigenvalues --   -0.48810  -0.44962  -0.43363  -0.41879  -0.38713
 Alpha  occ. eigenvalues --   -0.37957  -0.37239  -0.35943  -0.34927  -0.33760
 Alpha  occ. eigenvalues --   -0.33346  -0.32777  -0.32132  -0.31493  -0.30328
 Alpha  occ. eigenvalues --   -0.29861  -0.28108  -0.27139  -0.26711  -0.25856
 Alpha  occ. eigenvalues --   -0.25424  -0.24739  -0.24245  -0.22810  -0.21662
 Alpha  occ. eigenvalues --   -0.20977  -0.19950  -0.19631  -0.15022  -0.13819
 Alpha  occ. eigenvalues --   -0.11929  -0.10066  -0.08451   0.03889
 Alpha virt. eigenvalues --    0.06426   0.08026   0.08288   0.09304   0.09783
 Alpha virt. eigenvalues --    0.09957   0.10062   0.10665   0.11482   0.11938
 Alpha virt. eigenvalues --    0.12201   0.12319   0.12468   0.13266   0.13520

  Beta  occ. eigenvalues --  -88.74135 -88.66678 -14.25266 -14.25237 -14.16114
  Beta  occ. eigenvalues --  -10.13816 -10.12647 -10.11483 -10.10670 -10.09438
  Beta  occ. eigenvalues --  -10.08586 -10.08468 -10.06678 -10.06615 -10.06240
  Beta  occ. eigenvalues --  -10.05770 -10.04900 -10.03148  -7.82777  -7.75459
  Beta  occ. eigenvalues --   -5.79195  -5.78805  -5.78103  -5.71900  -5.71164
  Beta  occ. eigenvalues --   -5.71064  -0.91766  -0.81290  -0.76415  -0.74273
  Beta  occ. eigenvalues --   -0.72993  -0.66898  -0.65399  -0.63254  -0.61850
  Beta  occ. eigenvalues --   -0.60763  -0.57891  -0.55252  -0.52396  -0.50188
  Beta  occ. eigenvalues --   -0.48386  -0.44853  -0.43225  -0.41609  -0.38688
  Beta  occ. eigenvalues --   -0.37777  -0.37206  -0.35802  -0.34847  -0.33619
  Beta  occ. eigenvalues --   -0.32905  -0.32711  -0.31949  -0.31402  -0.30300
  Beta  occ. eigenvalues --   -0.29808  -0.27936  -0.27071  -0.26681  -0.25125
  Beta  occ. eigenvalues --   -0.24685  -0.24658  -0.24074  -0.22461  -0.21504
  Beta  occ. eigenvalues --   -0.19991  -0.19753  -0.19489  -0.14239  -0.13278
  Beta  occ. eigenvalues --   -0.10445  -0.09981  -0.07688
  Beta virt. eigenvalues --    0.06373   0.07989   0.08241   0.09105   0.09444
  Beta virt. eigenvalues --    0.09929   0.10157   0.10558   0.10742   0.11584
  Beta virt. eigenvalues --    0.11991   0.12164   0.12423   0.13129   0.13357

 Mulliken charges and spin densities:
               1          2
     1  C   -0.486720  -0.007888
     2  C    1.108577  -0.014147
     3  C   -0.595596  -0.007793
     4  C   -1.567461  -0.060394
     5  N    0.563974   0.014574
     6  C   -0.130722  -0.036802
     7  C    0.379964   0.063952
     8  C   -0.418784   0.218369
     9  C   -0.584312  -0.068929
    10  C    1.461726   0.166209
    11  C    0.150592   0.376540
    12  C   -1.323482  -0.081336
    13  N   -0.312740   0.119570
    14  N   -0.127192  -0.050644
    15  C    0.304140   0.205859
    16  S   -1.034430   0.084294
    17  S    0.101533   0.009107
    18  C   -0.678130  -0.036986
    19  H    0.146801   0.023790
    20  H    0.167420   0.007603
    21  H    0.141375  -0.000918
    22  H    0.144263   0.001041
    23  H    0.119833   0.013589
    24  H    0.170009  -0.001348
    25  H    0.162463   0.067313
    26  H    0.079835  -0.013285
    27  H    0.110661  -0.012011
    28  H    0.139556   0.006864
    29  H    0.032427  -0.028805
    30  H    0.316037   0.003469
    31  H    0.162783   0.002921
    32  H    0.121389   0.038460
    33  H    0.174211  -0.002236
 Sum of Mulliken charges =  -1.00000   1.00000

 Dipole moment (field-independent basis, Debye):
    X=              5.8128    Y=              1.3263    Z=              0.5151  Tot=              5.9844
 Quadrupole moment (field-independent basis, Debye-Ang):
   XX=           -196.1504   YY=           -150.9629   ZZ=           -134.9107
   XY=             35.5474   XZ=             -4.0934   YZ=             -7.3915

 Summary of Natural Population Analysis:

                                       Natural Population
                Natural  -----------------------------------------------
    Atom  No    Charge         Core      Valence    Rydberg      Total
 -----------------------------------------------------------------------
      C    1   -0.29761      0.99961     2.29129    0.00671     3.29761
      C    2   -0.09686      0.99956     2.08284    0.01445     3.09686
      C    3   -0.29128      0.99961     2.28573    0.00595     3.29128
      C    4   -0.09089      0.99954     2.07889    0.01246     3.09089
      N    5   -0.22887      0.99958     2.71714    0.01216     3.72887
      C    6    0.06238      0.99946     1.92721    0.01095     2.93762
      C    7    0.10632      0.99947     1.88494    0.00927     2.89368
      C    8   -0.09740      0.99954     2.08965    0.00820     3.09740
      C    9   -0.09821      0.99956     2.09096    0.00769     3.09821
      C   10   -0.06923      0.99944     2.05916    0.01063     3.06923
      C   11   -0.00610      0.99951     1.99821    0.00839     3.00610
      C   12    0.15406      0.99964     1.82803    0.01827     2.84594
      N   13   -0.18194      0.99979     2.67092    0.01123     3.68194
      N   14   -0.29719      0.99962     2.78847    0.00911     3.79719
      C   15    0.19901      0.99964     1.78336    0.01799     2.80099
      S   16   -0.16096      4.99959     3.14647    0.01490     8.16096
      S   17    0.10180      4.99958     2.88132    0.01731     7.89820
      C   18   -0.35888      0.99962     2.35446    0.00480     3.35888
      H   19    0.11688      0.00000     0.38199    0.00113     0.38312
      H   20    0.10972      0.00000     0.38948    0.00080     0.39028
      H   21    0.09880      0.00000     0.40040    0.00080     0.40120
      H   22    0.10325      0.00000     0.39577    0.00099     0.39675
      H   23    0.09867      0.00000     0.40057    0.00077     0.40133
      H   24    0.10322      0.00000     0.39596    0.00082     0.39678
      H   25    0.10095      0.00000     0.39757    0.00147     0.39905
      H   26    0.11724      0.00000     0.38141    0.00135     0.38276
      H   27    0.09504      0.00000     0.40402    0.00094     0.40496
      H   28    0.09886      0.00000     0.40028    0.00086     0.40114
      H   29    0.09721      0.00000     0.40047    0.00231     0.40279
      H   30    0.20365      0.00000     0.29499    0.00136     0.29635
      H   31    0.09680      0.00000     0.40184    0.00136     0.40320
      H   32    0.10033      0.00000     0.39765    0.00202     0.39967
      H   33    0.11123      0.00000     0.38798    0.00080     0.38877
 =======================================================================
   * Total *   -0.00000     25.99235    46.78940    0.21826    73.00000

 Normal termination of Gaussian 16 at Fri Dec 11 23:20:39 2020.
