 Gaussian 16, Revision A.03,

 -----------------------------------------------------------
 # opt freq B3LYP/6-31G(d) empiricaldispersion=gd3bj scf=xqc
 -----------------------------------------------------------

 -------------------------------
 CID_114195577_JID_9314_neutraal
 -------------------------------
 Symbolic Z-matrix:
 Charge =  0 Multiplicity = 1

 SCF Done:  E(RB3LYP) =  -874.547778103     A.U. after   15 cycles
 SCF Done:  E(RB3LYP) =  -874.554020153     A.U. after   12 cycles
 SCF Done:  E(RB3LYP) =  -874.555298443     A.U. after   13 cycles
 SCF Done:  E(RB3LYP) =  -874.556986936     A.U. after   12 cycles
 SCF Done:  E(RB3LYP) =  -874.557140153     A.U. after   13 cycles
 SCF Done:  E(RB3LYP) =  -874.557528855     A.U. after   12 cycles
 SCF Done:  E(RB3LYP) =  -874.558020439     A.U. after   11 cycles
 SCF Done:  E(RB3LYP) =  -874.558089414     A.U. after   11 cycles
 SCF Done:  E(RB3LYP) =  -874.558117980     A.U. after   11 cycles
 SCF Done:  E(RB3LYP) =  -874.558128576     A.U. after   10 cycles
 SCF Done:  E(RB3LYP) =  -874.558146709     A.U. after   11 cycles
 SCF Done:  E(RB3LYP) =  -874.558151444     A.U. after   10 cycles
 SCF Done:  E(RB3LYP) =  -874.558156426     A.U. after    9 cycles
 SCF Done:  E(RB3LYP) =  -874.558157710     A.U. after    9 cycles
 SCF Done:  E(RB3LYP) =  -874.558157989     A.U. after    8 cycles
 SCF Done:  E(RB3LYP) =  -874.558158139     A.U. after    8 cycles
 Optimization completed.
    -- Stationary point found.
 Normal termination of Gaussian 16 at Mon Dec 14 16:53:13 2020.

 --------------------------------------------------------------------
 #N Geom=AllCheck Guess=TCheck SCRF=Check GenChk RB3LYP/6-31G(d) Freq
 --------------------------------------------------------------------

 Structure from the checkpoint file:  "JID_9314.chk"
 -------------------------------
 CID_114195577_JID_9314_neutraal
 -------------------------------
 Charge =  0 Multiplicity = 1

 SCF Done:  E(RB3LYP) =  -874.558158139     A.U. after    1 cycles

  Exact polarizability: 205.524 -12.036 159.098  -9.310  12.434 125.226
 Approx polarizability: 309.874 -24.346 244.406 -23.224  25.779 197.028

                      1                      2                      3
                      A                      A                      A
 Frequencies --     13.7265                47.2469                51.3214
 Red. masses --      4.7165                 4.0853                 3.3057
 Frc consts  --      0.0005                 0.0054                 0.0051
 IR Inten    --      1.0955                 0.3770                 0.2096

                      4                      5                      6
                      A                      A                      A
 Frequencies --     62.8247                73.1688                87.9837
 Red. masses --      3.7038                 5.5126                 3.2320
 Frc consts  --      0.0086                 0.0174                 0.0147
 IR Inten    --      0.3827                 0.3903                 0.2210

                      7                      8                      9
                      A                      A                      A
 Frequencies --    115.0102               119.2488               147.9421
 Red. masses --      4.7912                 3.1860                 3.5625
 Frc consts  --      0.0373                 0.0267                 0.0459
 IR Inten    --      0.1406                 1.4807                 2.2976

                     10                     11                     12
                      A                      A                      A
 Frequencies --    164.2637               185.0989               228.0454
 Red. masses --      3.6362                 3.4157                 1.3098
 Frc consts  --      0.0578                 0.0690                 0.0401
 IR Inten    --      3.5290                 1.6316                 1.3990

                     13                     14                     15
                      A                      A                      A
 Frequencies --    232.7313               259.3033               302.1074
 Red. masses --      1.2686                 4.9735                 3.3164
 Frc consts  --      0.0405                 0.1970                 0.1783
 IR Inten    --      2.3259                 2.1137                 1.3739

                     16                     17                     18
                      A                      A                      A
 Frequencies --    322.7201               345.1238               360.5366
 Red. masses --      3.1109                 3.1046                 3.0305
 Frc consts  --      0.1909                 0.2179                 0.2321
 IR Inten    --      3.8139                15.5788                 2.6046

                     19                     20                     21
                      A                      A                      A
 Frequencies --    381.4243               392.3727               426.1407
 Red. masses --      4.8543                 1.2401                 3.7618
 Frc consts  --      0.4161                 0.1125                 0.4025
 IR Inten    --      5.6623                83.8017                 1.5274

                     22                     23                     24
                      A                      A                      A
 Frequencies --    454.8799               457.7511               480.6047
 Red. masses --      3.5045                 3.1229                 4.2238
 Frc consts  --      0.4272                 0.3855                 0.5748
 IR Inten    --     16.3107                26.4007                17.6854

                     25                     26                     27
                      A                      A                      A
 Frequencies --    515.4039               551.6926               629.3060
 Red. masses --      1.6031                 2.7445                 5.6446
 Frc consts  --      0.2509                 0.4922                 1.3171
 IR Inten    --    249.6160                47.4915                 6.1679

                     28                     29                     30
                      A                      A                      A
 Frequencies --    642.0336               670.2702               691.1543
 Red. masses --      4.6491                 5.0205                 4.7033
 Frc consts  --      1.1291                 1.3289                 1.3237
 IR Inten    --      0.4262                 2.8269                 6.7139

                     31                     32                     33
                      A                      A                      A
 Frequencies --    707.6073               714.8962               743.9491
 Red. masses --      4.0926                 1.5133                 3.4997
 Frc consts  --      1.2074                 0.4557                 1.1412
 IR Inten    --     20.3428                15.6812                 1.2948

                     34                     35                     36
                      A                      A                      A
 Frequencies --    759.0030               790.3135               793.5680
 Red. masses --      5.2299                 2.4893                 2.4924
 Frc consts  --      1.7751                 0.9161                 0.9248
 IR Inten    --     20.2364                 4.8914                10.1208

                     37                     38                     39
                      A                      A                      A
 Frequencies --    800.8929               840.9584               850.8356
 Red. masses --      1.2937                 1.2950                 2.1668
 Frc consts  --      0.4889                 0.5396                 0.9242
 IR Inten    --      0.2814                 5.0957                 2.1705

                     40                     41                     42
                      A                      A                      A
 Frequencies --    873.0523               888.2210               936.9557
 Red. masses --      1.8369                 2.6449                 6.0616
 Frc consts  --      0.8249                 1.2294                 3.1353
 IR Inten    --     14.0985                 8.8674                 3.0481

                     43                     44                     45
                      A                      A                      A
 Frequencies --    957.9906               961.8163               975.4323
 Red. masses --      1.4365                 3.8442                 2.6470
 Frc consts  --      0.7768                 2.0953                 1.4839
 IR Inten    --      3.5592                 9.9738                 5.9494

                     46                     47                     48
                      A                      A                      A
 Frequencies --   1016.1323              1035.0161              1072.7395
 Red. masses --      3.5217                 3.1015                 1.7191
 Frc consts  --      2.1424                 1.9575                 1.1656
 IR Inten    --      0.6403                27.8310                33.9712

                     49                     50                     51
                      A                      A                      A
 Frequencies --   1092.8147              1098.0783              1109.8163
 Red. masses --      1.5161                 1.6880                 2.1549
 Frc consts  --      1.0668                 1.1992                 1.5638
 IR Inten    --     13.0801                 2.8597                52.4182

                     52                     53                     54
                      A                      A                      A
 Frequencies --   1131.8536              1143.1345              1179.3779
 Red. masses --      1.9080                 2.0544                 1.9794
 Frc consts  --      1.4402                 1.5817                 1.6221
 IR Inten    --     26.4795                66.7777                 2.9902

                     55                     56                     57
                      A                      A                      A
 Frequencies --   1210.1428              1213.9329              1272.2223
 Red. masses --      2.0872                 3.1289                 2.0181
 Frc consts  --      1.8009                 2.7167                 1.9245
 IR Inten    --      2.5776                40.7949               178.5202

                     58                     59                     60
                      A                      A                      A
 Frequencies --   1293.1322              1305.8560              1327.0971
 Red. masses --      1.6809                 2.2657                 4.8079
 Frc consts  --      1.6561                 2.2763                 4.9890
 IR Inten    --     73.7138               132.9085                 5.0599

                     61                     62                     63
                      A                      A                      A
 Frequencies --   1340.3817              1346.4167              1356.1906
 Red. masses --      1.1540                 1.7886                 2.0750
 Frc consts  --      1.2215                 1.9104                 2.2486
 IR Inten    --     23.9594                 6.0486                 5.5625

                     64                     65                     66
                      A                      A                      A
 Frequencies --   1370.7834              1392.8035              1418.0531
 Red. masses --      2.1659                 2.5735                 1.3320
 Frc consts  --      2.3979                 2.9414                 1.5781
 IR Inten    --     21.7353                 7.3067                 4.5043

                     67                     68                     69
                      A                      A                      A
 Frequencies --   1434.0517              1445.1215              1461.5210
 Red. masses --      1.2533                 1.3288                 4.3341
 Frc consts  --      1.5185                 1.6350                 5.4545
 IR Inten    --      0.8678                26.1943                68.5378

                     70                     71                     72
                      A                      A                      A
 Frequencies --   1473.7992              1508.5649              1517.5450
 Red. masses --      4.4080                 1.0785                 1.0612
 Frc consts  --      5.6411                 1.4461                 1.4399
 IR Inten    --    167.5933                 4.9647                12.7992

                     73                     74                     75
                      A                      A                      A
 Frequencies --   1520.3177              1527.2908              1529.7413
 Red. masses --      1.0778                 1.2221                 1.8076
 Frc consts  --      1.4677                 1.6796                 2.4923
 IR Inten    --      3.6723                 8.1379                 2.8583

                     76                     77                     78
                      A                      A                      A
 Frequencies --   1537.0572              1538.9139              1553.3610
 Red. masses --      1.0909                 1.3081                 3.3997
 Frc consts  --      1.5186                 1.8253                 4.8331
 IR Inten    --     14.9317                 0.6745               198.7439

                     79                     80                     81
                      A                      A                      A
 Frequencies --   1581.5688              1608.5226              1656.6411
 Red. masses --      5.9640                 8.6328                 2.1182
 Frc consts  --      8.7895                13.1600                 3.4251
 IR Inten    --      9.6962                 6.2329                 8.9252

                     82                     83                     84
                      A                      A                      A
 Frequencies --   1680.1326              1819.5706              3055.0759
 Red. masses --      2.0831                11.9235                 1.0348
 Frc consts  --      3.4646                23.2590                 5.6905
 IR Inten    --    340.3143               161.0913                28.4682

                     85                     86                     87
                      A                      A                      A
 Frequencies --   3063.3485              3065.8664              3099.2895
 Red. masses --      1.0424                 1.0579                 1.0590
 Frc consts  --      5.7632                 5.8585                 5.9934
 IR Inten    --     11.2343                18.7599                26.9514

                     88                     89                     90
                      A                      A                      A
 Frequencies --   3112.0741              3125.1815              3131.0332
 Red. masses --      1.0999                 1.1011                 1.1012
 Frc consts  --      6.2762                 6.3361                 6.3608
 IR Inten    --      1.6276                34.1260                27.8340

                     91                     92                     93
                      A                      A                      A
 Frequencies --   3136.4278              3143.9530              3163.4182
 Red. masses --      1.1034                 1.1045                 1.1084
 Frc consts  --      6.3951                 6.4325                 6.5355
 IR Inten    --     33.8994                 5.4348                21.5603

                     94                     95                     96
                      A                      A                      A
 Frequencies --   3182.6094              3213.6088              3260.2377
 Red. masses --      1.0914                 1.0915                 1.0926
 Frc consts  --      6.5134                 6.6414                 6.8426
 IR Inten    --     14.9984                 5.4064                11.0825

                     97                     98                     99
                      A                      A                      A
 Frequencies --   3296.8055              3578.9162              3692.4823
 Red. masses --      1.1031                 1.0467                 1.1011
 Frc consts  --      7.0641                 7.8989                 8.8456
 IR Inten    --      3.7592                61.4166                26.5254

 - Thermochemistry -
 -------------------
 Temperature   298.150 Kelvin.  Pressure   1.00000 Atm.
 Atom     1 has atomic number  6 and mass  12.00000

 Molecular mass:   260.12733 amu.
 Principal axes and moments of inertia in atomic units:
                           1         2         3
     Eigenvalues --  3929.657885165.684956992.32352
           X            0.99918   0.03891   0.01098
           Y           -0.03890   0.99924  -0.00149
           Z           -0.01103   0.00106   0.99994
 This molecule is an asymmetric top.
 Rotational symmetry number  1.
 Warning -- assumption of classical behavior for rotation
           may cause significant error
 Rotational temperatures (Kelvin)      0.02204     0.01677     0.01239
 Rotational constants (GHZ):           0.45926     0.34937     0.25810
 Zero-point vibrational energy     750339.4 (Joules/Mol)
                                  179.33542 (Kcal/Mol)
 Warning -- explicit consideration of  26 degrees of freedom as
           vibrations may cause significant error
 Vibrational temperatures:     19.75    67.98    73.84    90.39   105.27
          (Kelvin)            126.59   165.47   171.57   212.86   236.34
                              266.32   328.11   334.85   373.08   434.67
                              464.32   496.56   518.73   548.78   564.54
                              613.12   654.47   658.60   691.48   741.55
                              793.76   905.43   923.74   964.37   994.42
                             1018.09  1028.58  1070.38  1092.04  1137.08
                             1141.77  1152.31  1209.95  1224.16  1256.13
                             1277.95  1348.07  1378.33  1383.84  1403.43
                             1461.99  1489.16  1543.43  1572.32  1579.89
                             1596.78  1628.48  1644.72  1696.86  1741.13
                             1746.58  1830.44  1860.53  1878.84  1909.40
                             1928.51  1937.19  1951.26  1972.25  2003.93
                             2040.26  2063.28  2079.21  2102.80  2120.47
                             2170.49  2183.41  2187.40  2197.43  2200.96
                             2211.48  2214.15  2234.94  2275.52  2314.31
                             2383.54  2417.34  2617.96  4395.57  4407.48
                             4411.10  4459.19  4477.58  4496.44  4504.86
                             4512.62  4523.45  4551.45  4579.07  4623.67
                             4690.75  4743.37  5149.26  5312.66

 Zero-point correction=                           0.285789 (Hartree/Particle)
 Thermal correction to Energy=                    0.303952
 Thermal correction to Enthalpy=                  0.304896
 Thermal correction to Gibbs Free Energy=         0.237933
 Sum of electronic and zero-point Energies=           -874.272369
 Sum of electronic and thermal Energies=              -874.254207
 Sum of electronic and thermal Enthalpies=            -874.253262
 Sum of electronic and thermal Free Energies=         -874.320225

                     E (Thermal)             CV                S
                      KCal/Mol        Cal/Mol-Kelvin    Cal/Mol-Kelvin
 Total                  190.732             67.830            140.935
 Electronic               0.000              0.000              0.000
 Translational            0.889              2.981             42.568
 Rotational               0.889              2.981             33.317
 Vibrational            188.955             61.868             65.050
 Vibration     1          0.593              1.986              7.382
 Vibration     2          0.595              1.979              4.929
 Vibration     3          0.596              1.977              4.766
 Vibration     4          0.597              1.972              4.366
 Vibration     5          0.599              1.967              4.066
 Vibration     6          0.601              1.958              3.704
 Vibration     7          0.608              1.937              3.183
 Vibration     8          0.609              1.933              3.113
 Vibration     9          0.617              1.905              2.699
 Vibration    10          0.623              1.886              2.500
 Vibration    11          0.631              1.860              2.276
 Vibration    12          0.651              1.798              1.894
 Vibration    13          0.653              1.791              1.858
 Vibration    14          0.668              1.747              1.666
 Vibration    15          0.694              1.670              1.405
 Vibration    16          0.708              1.630              1.296
 Vibration    17          0.723              1.585              1.188
 Vibration    18          0.735              1.554              1.120
 Vibration    19          0.751              1.510              1.034
 Vibration    20          0.760              1.486              0.991
 Vibration    21          0.788              1.413              0.871
 Vibration    22          0.813              1.350              0.781
 Vibration    23          0.816              1.344              0.773
 Vibration    24          0.837              1.293              0.708
 Vibration    25          0.870              1.216              0.621
 Vibration    26          0.907              1.136              0.541

                           ! Non-Optimized Parameters !
 Normal termination of Gaussian 16 at Mon Dec 14 17:13:42 2020.

 ----------------------------------------------------------------------
 # B3LYP/6-311++G(d,p) empiricaldispersion=gd3bj scf=xqc pop=npa geom=c
 heck
 ----------------------------------------------------------------------

 ---------------------------------------
 CID_114195577_JID_9314_Energie_neutraal
 ---------------------------------------
 Structure from the checkpoint file:  "JID_9314.chk"
 Charge =  0 Multiplicity = 1

 SCF Done:  E(RB3LYP) =  -874.801563409     A.U. after   17 cycles
 Normal termination of Gaussian 16 at Mon Dec 14 17:23:16 2020.

 ----------------------------------------------------------------------
 # B3LYP/6-311++G(d,p) empiricaldispersion=gd3bj scf=xqc pop=npa geom=c
 heck
 ----------------------------------------------------------------------

 -------------------------------------
 CID_114195577_JID_9314_Energie_kation
 -------------------------------------
 Structure from the checkpoint file:  "JID_9314.chk"
 Charge =  1 Multiplicity = 2

 SCF Done:  E(UB3LYP) =  -874.515513089     A.U. after   25 cycles
 Normal termination of Gaussian 16 at Mon Dec 14 17:43:32 2020.
 Gaussian 16:  ES64L-G16RevA.03 25-Dec-2016

 ----------------------------------------------------------------------
 # B3LYP/6-311++G(d,p) empiricaldispersion=gd3bj scf=xqc pop=npa geom=c
 heck
 ----------------------------------------------------------------------

 ------------------------------------
 CID_114195577_JID_9314_Energie_anion
 ------------------------------------
 Structure from the checkpoint file:  "JID_9314.chk"
 Charge = -1 Multiplicity = 2

                         Standard orientation:
 ---------------------------------------------------------------------
 Center     Atomic      Atomic             Coordinates (Angstroms)
 Number     Number       Type             X           Y           Z
 ---------------------------------------------------------------------
      1          6           0        0.657547   -1.637643    2.721920
      2          6           0        1.442587   -0.739210    1.751176
      3          6           0        1.582860   -1.335446    0.385003
      4          7           0        2.668031   -1.908867   -0.094882
      5          6           0        2.331446   -2.376505   -1.349009
      6          6           0        1.024227   -2.090234   -1.635911
      7          7           0        0.537614   -1.428196   -0.517989
      8          6           0       -0.748721   -0.847064   -0.379799
      9          6           0       -1.871611   -1.641222   -0.162636
     10          7           0       -3.103905   -1.161463    0.016405
     11          6           0       -3.264551    0.171634    0.030919
     12          6           0       -2.190521    1.066177   -0.158930
     13          6           0       -0.926881    0.547395   -0.394697
     14          6           0        0.229984    1.444537   -0.711960
     15          8           0        0.974958    1.277558   -1.651379
     16          8           0        0.324196    2.454010    0.176959
     17          6           0        1.459833    3.342705   -0.001162
     18          6           0        2.719892    2.733269    0.591412
     19          7           0       -4.536582    0.629826    0.292264
     20          1           0       -0.372430   -1.784964    2.380341
     21          1           0        0.620390   -1.188529    3.720454
     22          1           0        1.132476   -2.620613    2.802659
     23          1           0        0.964980    0.246378    1.699827
     24          1           0        2.458893   -0.583493    2.124137
     25          1           0        3.053906   -2.887044   -1.970947
     26          1           0        0.403195   -2.248528   -2.503851
     27          1           0       -1.758865   -2.723268   -0.135788
     28          1           0       -2.346805    2.139315   -0.131548
     29          1           0        1.577986    3.547438   -1.067547
     30          1           0        1.165166    4.257176    0.517639
     31          1           0        2.982416    1.807678    0.072224
     32          1           0        3.554216    3.435880    0.488124
     33          1           0        2.581818    2.515854    1.655176
     34          1           0       -5.261747   -0.068183    0.192217
     35          1           0       -4.781478    1.552902   -0.036294
 ---------------------------------------------------------------------

 SCF Done:  E(UB3LYP) =  -874.812191622     A.U. after   27 cycles

 The electronic state is 2-A.
 Alpha  occ. eigenvalues --  -19.03041 -18.95748 -14.24200 -14.20114 -14.16892
 Alpha  occ. eigenvalues --  -14.14706 -10.14147 -10.11405 -10.10321 -10.10233
 Alpha  occ. eigenvalues --  -10.07346 -10.06917 -10.06276 -10.06028 -10.05999
 Alpha  occ. eigenvalues --  -10.05816 -10.05446 -10.03233 -10.02347  -0.96773
 Alpha  occ. eigenvalues --   -0.89249  -0.87682  -0.82934  -0.77205  -0.75042
 Alpha  occ. eigenvalues --   -0.67818  -0.67179  -0.64888  -0.61389  -0.59763
 Alpha  occ. eigenvalues --   -0.55331  -0.52465  -0.51033  -0.50451  -0.47380
 Alpha  occ. eigenvalues --   -0.44538  -0.43064  -0.40994  -0.40668  -0.40329
 Alpha  occ. eigenvalues --   -0.36590  -0.34668  -0.34468  -0.33724  -0.33029
 Alpha  occ. eigenvalues --   -0.32793  -0.31590  -0.30874  -0.30465  -0.29699
 Alpha  occ. eigenvalues --   -0.29357  -0.28516  -0.28133  -0.26824  -0.26253
 Alpha  occ. eigenvalues --   -0.25706  -0.24765  -0.24328  -0.23718  -0.22237
 Alpha  occ. eigenvalues --   -0.19742  -0.17746  -0.16078  -0.15559  -0.15027
 Alpha  occ. eigenvalues --   -0.13696  -0.11953  -0.10469  -0.08993   0.04506
 Alpha virt. eigenvalues --    0.07246   0.07907   0.08582   0.09389   0.09717
 Alpha virt. eigenvalues --    0.10538   0.10904   0.11467   0.11790   0.11972
 Alpha virt. eigenvalues --    0.12527   0.12831   0.13594   0.13953   0.14266

  Beta  occ. eigenvalues --  -19.02971 -18.95484 -14.24201 -14.20109 -14.16894
  Beta  occ. eigenvalues --  -14.14266 -10.13946 -10.11401 -10.10346 -10.10230
  Beta  occ. eigenvalues --  -10.07347 -10.06941 -10.06273 -10.06018 -10.05902
  Beta  occ. eigenvalues --  -10.05800 -10.05440 -10.02846 -10.02129  -0.96499
  Beta  occ. eigenvalues --   -0.89231  -0.87280  -0.82634  -0.77081  -0.74798
  Beta  occ. eigenvalues --   -0.67706  -0.66801  -0.64599  -0.61216  -0.59591
  Beta  occ. eigenvalues --   -0.55003  -0.52434  -0.50784  -0.50035  -0.47348
  Beta  occ. eigenvalues --   -0.44344  -0.42914  -0.40837  -0.40546  -0.40266
  Beta  occ. eigenvalues --   -0.36470  -0.34478  -0.34264  -0.33585  -0.32876
  Beta  occ. eigenvalues --   -0.32435  -0.31519  -0.30759  -0.30365  -0.29550
  Beta  occ. eigenvalues --   -0.29307  -0.28383  -0.27346  -0.26291  -0.26013
  Beta  occ. eigenvalues --   -0.25590  -0.24730  -0.24068  -0.23606  -0.22090
  Beta  occ. eigenvalues --   -0.19241  -0.16975  -0.15659  -0.15457  -0.14119
  Beta  occ. eigenvalues --   -0.12246  -0.11480  -0.10370  -0.08111
  Beta virt. eigenvalues --    0.07234   0.07862   0.08518   0.09349   0.09683
  Beta virt. eigenvalues --    0.10459   0.10765   0.10938   0.11568   0.11718
  Beta virt. eigenvalues --    0.12068   0.12507   0.12923   0.13593   0.13951

 Mulliken charges and spin densities:
               1          2
     1  C   -0.607330  -0.024778
     2  C   -0.474652   0.066287
     3  C    0.027285  -0.089180
     4  N   -0.040439   0.001069
     5  C   -0.107173   0.010999
     6  C    0.095319  -0.003195
     7  N    0.384962   0.014466
     8  C   -0.781180  -0.013924
     9  C   -0.195521   0.084776
    10  N   -0.189093   0.206943
    11  C   -0.411468  -0.038997
    12  C   -0.368287   0.240502
    13  C    1.406243   0.247502
    14  C   -1.229119   0.096216
    15  O   -0.181508   0.083651
    16  O    0.093371   0.006473
    17  C    0.007899  -0.079225
    18  C   -0.341953  -0.176209
    19  N   -0.296941   0.000660
    20  H    0.213900  -0.012701
    21  H    0.096097   0.026938
    22  H    0.131870   0.005758
    23  H    0.155741  -0.010452
    24  H    0.160159   0.010458
    25  H    0.131082   0.002993
    26  H    0.138777   0.001156
    27  H    0.151400  -0.004210
    28  H    0.150173  -0.009067
    29  H    0.157551  -0.001946
    30  H    0.004656   0.139491
    31  H    0.184385   0.022753
    32  H   -0.058331   0.176327
    33  H    0.136258   0.011669
    34  H    0.236248   0.006710
    35  H    0.219620   0.000087
 Sum of Mulliken charges =  -1.00000   1.00000

 Dipole moment (field-independent basis, Debye):
    X=             -0.8608    Y=              1.6957    Z=              0.8970  Tot=              2.1026
 Quadrupole moment (field-independent basis, Debye-Ang):
   XX=           -148.7875   YY=           -134.7302   ZZ=           -127.5732
   XY=             -4.0072   XZ=              5.6042   YZ=              2.2793

 Summary of Natural Population Analysis:

                                       Natural Population
                Natural  -----------------------------------------------
    Atom  No    Charge         Core      Valence    Rydberg      Total
 -----------------------------------------------------------------------
      C    1   -0.28083      0.99966     2.27753    0.00363     3.28083
      C    2   -0.21554      0.99960     2.20820    0.00775     3.21554
      C    3    0.19798      0.99960     1.78029    0.02213     2.80202
      N    4   -0.26666      0.99969     2.75791    0.00906     3.76666
      C    5   -0.04270      0.99959     2.02981    0.01331     3.04270
      C    6   -0.02373      0.99956     2.01457    0.00960     3.02373
      N    7   -0.20487      0.99960     2.69316    0.01211     3.70487
      C    8    0.03178      0.99941     1.95569    0.01312     2.96822
      C    9    0.04457      0.99955     1.94333    0.01255     2.95543
      N   10   -0.21645      0.99966     2.69998    0.01680     3.71645
      C   11    0.19052      0.99957     1.79612    0.01380     2.80948
      C   12   -0.09277      0.99949     2.08682    0.00646     3.09277
      C   13    0.01928      0.99942     1.96938    0.01193     2.98072
      C   14    0.42303      0.99964     1.54990    0.02742     2.57697
      O   15   -0.28754      0.99987     3.28247    0.00520     4.28754
      O   16   -0.28143      0.99986     3.27325    0.00831     4.28143
      C   17   -0.02030      0.99959     2.00787    0.01284     3.02030
      C   18   -0.30057      0.99966     2.29641    0.00450     3.30057
      N   19   -0.40418      0.99970     2.89481    0.00966     3.90418
      H   20    0.10580      0.00000     0.39299    0.00121     0.39420
      H   21    0.09177      0.00000     0.40711    0.00112     0.40823
      H   22    0.09485      0.00000     0.40430    0.00085     0.40515
      H   23    0.11164      0.00000     0.38634    0.00202     0.38836
      H   24    0.10488      0.00000     0.39360    0.00151     0.39512
      H   25    0.08980      0.00000     0.40923    0.00097     0.41020
      H   26    0.10264      0.00000     0.39648    0.00089     0.39736
      H   27    0.08359      0.00000     0.41495    0.00145     0.41641
      H   28    0.09505      0.00000     0.40365    0.00130     0.40495
      H   29    0.09345      0.00000     0.40527    0.00127     0.40655
      H   30    0.08404      0.00000     0.41483    0.00113     0.41596
      H   31    0.11307      0.00000     0.38529    0.00164     0.38693
      H   32    0.09500      0.00000     0.40396    0.00103     0.40500
      H   33    0.09688      0.00000     0.40185    0.00126     0.40312
      H   34    0.18709      0.00000     0.31113    0.00177     0.31291
      H   35    0.18084      0.00000     0.31793    0.00123     0.31916
 =======================================================================
   * Total *    0.00000     18.99271    49.76644    0.24085    69.00000

 Normal termination of Gaussian 16 at Mon Dec 14 18:04:41 2020.
