 Gaussian 16, Revision A.03,

 -----------------------------------------------------------
 # opt freq B3LYP/6-31G(d) empiricaldispersion=gd3bj scf=xqc
 -----------------------------------------------------------

 -------------------------------
 CID_130911369_JID_2067_neutraal
 -------------------------------
 Symbolic Z-matrix:
 Charge =  0 Multiplicity = 1

 SCF Done:  E(RB3LYP) =  -872.749866683     A.U. after   15 cycles
 SCF Done:  E(RB3LYP) =  -872.755846409     A.U. after   12 cycles
 SCF Done:  E(RB3LYP) =  -872.757004229     A.U. after   11 cycles
 SCF Done:  E(RB3LYP) =  -872.757404656     A.U. after   12 cycles
 SCF Done:  E(RB3LYP) =  -872.757567847     A.U. after   11 cycles
 SCF Done:  E(RB3LYP) =  -872.757622357     A.U. after   10 cycles
 SCF Done:  E(RB3LYP) =  -872.757637718     A.U. after    9 cycles
 SCF Done:  E(RB3LYP) =  -872.757640086     A.U. after    8 cycles
 SCF Done:  E(RB3LYP) =  -872.757641183     A.U. after    8 cycles
 SCF Done:  E(RB3LYP) =  -872.757642244     A.U. after    8 cycles
 SCF Done:  E(RB3LYP) =  -872.757643733     A.U. after    9 cycles
 SCF Done:  E(RB3LYP) =  -872.757645744     A.U. after   10 cycles
 SCF Done:  E(RB3LYP) =  -872.757646952     A.U. after    9 cycles
 SCF Done:  E(RB3LYP) =  -872.757648124     A.U. after    9 cycles
 SCF Done:  E(RB3LYP) =  -872.757648376     A.U. after    7 cycles
 Optimization completed.
    -- Stationary point found.
 Normal termination of Gaussian 16 at Wed Dec  9 16:46:43 2020.

 --------------------------------------------------------------------
 #N Geom=AllCheck Guess=TCheck SCRF=Check GenChk RB3LYP/6-31G(d) Freq
 --------------------------------------------------------------------

 Structure from the checkpoint file:  "JID_2067.chk"
 -------------------------------
 CID_130911369_JID_2067_neutraal
 -------------------------------
 Charge =  0 Multiplicity = 1

 SCF Done:  E(RB3LYP) =  -872.757648376     A.U. after    1 cycles

  Exact polarizability: 179.724  -0.038 134.912  -1.104   1.122  48.472
 Approx polarizability: 301.966   3.225 237.596  -2.340   2.770  76.743

                      1                      2                      3
                      A                      A                      A
 Frequencies --     86.5327               128.6497               139.8785
 Red. masses --      1.2955                 3.7718                 3.7807
 Frc consts  --      0.0057                 0.0368                 0.0436
 IR Inten    --      9.5173                 2.4083                 2.0510

                      4                      5                      6
                      A                      A                      A
 Frequencies --    177.6796               251.1564               291.7427
 Red. masses --      2.7112                 6.0410                 1.2586
 Frc consts  --      0.0504                 0.2245                 0.0631
 IR Inten    --      5.8076                 0.2168                33.5054

                      7                      8                      9
                      A                      A                      A
 Frequencies --    315.4948               322.6450               326.1771
 Red. masses --      3.5078                 3.8133                 4.1538
 Frc consts  --      0.2057                 0.2339                 0.2604
 IR Inten    --      2.3735                 0.9119                 1.8180

                     10                     11                     12
                      A                      A                      A
 Frequencies --    349.0328               411.0601               456.9074
 Red. masses --      4.6397                 8.5422                 6.4143
 Frc consts  --      0.3330                 0.8504                 0.7890
 IR Inten    --      2.7440                 0.9171                 2.2744

                     13                     14                     15
                      A                      A                      A
 Frequencies --    478.9939               520.3363               554.1600
 Red. masses --      4.5195                 1.0412                 3.7407
 Frc consts  --      0.6109                 0.1661                 0.6768
 IR Inten    --      1.2013                 9.1173                11.1851

                     16                     17                     18
                      A                      A                      A
 Frequencies --    574.6914               622.0801               641.0764
 Red. masses --      6.3989                 4.1097                 2.3911
 Frc consts  --      1.2452                 0.9370                 0.5790
 IR Inten    --      2.6920                14.1625                25.4238

                     19                     20                     21
                      A                      A                      A
 Frequencies --    652.6938               695.9831               715.2524
 Red. masses --      5.9336                 2.7851                 6.9771
 Frc consts  --      1.4893                 0.7949                 2.1030
 IR Inten    --     13.8989                71.7836                 8.5848

                     22                     23                     24
                      A                      A                      A
 Frequencies --    738.4517               792.2198               802.4410
 Red. masses --      2.0900                 1.4643                 1.4202
 Frc consts  --      0.6715                 0.5415                 0.5388
 IR Inten    --     18.3629               115.7172               145.6885

                     25                     26                     27
                      A                      A                      A
 Frequencies --    832.4239               837.7364               878.6358
 Red. masses --      4.4323                 1.5039                 3.0236
 Frc consts  --      1.8095                 0.6219                 1.3753
 IR Inten    --     28.2579               145.5830               213.3662

                     28                     29                     30
                      A                      A                      A
 Frequencies --    889.9953               903.6474              1046.6613
 Red. masses --      1.3188                 1.4213                 2.7579
 Frc consts  --      0.6155                 0.6838                 1.7801
 IR Inten    --      5.0364               311.0928                 4.2544

                     31                     32                     33
                      A                      A                      A
 Frequencies --   1057.2647              1125.6705              1153.1011
 Red. masses --      3.1193                 1.2018                 1.3377
 Frc consts  --      2.0544                 0.8972                 1.0480
 IR Inten    --      4.1188                 7.1930                 1.4269

                     34                     35                     36
                      A                      A                      A
 Frequencies --   1181.4511              1210.8663              1273.8318
 Red. masses --      1.7242                 1.5629                 1.8361
 Frc consts  --      1.4179                 1.3501                 1.7553
 IR Inten    --      1.2314                23.9528                22.8655

                     37                     38                     39
                      A                      A                      A
 Frequencies --   1295.2580              1339.8150              1394.0263
 Red. masses --      2.5397                 1.7691                 5.6674
 Frc consts  --      2.5104                 1.8711                 6.4890
 IR Inten    --      1.3954                29.6832                21.9631

                     40                     41                     42
                      A                      A                      A
 Frequencies --   1424.0145              1474.6236              1530.1976
 Red. masses --      4.6154                 5.2633                 4.6619
 Frc consts  --      5.5143                 6.7433                 6.4314
 IR Inten    --     29.0920                43.5120                93.0689

                     43                     44                     45
                      A                      A                      A
 Frequencies --   1576.5066              1624.1453              1649.7763
 Red. masses --      5.6365                 2.9675                 2.9757
 Frc consts  --      8.2537                 4.6120                 4.7719
 IR Inten    --     16.2401                29.2445                43.4722

                     46                     47                     48
                      A                      A                      A
 Frequencies --   1683.9929              1689.8757              1700.8566
 Red. masses --      1.1339                 1.3326                 1.5398
 Frc consts  --      1.8945                 2.2422                 2.6245
 IR Inten    --     76.1139                49.6352                18.7420

                     49                     50                     51
                      A                      A                      A
 Frequencies --   3180.0341              3215.0024              3269.1706
 Red. masses --      1.0902                 1.0907                 1.0969
 Frc consts  --      6.4954                 6.6420                 6.9073
 IR Inten    --     16.9430                10.4717                 1.6264

                     52                     53                     54
                      A                      A                      A
 Frequencies --   3472.8055              3488.6775              3490.2785
 Red. masses --      1.0479                 1.0519                 1.0515
 Frc consts  --      7.4464                 7.5432                 7.5469
 IR Inten    --      6.1098                 2.3785                 3.4426

                     55                     56                     57
                      A                      A                      A
 Frequencies --   3572.7237              3593.7044              3599.1343
 Red. masses --      1.0959                 1.0919                 1.0925
 Frc consts  --      8.2420                 8.3081                 8.3382
 IR Inten    --     21.8326                 6.0425                 5.1146

 - Thermochemistry -
 -------------------
 Temperature   298.150 Kelvin.  Pressure   1.00000 Atm.
 Atom     1 has atomic number  6 and mass  12.00000

 Molecular mass:   179.05172 amu.
 Principal axes and moments of inertia in atomic units:
                           1         2         3
     Eigenvalues --  1199.300222639.349413825.47103
           X            0.99992  -0.01280  -0.00101
           Y            0.01280   0.99992  -0.00083
           Z            0.00102   0.00082   1.00000
 This molecule is an asymmetric top.
 Rotational symmetry number  1.
 Warning -- assumption of classical behavior for rotation
           may cause significant error
 Rotational temperatures (Kelvin)      0.07222     0.03282     0.02264
 Rotational constants (GHZ):           1.50483     0.68378     0.47177
 Zero-point vibrational energy     434850.0 (Joules/Mol)
                                  103.93164 (Kcal/Mol)
 Warning -- explicit consideration of  16 degrees of freedom as
           vibrations may cause significant error
 Vibrational temperatures:    124.50   185.10   201.25   255.64   361.36
          (Kelvin)            419.75   453.93   464.21   469.30   502.18
                              591.42   657.39   689.17   748.65   797.31
                              826.85   895.03   922.37   939.08  1001.36
                             1029.09  1062.47  1139.83  1154.53  1197.67
                             1205.32  1264.16  1280.50  1300.15  1505.91
                             1521.17  1619.59  1659.06  1699.84  1742.17
                             1832.76  1863.59  1927.70  2005.69  2048.84
                             2121.65  2201.61  2268.24  2336.78  2373.66
                             2422.89  2431.35  2447.15  4575.36  4625.67
                             4703.61  4996.59  5019.43  5021.73  5140.35
                             5170.54  5178.35

 Zero-point correction=                           0.165626 (Hartree/Particle)
 Thermal correction to Energy=                    0.176399
 Thermal correction to Enthalpy=                  0.177343
 Thermal correction to Gibbs Free Energy=         0.129704
 Sum of electronic and zero-point Energies=           -872.592023
 Sum of electronic and thermal Energies=              -872.581249
 Sum of electronic and thermal Enthalpies=            -872.580305
 Sum of electronic and thermal Free Energies=         -872.627945

                     E (Thermal)             CV                S
                      KCal/Mol        Cal/Mol-Kelvin    Cal/Mol-Kelvin
 Total                  110.692             42.968            100.266
 Electronic               0.000              0.000              0.000
 Translational            0.889              2.981             41.454
 Rotational               0.889              2.981             30.872
 Vibrational            108.915             37.006             27.940
 Vibration     1          0.601              1.959              3.737
 Vibration     2          0.611              1.925              2.966
 Vibration     3          0.615              1.913              2.806
 Vibration     4          0.628              1.870              2.353
 Vibration     5          0.663              1.761              1.722
 Vibration     6          0.687              1.689              1.464
 Vibration     7          0.703              1.644              1.333
 Vibration     8          0.708              1.630              1.297
 Vibration     9          0.710              1.623              1.279
 Vibration    10          0.726              1.577              1.171
 Vibration    11          0.775              1.446              0.923
 Vibration    12          0.815              1.346              0.775
 Vibration    13          0.835              1.297              0.713
 Vibration    14          0.875              1.205              0.609
 Vibration    15          0.910              1.131              0.536
 Vibration    16          0.931              1.086              0.495

 Optimization completed.
    -- Stationary point found.
 Normal termination of Gaussian 16 at Wed Dec  9 16:51:02 2020.

 ----------------------------------------------------------------------
 # B3LYP/6-311++G(d,p) empiricaldispersion=gd3bj scf=xqc pop=npa geom=c
 heck
 ----------------------------------------------------------------------

 ---------------------------------------
 CID_130911369_JID_2067_Energie_neutraal
 ---------------------------------------
 Structure from the checkpoint file:  "JID_2067.chk"
 Charge =  0 Multiplicity = 1

 SCF Done:  E(RB3LYP) =  -872.929277267     A.U. after   16 cycles
 Normal termination of Gaussian 16 at Wed Dec  9 16:52:39 2020.

 ----------------------------------------------------------------------
 # B3LYP/6-311++G(d,p) empiricaldispersion=gd3bj scf=xqc pop=npa geom=c
 heck
 ----------------------------------------------------------------------

 -------------------------------------
 CID_130911369_JID_2067_Energie_kation
 -------------------------------------
 Structure from the checkpoint file:  "JID_2067.chk"
 Charge =  1 Multiplicity = 2

 SCF Done:  E(UB3LYP) =  -872.671926403     A.U. after   28 cycles
 Normal termination of Gaussian 16 at Wed Dec  9 16:56:29 2020.
 Gaussian 16:  ES64L-G16RevA.03 25-Dec-2016

 ----------------------------------------------------------------------
 # B3LYP/6-311++G(d,p) empiricaldispersion=gd3bj scf=xqc pop=npa geom=c
 heck
 ----------------------------------------------------------------------

 ------------------------------------
 CID_130911369_JID_2067_Energie_anion
 ------------------------------------
 Structure from the checkpoint file:  "JID_2067.chk"
 Charge = -1 Multiplicity = 2

                         Standard orientation:
 ---------------------------------------------------------------------
 Center     Atomic      Atomic             Coordinates (Angstroms)
 Number     Number       Type             X           Y           Z
 ---------------------------------------------------------------------
      1          6           0        1.993000   -1.719142   -0.042205
      2          6           0        2.999851   -0.808975   -0.019928
      3         16           0        2.421459    0.848292    0.028056
      4          6           0        0.751732    0.288602    0.002179
      5          6           0       -0.399210    1.085115    0.010085
      6          6           0       -1.644209    0.446488   -0.009763
      7          6           0       -1.730759   -0.968212    0.022110
      8          6           0       -0.578890   -1.744291    0.002881
      9          6           0        0.681276   -1.123287   -0.029032
     10          7           0       -3.033128   -1.521846   -0.004844
     11          7           0       -2.826888    1.206942   -0.030914
     12          7           0       -0.380582    2.504047   -0.028630
     13          1           0        2.159548   -2.790945   -0.068163
     14          1           0        4.065452   -0.993404   -0.028579
     15          1           0       -0.653901   -2.828847    0.020365
     16          1           0       -3.021994   -2.533536    0.072369
     17          1           0       -3.623711   -1.138035    0.730047
     18          1           0       -2.649099    2.127272   -0.428051
     19          1           0       -3.553619    0.730242   -0.560781
     20          1           0        0.552399    2.877707   -0.170398
     21          1           0       -0.770989    2.915084    0.817050
 ---------------------------------------------------------------------

 SCF Done:  E(UB3LYP) =  -872.916028967     A.U. after   33 cycles
 SCF Done:  E(UB3LYP) =  -872.916028966     a.u. after    1 cycles

 The electronic state is 2-A.
 Alpha  occ. eigenvalues --  -88.77008 -14.21051 -14.20452 -14.20389 -10.10337
 Alpha  occ. eigenvalues --  -10.10110 -10.09975 -10.09694 -10.09352 -10.07980
 Alpha  occ. eigenvalues --  -10.07523 -10.06019  -7.85611  -5.81929  -5.81570
 Alpha  occ. eigenvalues --   -5.81139  -0.83729  -0.80326  -0.78100  -0.76797
 Alpha  occ. eigenvalues --   -0.69634  -0.64820  -0.60275  -0.59449  -0.51342
 Alpha  occ. eigenvalues --   -0.48511  -0.46381  -0.43704  -0.40088  -0.38909
 Alpha  occ. eigenvalues --   -0.37996  -0.37379  -0.36317  -0.34247  -0.31165
 Alpha  occ. eigenvalues --   -0.30676  -0.30125  -0.28595  -0.26694  -0.25289
 Alpha  occ. eigenvalues --   -0.23777  -0.21967  -0.19416  -0.17520  -0.15422
 Alpha  occ. eigenvalues --   -0.09719  -0.08649   0.04615
 Alpha virt. eigenvalues --    0.06659   0.07097   0.07770   0.08286   0.09306
 Alpha virt. eigenvalues --    0.10545   0.10749   0.11073   0.12045   0.12350
 Alpha virt. eigenvalues --    0.13054   0.13238   0.13780   0.14570   0.14892

  Beta  occ. eigenvalues --  -88.77003 -14.20980 -14.20398 -14.20319 -10.10334
  Beta  occ. eigenvalues --  -10.10096 -10.09973 -10.09688 -10.09351 -10.07976
  Beta  occ. eigenvalues --  -10.07521 -10.06004  -7.85604  -5.81924  -5.81566
  Beta  occ. eigenvalues --   -5.81134  -0.83672  -0.80237  -0.78054  -0.76720
  Beta  occ. eigenvalues --   -0.69583  -0.64787  -0.60226  -0.59401  -0.51288
  Beta  occ. eigenvalues --   -0.48467  -0.46343  -0.43663  -0.40008  -0.38834
  Beta  occ. eigenvalues --   -0.37930  -0.37324  -0.36245  -0.34188  -0.31135
  Beta  occ. eigenvalues --   -0.30652  -0.30085  -0.28566  -0.26664  -0.25252
  Beta  occ. eigenvalues --   -0.23744  -0.21922  -0.19362  -0.17484  -0.15392
  Beta  occ. eigenvalues --   -0.09687  -0.08598
  Beta virt. eigenvalues --    0.06919   0.07465   0.07783   0.08197   0.08927
  Beta virt. eigenvalues --    0.10013   0.10750   0.11366   0.11713   0.12267
  Beta virt. eigenvalues --    0.12650   0.13165   0.13536   0.13843   0.14717

 Mulliken charges and spin densities:
               1          2
     1  C    1.719215  -1.240802
     2  C   -0.082886  -0.045686
     3  S   -0.545259  -0.157410
     4  C    2.601378  -1.617644
     5  C   -1.477426   0.721847
     6  C    0.193970  -0.474750
     7  C    0.066618  -0.740518
     8  C   -2.587424   2.027699
     9  C    1.908001  -1.162454
    10  N   -0.382743   0.010396
    11  N   -0.260238  -0.149827
    12  N   -0.303237  -0.052810
    13  H   -0.035788   0.171452
    14  H    0.186203   0.028128
    15  H   -0.819907   0.956496
    16  H   -0.355316   0.617675
    17  H   -0.206867   0.456382
    18  H   -0.039638   0.311493
    19  H   -0.052798   0.302876
    20  H   -0.188823   0.431164
    21  H   -0.337035   0.606294
 Sum of Mulliken charges =  -1.00000   1.00000

 Dipole moment (field-independent basis, Debye):
    X=              7.5947    Y=             -0.1212    Z=             -1.0107  Tot=              7.6627
 Quadrupole moment (field-independent basis, Debye-Ang):
   XX=           -129.3046   YY=           -132.5753   ZZ=           -102.1358
   XY=             -9.5498   XZ=              2.2190   YZ=             -1.0213

 Summary of Natural Population Analysis:

                                       Natural Population
                Natural  -----------------------------------------------
    Atom  No    Charge         Core      Valence    Rydberg      Total
 -----------------------------------------------------------------------
      C    1   -0.11447      0.99949     2.10559    0.00939     3.11447
      C    2   -0.19179      0.99953     2.18103    0.01123     3.19179
      S    3    0.16886      4.99947     2.81038    0.02128     7.83114
      C    4   -0.10360      0.99937     2.09236    0.01187     3.10360
      C    5    0.05323      0.99937     1.93460    0.01280     2.94677
      C    6    0.06687      0.99942     1.92056    0.01315     2.93313
      C    7    0.07286      0.99946     1.91587    0.01180     2.92714
      C    8   -0.11805      0.99949     2.10885    0.00972     3.11805
      C    9   -0.05237      0.99948     2.04165    0.01124     3.05237
      N   10   -0.40774      0.99973     2.89657    0.01144     3.90774
      N   11   -0.40283      0.99972     2.89229    0.01082     3.90283
      N   12   -0.41225      0.99973     2.90075    0.01176     3.91225
      H   13    0.10561      0.00000     0.39344    0.00095     0.39439
      H   14    0.10499      0.00000     0.39434    0.00067     0.39501
      H   15    0.10090      0.00000     0.39735    0.00175     0.39910
      H   16    0.18760      0.00000     0.30516    0.00723     0.31240
      H   17    0.18760      0.00000     0.30798    0.00442     0.31240
      H   18    0.19083      0.00000     0.30619    0.00297     0.30917
      H   19    0.18901      0.00000     0.30820    0.00279     0.31099
      H   20    0.18557      0.00000     0.31179    0.00264     0.31443
      H   21    0.18916      0.00000     0.30574    0.00510     0.31084
 =======================================================================
   * Total *    0.00000     15.99425    30.83071    0.17503    47.00000

 Normal termination of Gaussian 16 at Wed Dec  9 17:01:03 2020.
