 Gaussian 16, Revision A.03,

 -----------------------------------------------------------
 # opt freq B3LYP/6-31G(d) empiricaldispersion=gd3bj scf=xqc
 -----------------------------------------------------------

 -------------------------------
 CID_143076295_JID_1312_neutraal
 -------------------------------
 Symbolic Z-matrix:
 Charge =  0 Multiplicity = 1

 SCF Done:  E(RB3LYP) =  -507.905353913     A.U. after   32 cycles
 SCF Done:  E(RB3LYP) =  -508.030139472     A.U. after   23 cycles
 SCF Done:  E(RB3LYP) =  -508.236182748     A.U. after   26 cycles
 SCF Done:  E(RB3LYP) =  -508.450743188     A.U. after   21 cycles
 SCF Done:  E(RB3LYP) =  -508.533517908     A.U. after   20 cycles
 SCF Done:  E(RB3LYP) =  -508.647212446     A.U. after   19 cycles
 SCF Done:  E(RB3LYP) =  -508.748398455     A.U. after   17 cycles
 SCF Done:  E(RB3LYP) =  -508.788047451     A.U. after   16 cycles
 SCF Done:  E(RB3LYP) =  -508.826897298     A.U. after   17 cycles
 SCF Done:  E(RB3LYP) =  -508.863674821     A.U. after   15 cycles
 SCF Done:  E(RB3LYP) =  -508.991138105     A.U. after    9 cycles
 SCF Done:  E(RB3LYP) =  -508.991137616     A.U. after   10 cycles
 SCF Done:  E(RB3LYP) =  -508.991138724     A.U. after    9 cycles
 SCF Done:  E(RB3LYP) =  -508.991139134     A.U. after    8 cycles
 SCF Done:  E(RB3LYP) =  -508.991139327     A.U. after    8 cycles
 SCF Done:  E(RB3LYP) =  -508.991139359     A.U. after    7 cycles
 Optimization completed.
    -- Stationary point found.

 1\1\GINC-NODE202\FOpt\RB3LYP\6-31G(d)\C6H11N5\VSC10255\08-Dec-2020\0\\
 # opt freq B3LYP/6-31G(d) empiricaldispersion=gd3bj scf=xqc\\CID_14307
 6295_JID_1312_neutraal\\0,1\C,1.0389016068,-0.2169596701,-0.3639550848
 \C,0.0126823912,0.7352954404,-0.9121834627\C,-1.1382674826,0.868180751
 3,0.0689011504\N,-1.5120609503,0.0013814192,0.9220752326\C,-0.74654554
 84,-1.2443695883,1.0192721226\C,0.6895815191,-1.1209034549,0.550147128
 8\C,-1.4735819811,-2.2948540361,0.1246363598\N,-2.5854714113,-2.140110
 6702,-0.4873198032\N,-0.8465697887,-3.5358880653,0.1204833655\N,-0.765

 Normal termination of Gaussian 16 at Tue Dec  8 20:14:08 2020.

 --------------------------------------------------------------------
 #N Geom=AllCheck Guess=TCheck SCRF=Check GenChk RB3LYP/6-31G(d) Freq
 --------------------------------------------------------------------

 Structure from the checkpoint file:  "JID_1312.chk"
 -------------------------------
 CID_143076295_JID_1312_neutraal
 -------------------------------
 Charge =  0 Multiplicity = 1

 SCF Done:  E(RB3LYP) =  -508.991139359     A.U. after    1 cycles

  Exact polarizability: 109.193  -5.325  76.978  -5.345   5.893  84.472
 Approx polarizability: 167.934 -15.195 119.501  -6.803  12.504 130.900

                      1                      2                      3
                      A                      A                      A
 Frequencies --     62.0409                66.4171               168.9111
 Red. masses --      4.3446                 5.0120                 3.6987
 Frc consts  --      0.0099                 0.0130                 0.0622
 IR Inten    --      3.7047                 0.2903                 0.7262

                      4                      5                      6
                      A                      A                      A
 Frequencies --    190.4749               235.3027               263.5703
 Red. masses --      4.1199                 1.6324                 1.7182
 Frc consts  --      0.0881                 0.0533                 0.0703
 IR Inten    --      2.4389                27.2512                20.3333

                      7                      8                      9
                      A                      A                      A
 Frequencies --    295.0213               347.8046               363.8810
 Red. masses --      3.5833                 1.1666                 2.3797
 Frc consts  --      0.1838                 0.0831                 0.1856
 IR Inten    --      1.7042                42.0586                23.2568

                     10                     11                     12
                      A                      A                      A
 Frequencies --    382.4650               424.2072               461.9609
 Red. masses --      3.5681                 1.2331                 3.6180
 Frc consts  --      0.3075                 0.1307                 0.4549
 IR Inten    --      4.7307                46.4780                 2.7614

                     13                     14                     15
                      A                      A                      A
 Frequencies --    493.8969               505.1516               553.8872
 Red. masses --      3.2327                 3.2291                 4.3327
 Frc consts  --      0.4646                 0.4855                 0.7832
 IR Inten    --      3.6807                 7.2799                 3.3496

                     16                     17                     18
                      A                      A                      A
 Frequencies --    601.5749               645.2096               649.2564
 Red. masses --      4.8872                 3.0559                 1.9155
 Frc consts  --      1.0421                 0.7495                 0.4757
 IR Inten    --     12.2484                44.2051               162.6286

                     19                     20                     21
                      A                      A                      A
 Frequencies --    719.5159               751.6121               793.1299
 Red. masses --      4.9029                 1.6160                 2.8410
 Frc consts  --      1.4955                 0.5379                 1.0530
 IR Inten    --      8.7919                35.9930                77.6133

                     22                     23                     24
                      A                      A                      A
 Frequencies --    836.3392               897.2108               912.7353
 Red. masses --      3.0823                 1.3891                 1.5967
 Frc consts  --      1.2702                 0.6588                 0.7837
 IR Inten    --     29.7984               129.9978                51.8443

                     25                     26                     27
                      A                      A                      A
 Frequencies --    921.1871               927.3466               965.1645
 Red. masses --      2.2586                 1.4554                 2.0015
 Frc consts  --      1.1292                 0.7374                 1.0985
 IR Inten    --      1.9956                35.0997                69.9622

                     28                     29                     30
                      A                      A                      A
 Frequencies --    989.9295               992.0546              1036.7704
 Red. masses --      2.0445                 1.4333                 2.5810
 Frc consts  --      1.1804                 0.8311                 1.6346
 IR Inten    --     51.7912                31.6772                36.2444

                     31                     32                     33
                      A                      A                      A
 Frequencies --   1084.0537              1120.4846              1125.2907
 Red. masses --      2.4857                 1.8033                 1.9108
 Frc consts  --      1.7211                 1.3339                 1.4256
 IR Inten    --     46.3220                17.9535                26.8711

                     34                     35                     36
                      A                      A                      A
 Frequencies --   1173.3003              1193.4722              1212.8937
 Red. masses --      1.6118                 1.3857                 1.7520
 Frc consts  --      1.3073                 1.1629                 1.5185
 IR Inten    --     15.1571                87.3664                12.7853

                     37                     38                     39
                      A                      A                      A
 Frequencies --   1218.5657              1343.6825              1370.4832
 Red. masses --      1.3088                 1.4718                 1.5249
 Frc consts  --      1.1451                 1.5656                 1.6875
 IR Inten    --      6.3700                 6.1280                 0.4662

                     40                     41                     42
                      A                      A                      A
 Frequencies --   1392.9306              1401.6410              1422.3889
 Red. masses --      1.2958                 1.6004                 2.0952
 Frc consts  --      1.4814                 1.8525                 2.4975
 IR Inten    --      4.6070                 9.1142                83.4646

                     43                     44                     45
                      A                      A                      A
 Frequencies --   1449.9281              1651.3802              1679.2293
 Red. masses --      1.5887                 1.3086                 1.0923
 Frc consts  --      1.9679                 2.1026                 1.8147
 IR Inten    --     17.2902                55.3943                40.7474

                     46                     47                     48
                      A                      A                      A
 Frequencies --   1699.3947              1717.3899              1729.6118
 Red. masses --      1.0957                 6.8994                 4.7414
 Frc consts  --      1.8644                11.9895                 8.3570
 IR Inten    --     18.8071                27.5678               152.2665

                     49                     50                     51
                      A                      A                      A
 Frequencies --   1755.7223              3052.5287              3098.9084
 Red. masses --      8.3573                 1.0843                 1.0892
 Frc consts  --     15.1785                 5.9530                 6.1629
 IR Inten    --     37.3584                28.5127                53.7127

                     52                     53                     54
                      A                      A                      A
 Frequencies --   3172.6974              3204.8111              3445.5752
 Red. masses --      1.0873                 1.0971                 1.0493
 Frc consts  --      6.4482                 6.6391                 7.3396
 IR Inten    --      7.9795                14.8965                 5.8118

                     55                     56                     57
                      A                      A                      A
 Frequencies --   3463.8162              3473.1658              3534.9270
 Red. masses --      1.0494                 1.0730                 1.0496
 Frc consts  --      7.4185                 7.6264                 7.7274
 IR Inten    --      0.3744                 3.7750                13.1673

                     58                     59                     60
                      A                      A                      A
 Frequencies --   3536.1449              3554.5818              3639.0814
 Red. masses --      1.0906                 1.0920                 1.0980
 Frc consts  --      8.0351                 8.1293                 8.5672
 IR Inten    --      1.7623                 2.9152                16.5826

 - Thermochemistry -
 -------------------
 Temperature   298.150 Kelvin.  Pressure   1.00000 Atm.
 Atom     1 has atomic number  6 and mass  12.00000

 Molecular mass:   153.10145 amu.
 Principal axes and moments of inertia in atomic units:
                           1         2         3
     Eigenvalues --  1095.432051792.023271956.72117
           X            0.99967  -0.01796  -0.01826
           Y            0.01858   0.99925   0.03411
           Z            0.01764  -0.03444   0.99925
 This molecule is an asymmetric top.
 Rotational symmetry number  1.
 Warning -- assumption of classical behavior for rotation
           may cause significant error
 Rotational temperatures (Kelvin)      0.07907     0.04833     0.04426
 Rotational constants (GHZ):           1.64752     1.00710     0.92233
 Zero-point vibrational energy     486713.3 (Joules/Mol)
                                  116.32727 (Kcal/Mol)
 Warning -- explicit consideration of  16 degrees of freedom as
           vibrations may cause significant error
 Vibrational temperatures:     89.26    95.56   243.03   274.05   338.55
          (Kelvin)            379.22   424.47   500.41   523.54   550.28
                              610.34   664.66   710.61   726.80   796.92
                              865.53   928.31   934.14  1035.22  1081.40
                             1141.14  1203.31  1290.89  1313.22  1325.38
                             1334.24  1388.66  1424.29  1427.35  1491.68
                             1559.71  1612.13  1619.04  1688.12  1717.14
                             1745.08  1753.24  1933.26  1971.82  2004.12
                             2016.65  2046.50  2086.12  2375.97  2416.04
                             2445.05  2470.94  2488.53  2526.09  4391.91
                             4458.64  4564.80  4611.01  4957.41  4983.66
                             4997.11  5085.97  5087.72  5114.25  5235.83

 Zero-point correction=                           0.185379 (Hartree/Particle)
 Thermal correction to Energy=                    0.195955
 Thermal correction to Enthalpy=                  0.196899
 Thermal correction to Gibbs Free Energy=         0.149727
 Sum of electronic and zero-point Energies=           -508.805760
 Sum of electronic and thermal Energies=              -508.795184
 Sum of electronic and thermal Enthalpies=            -508.794240
 Sum of electronic and thermal Free Energies=         -508.841412

                     E (Thermal)             CV                S
                      KCal/Mol        Cal/Mol-Kelvin    Cal/Mol-Kelvin
 Total                  122.964             41.496             99.283
 Electronic               0.000              0.000              0.000
 Translational            0.889              2.981             40.988
 Rotational               0.889              2.981             29.731
 Vibrational            121.186             35.535             28.564
 Vibration     1          0.597              1.972              4.391
 Vibration     2          0.598              1.970              4.257
 Vibration     3          0.625              1.881              2.448
 Vibration     4          0.634              1.853              2.223
 Vibration     5          0.655              1.787              1.838
 Vibration     6          0.670              1.740              1.638
 Vibration     7          0.689              1.683              1.445
 Vibration     8          0.725              1.580              1.176
 Vibration     9          0.737              1.547              1.105
 Vibration    10          0.752              1.508              1.029
 Vibration    11          0.786              1.418              0.878
 Vibration    12          0.820              1.334              0.760
 Vibration    13          0.850              1.264              0.674
 Vibration    14          0.860              1.239              0.645
 Vibration    15          0.909              1.131              0.536
 Vibration    16          0.960              1.028              0.447

 Optimization completed.
    -- Stationary point found.

 1\1\GINC-NODE202\Freq\RB3LYP\6-31G(d)\C6H11N5\VSC10255\08-Dec-2020\0\\
 #N Geom=AllCheck Guess=TCheck SCRF=Check GenChk RB3LYP/6-31G(d) Freq\\
 CID_143076295_JID_1312_neutraal\\0,1\C,1.0389016068,-0.2169596701,-0.3
 639550848\C,0.0126823912,0.7352954404,-0.9121834627\C,-1.1382674826,0.
 8681807513,0.0689011504\N,-1.5120609503,0.0013814192,0.9220752326\C,-0
 .7465455484,-1.2443695883,1.0192721226\C,0.6895815191,-1.1209034549,0.
 5501471288\C,-1.4735819811,-2.2948540361,0.1246363598\N,-2.5854714113,
 -2.1401106702,-0.4873198032\N,-0.8465697887,-3.5358880653,0.1204833655

 Normal termination of Gaussian 16 at Tue Dec  8 20:18:46 2020.

 ----------------------------------------------------------------------
 # B3LYP/6-311++G(d,p) empiricaldispersion=gd3bj scf=xqc pop=npa geom=c
 heck
 ----------------------------------------------------------------------

 ---------------------------------------
 CID_143076295_JID_1312_Energie_neutraal
 ---------------------------------------
 Structure from the checkpoint file:  "JID_1312.chk"
 Charge =  0 Multiplicity = 1

 SCF Done:  E(RB3LYP) =  -509.159060523     A.U. after   15 cycles
 Normal termination of Gaussian 16 at Tue Dec  8 20:20:34 2020.

 ----------------------------------------------------------------------
 # B3LYP/6-311++G(d,p) empiricaldispersion=gd3bj scf=xqc pop=npa geom=c
 heck
 ----------------------------------------------------------------------

 -------------------------------------
 CID_143076295_JID_1312_Energie_kation
 -------------------------------------
 Structure from the checkpoint file:  "JID_1312.chk"
 Charge =  1 Multiplicity = 2

 SCF Done:  E(UB3LYP) =  -508.845454515     A.U. after   25 cycles
 Normal termination of Gaussian 16 at Tue Dec  8 20:25:30 2020.
 Gaussian 16:  ES64L-G16RevA.03 25-Dec-2016

 ------------------------------------
 CID_143076295_JID_1312_Energie_anion
 ------------------------------------
 Structure from the checkpoint file:  "JID_1312.chk"
 Charge = -1 Multiplicity = 2

                         Standard orientation:
 ---------------------------------------------------------------------
 Center     Atomic      Atomic             Coordinates (Angstroms)
 Number     Number       Type             X           Y           Z
 ---------------------------------------------------------------------
      1          6           0        1.291328    0.757791    1.279489
      2          6           0        2.100011    0.170594    0.156234
      3          6           0        1.414676    0.451033   -1.169112
      4          7           0        0.170355    0.641303   -1.354673
      5          6           0       -0.709557    0.636802   -0.182883
      6          6           0       -0.008888    0.995129    1.112666
      7          6           0       -1.286262   -0.806541   -0.053866
      8          7           0       -1.118557   -1.773564   -0.873302
      9          7           0       -2.144183   -0.956845    1.029974
     10          7           0       -1.768320    1.618956   -0.452710
     11          7           0        2.295341   -1.282387    0.365312
     12          1           0        1.802605    0.984018    2.210736
     13          1           0        3.100734    0.620354    0.143407
     14          1           0        2.047864    0.420858   -2.062351
     15          1           0       -0.612266    1.457457    1.890906
     16          1           0       -0.572057   -1.448032   -1.673318
     17          1           0       -1.820230   -0.553008    1.901229
     18          1           0       -2.453888   -1.917385    1.136095
     19          1           0       -2.051093    1.493553   -1.424115
     20          1           0       -2.579759    1.389411    0.120877
     21          1           0        1.393074   -1.750548    0.269497
     22          1           0        2.894717   -1.657767   -0.370333
 ---------------------------------------------------------------------

 SCF Done:  E(UB3LYP) =  -509.152252745     A.U. after   32 cycles

 The electronic state is 2-A.
 Alpha  occ. eigenvalues --  -14.21039 -14.18551 -14.18223 -14.17827 -14.16392
 Alpha  occ. eigenvalues --  -10.12987 -10.12753 -10.09341 -10.08633 -10.06077
 Alpha  occ. eigenvalues --  -10.05886  -0.85380  -0.81594  -0.77592  -0.75204
 Alpha  occ. eigenvalues --   -0.73594  -0.67120  -0.60314  -0.53142  -0.50090
 Alpha  occ. eigenvalues --   -0.47105  -0.43106  -0.40542  -0.38972  -0.37487
 Alpha  occ. eigenvalues --   -0.35767  -0.35208  -0.34212  -0.32340  -0.30968
 Alpha  occ. eigenvalues --   -0.29074  -0.28492  -0.24652  -0.23809  -0.20082
 Alpha  occ. eigenvalues --   -0.18592  -0.16264  -0.15347  -0.14371  -0.12697
 Alpha  occ. eigenvalues --   -0.11498   0.04671
 Alpha virt. eigenvalues --    0.07097   0.08209   0.09024   0.09423   0.10324
 Alpha virt. eigenvalues --    0.10574   0.11266   0.11452   0.12327   0.13253
 Alpha virt. eigenvalues --    0.13547   0.14095   0.15230   0.16762   0.17314

  Beta  occ. eigenvalues --  -14.20993 -14.18518 -14.18060 -14.17717 -14.16392
  Beta  occ. eigenvalues --  -10.12999 -10.12692 -10.09349 -10.08490 -10.06061
  Beta  occ. eigenvalues --  -10.05798  -0.85242  -0.81424  -0.77436  -0.75046
  Beta  occ. eigenvalues --   -0.73529  -0.66969  -0.60117  -0.53033  -0.49834
  Beta  occ. eigenvalues --   -0.47008  -0.43028  -0.40430  -0.38846  -0.37376
  Beta  occ. eigenvalues --   -0.35662  -0.35052  -0.34161  -0.32223  -0.30849
  Beta  occ. eigenvalues --   -0.28909  -0.28369  -0.24562  -0.23679  -0.19465
  Beta  occ. eigenvalues --   -0.18418  -0.15980  -0.15117  -0.14307  -0.12628
  Beta  occ. eigenvalues --   -0.11350
  Beta virt. eigenvalues --    0.07414   0.08354   0.08766   0.09459   0.09906
  Beta virt. eigenvalues --    0.10859   0.11264   0.11549   0.12258   0.12625
  Beta virt. eigenvalues --    0.13487   0.14029   0.14311   0.15376   0.16859

 Mulliken charges and spin densities:
               1          2
     1  C    1.037210  -1.540037
     2  C    0.597937  -0.377109
     3  C   -0.253137  -0.114293
     4  N   -0.231024   0.129381
     5  C    0.508846  -0.884469
     6  C   -1.221519   1.141730
     7  C    0.377842  -0.401414
     8  N   -0.393013   0.016355
     9  N   -0.458375   0.133798
    10  N   -0.194753   0.040320
    11  N   -0.015030  -0.298921
    12  H   -0.149953   0.307068
    13  H   -0.181049   0.366289
    14  H   -0.277867   0.450688
    15  H   -0.411922   0.573879
    16  H    0.223416  -0.001739
    17  H   -0.082042   0.331462
    18  H   -0.068892   0.358651
    19  H    0.155224   0.084603
    20  H    0.145215   0.096659
    21  H    0.128684   0.114434
    22  H   -0.235798   0.472665
 Sum of Mulliken charges =  -1.00000   1.00000

 Dipole moment (field-independent basis, Debye):
    X=             -1.7292    Y=              2.3960    Z=             -0.7334  Tot=              3.0445
 Quadrupole moment (field-independent basis, Debye-Ang):
   XX=           -108.2979   YY=           -101.1110   ZZ=            -94.6756
   XY=              5.5064   XZ=              2.2354   YZ=              0.2699

 Summary of Natural Population Analysis:

                                       Natural Population
                Natural  -----------------------------------------------
    Atom  No    Charge         Core      Valence    Rydberg      Total
 -----------------------------------------------------------------------
      C    1   -0.08354      0.99950     2.07285    0.01119     3.08354
      C    2   -0.06577      0.99958     2.05306    0.01314     3.06577
      C    3    0.09695      0.99960     1.88593    0.01752     2.90305
      N    4   -0.23095      0.99968     2.71758    0.01368     3.73095
      C    5    0.09624      0.99949     1.88634    0.01793     2.90376
      C    6   -0.09139      0.99949     2.07868    0.01323     3.09139
      C    7    0.23025      0.99960     1.74932    0.02083     2.76975
      N    8   -0.36822      0.99970     2.85939    0.00912     3.86822
      N    9   -0.41350      0.99970     2.90247    0.01132     3.91350
      N   10   -0.41499      0.99976     2.90414    0.01110     3.91499
      N   11   -0.40708      0.99977     2.89650    0.01080     3.90708
      H   12    0.09986      0.00000     0.39913    0.00101     0.40014
      H   13    0.10016      0.00000     0.39761    0.00223     0.39984
      H   14    0.08242      0.00000     0.41628    0.00130     0.41758
      H   15    0.10013      0.00000     0.39833    0.00154     0.39987
      H   16    0.17568      0.00000     0.32172    0.00260     0.32432
      H   17    0.19015      0.00000     0.30647    0.00338     0.30985
      H   18    0.19069      0.00000     0.30673    0.00258     0.30931
      H   19    0.17910      0.00000     0.31889    0.00201     0.32090
      H   20    0.17694      0.00000     0.32090    0.00216     0.32306
      H   21    0.17927      0.00000     0.31776    0.00298     0.32073
      H   22    0.17761      0.00000     0.31729    0.00510     0.32239
 =======================================================================
   * Total *    0.00000     10.99587    29.82735    0.17678    41.00000

 Normal termination of Gaussian 16 at Tue Dec  8 20:31:43 2020.
