 Gaussian 16, Revision A.03,

 -----------------------------------------------------------
 # opt freq B3LYP/6-31G(d) empiricaldispersion=gd3bj scf=xqc
 -----------------------------------------------------------

 -------------------------------
 CID_101008591_JID_3552_neutraal
 -------------------------------
 Symbolic Z-matrix:
 Charge =  0 Multiplicity = 1

 SCF Done:  E(RB3LYP) =  -616.403015590     A.U. after   14 cycles
 SCF Done:  E(RB3LYP) =  -616.406846097     A.U. after   11 cycles
 SCF Done:  E(RB3LYP) =  -616.406016738     A.U. after   12 cycles
 SCF Done:  E(RB3LYP) =  -616.407457331     A.U. after   11 cycles
 SCF Done:  E(RB3LYP) =  -616.407542879     A.U. after   10 cycles
 SCF Done:  E(RB3LYP) =  -616.407585964     A.U. after   11 cycles
 SCF Done:  E(RB3LYP) =  -616.407600196     A.U. after   11 cycles
 SCF Done:  E(RB3LYP) =  -616.407610052     A.U. after   10 cycles
 SCF Done:  E(RB3LYP) =  -616.407624490     A.U. after   10 cycles
 SCF Done:  E(RB3LYP) =  -616.407640066     A.U. after   10 cycles
 SCF Done:  E(RB3LYP) =  -616.407874860     A.U. after   10 cycles
 SCF Done:  E(RB3LYP) =  -616.407882857     A.U. after   10 cycles
 SCF Done:  E(RB3LYP) =  -616.407882621     A.U. after    9 cycles
 SCF Done:  E(RB3LYP) =  -616.407882960     A.U. after    9 cycles
 SCF Done:  E(RB3LYP) =  -616.407882965     A.U. after    8 cycles
 Optimization completed on the basis of negligible forces.
    -- Stationary point found.
 Normal termination of Gaussian 16 at Wed Dec  9 23:48:23 2020.

 --------------------------------------------------------------------
 #N Geom=AllCheck Guess=TCheck SCRF=Check GenChk RB3LYP/6-31G(d) Freq
 --------------------------------------------------------------------

 Structure from the checkpoint file:  "JID_3552.chk"
 -------------------------------
 CID_101008591_JID_3552_neutraal
 -------------------------------
 Charge =  0 Multiplicity = 1

 SCF Done:  E(RB3LYP) =  -616.407882965     A.U. after    1 cycles

  Exact polarizability: 139.635  -4.736 101.037  -2.402  -4.681  92.336
 Approx polarizability: 169.742  -9.786 144.256  -0.288 -16.103 149.114

                      1                      2                      3
                      A                      A                      A
 Frequencies --     16.6912                28.1525                42.6223
 Red. masses --      6.9038                 6.4942                 3.1144
 Frc consts  --      0.0011                 0.0030                 0.0033
 IR Inten    --      0.6229                 0.6931                 0.4752

                      4                      5                      6
                      A                      A                      A
 Frequencies --     51.3528                97.3385               107.8777
 Red. masses --      2.4325                 3.4704                 3.1032
 Frc consts  --      0.0038                 0.0194                 0.0213
 IR Inten    --      0.5758                 0.5182                 1.1231

                      7                      8                      9
                      A                      A                      A
 Frequencies --    179.6063               214.6456               257.6489
 Red. masses --      2.1482                 2.2515                 2.6606
 Frc consts  --      0.0408                 0.0611                 0.1041
 IR Inten    --      2.2658                 0.9002                 0.6375

                     10                     11                     12
                      A                      A                      A
 Frequencies --    290.8406               311.7678               350.2951
 Red. masses --      3.8263                 4.2970                 1.2967
 Frc consts  --      0.1907                 0.2461                 0.0937
 IR Inten    --      6.3456                 0.3799                74.2550

                     13                     14                     15
                      A                      A                      A
 Frequencies --    379.4589               402.8573               427.7930
 Red. masses --      2.2161                 2.6674                 2.4859
 Frc consts  --      0.1880                 0.2551                 0.2680
 IR Inten    --     61.7309                 5.8349                10.6579

                     16                     17                     18
                      A                      A                      A
 Frequencies --    468.3489               519.6293               562.7787
 Red. masses --      2.8255                 1.7764                 2.8267
 Frc consts  --      0.3652                 0.2826                 0.5275
 IR Inten    --      5.6861                20.5503                11.6316

                     19                     20                     21
                      A                      A                      A
 Frequencies --    589.3579               624.0493               649.3115
 Red. masses --      1.8958                 3.2381                 3.6763
 Frc consts  --      0.3880                 0.7430                 0.9132
 IR Inten    --      3.4638                21.2281                15.2203

                     22                     23                     24
                      A                      A                      A
 Frequencies --    685.0573               765.5727               797.9467
 Red. masses --      1.4465                 1.9985                 1.7440
 Frc consts  --      0.4000                 0.6901                 0.6542
 IR Inten    --    108.7970                 3.8853                 3.0267

                     25                     26                     27
                      A                      A                      A
 Frequencies --    826.8673               865.9772               891.4935
 Red. masses --      2.2443                 2.0179                 2.7951
 Frc consts  --      0.9041                 0.8916                 1.3088
 IR Inten    --      0.7118                 1.7291                 7.3083

                     28                     29                     30
                      A                      A                      A
 Frequencies --    893.5887               908.5394               923.9637
 Red. masses --      2.4710                 2.1839                 1.9671
 Frc consts  --      1.1625                 1.0621                 0.9894
 IR Inten    --     13.5979                 0.2933                 5.1070

                     31                     32                     33
                      A                      A                      A
 Frequencies --    956.6584               972.6504              1010.6485
 Red. masses --      2.3293                 2.0170                 1.3783
 Frc consts  --      1.2560                 1.1243                 0.8295
 IR Inten    --      4.5190                 3.8018                30.7562

                     34                     35                     36
                      A                      A                      A
 Frequencies --   1026.1967              1037.3152              1050.5293
 Red. masses --      1.5176                 2.0401                 1.6488
 Frc consts  --      0.9416                 1.2934                 1.0721
 IR Inten    --     27.8306                 7.2720                 0.6470

                     37                     38                     39
                      A                      A                      A
 Frequencies --   1085.6971              1105.5981              1110.7092
 Red. masses --      1.8307                 2.3508                 2.5471
 Frc consts  --      1.2714                 1.6930                 1.8514
 IR Inten    --      1.3696                15.2248                18.4978

                     40                     41                     42
                      A                      A                      A
 Frequencies --   1135.6146              1163.5960              1193.2015
 Red. masses --      2.0792                 1.9895                 1.3781
 Frc consts  --      1.5798                 1.5871                 1.1560
 IR Inten    --     93.9707               192.7022                51.1783

                     43                     44                     45
                      A                      A                      A
 Frequencies --   1215.3692              1239.7042              1242.0292
 Red. masses --      1.4224                 1.5090                 1.2734
 Frc consts  --      1.2379                 1.3664                 1.1574
 IR Inten    --     44.9319                 5.0658                 5.8076

                     46                     47                     48
                      A                      A                      A
 Frequencies --   1263.0927              1298.4504              1307.3959
 Red. masses --      1.4426                 1.3391                 1.3552
 Frc consts  --      1.3561                 1.3302                 1.3648
 IR Inten    --     10.8835                 1.7792                35.1053

                     49                     50                     51
                      A                      A                      A
 Frequencies --   1316.0789              1328.5378              1343.8159
 Red. masses --      1.3839                 1.3662                 1.3198
 Frc consts  --      1.4123                 1.4207                 1.4043
 IR Inten    --      1.0597                 2.3839                 0.3968

                     52                     53                     54
                      A                      A                      A
 Frequencies --   1346.1020              1367.3548              1371.7720
 Red. masses --      1.3471                 1.3381                 1.4825
 Frc consts  --      1.4381                 1.4740                 1.6437
 IR Inten    --      4.6237                 2.4288                 8.4366

                     55                     56                     57
                      A                      A                      A
 Frequencies --   1387.3908              1412.8052              1425.4167
 Red. masses --      1.7042                 1.7314                 2.0483
 Frc consts  --      1.9327                 2.0362                 2.4520
 IR Inten    --     16.8301                25.0726                51.6447

                     58                     59                     60
                      A                      A                      A
 Frequencies --   1479.7775              1502.0893              1508.1892
 Red. masses --      1.0940                 1.0951                 1.0833
 Frc consts  --      1.4115                 1.4557                 1.4519
 IR Inten    --     16.3585                 1.7772                 1.9652

                     61                     62                     63
                      A                      A                      A
 Frequencies --   1515.1694              1518.7735              1542.2130
 Red. masses --      1.0954                 1.0900                 1.1045
 Frc consts  --      1.4817                 1.4814                 1.5477
 IR Inten    --      2.1902                 2.9244                 1.1964

                     64                     65                     66
                      A                      A                      A
 Frequencies --   1764.2839              1849.1666              2994.8283
 Red. masses --      6.2469                 9.6756                 1.0694
 Frc consts  --     11.4565                19.4931                 5.6513
 IR Inten    --      0.3398               235.1790                43.2401

                     67                     68                     69
                      A                      A                      A
 Frequencies --   3019.5790              3037.3571              3055.6044
 Red. masses --      1.0704                 1.0603                 1.0670
 Frc consts  --      5.7502                 5.7636                 5.8697
 IR Inten    --     20.7998                35.7511                31.6830

                     70                     71                     72
                      A                      A                      A
 Frequencies --   3067.0514              3074.0751              3082.6105
 Red. masses --      1.0738                 1.0857                 1.0946
 Frc consts  --      5.9515                 6.0447                 6.1282
 IR Inten    --     15.6183                22.5509                55.4850

                     73                     74                     75
                      A                      A                      A
 Frequencies --   3086.9796              3098.7212              3101.8252
 Red. masses --      1.0639                 1.0900                 1.0979
 Frc consts  --      5.9736                 6.1667                 6.2236
 IR Inten    --     15.3228                 4.5618                25.3075

                     76                     77                     78
                      A                      A                      A
 Frequencies --   3117.5412              3133.9746              3162.2197
 Red. masses --      1.1067                 1.1042                 1.0908
 Frc consts  --      6.3375                 6.3900                 6.4268
 IR Inten    --     33.0324                30.4838                 8.1756

                     79                     80                     81
                      A                      A                      A
 Frequencies --   3173.9029              3684.2456              3717.6017
 Red. masses --      1.0871                 1.0639                 1.0656
 Frc consts  --      6.4524                 8.5088                 8.6772
 IR Inten    --     17.6949                43.7141                 5.1443

 - Thermochemistry -
 -------------------
 Temperature   298.150 Kelvin.  Pressure   1.00000 Atm.
 Atom     1 has atomic number  6 and mass  12.00000

 Molecular mass:   184.10994 amu.
 Principal axes and moments of inertia in atomic units:
                           1         2         3
     Eigenvalues --  1084.171865720.528086198.36128
           X            0.99993   0.01093  -0.00446
           Y           -0.01084   0.99975   0.01952
           Z            0.00468  -0.01947   0.99980
 This molecule is an asymmetric top.
 Rotational symmetry number  1.
 Warning -- assumption of classical behavior for rotation
           may cause significant error
 Rotational temperatures (Kelvin)      0.07989     0.01514     0.01397
 Rotational constants (GHZ):           1.66463     0.31549     0.29116
 Zero-point vibrational energy     658741.3 (Joules/Mol)
                                  157.44294 (Kcal/Mol)
 Warning -- explicit consideration of  19 degrees of freedom as
           vibrations may cause significant error
 Vibrational temperatures:     24.01    40.51    61.32    73.89   140.05
          (Kelvin)            155.21   258.41   308.83   370.70   418.45
                              448.56   504.00   545.96   579.62   615.50
                              673.85   747.63   809.71   847.95   897.87
                              934.21   985.64  1101.49  1148.07  1189.68
                             1245.95  1282.66  1285.67  1307.19  1329.38
                             1376.42  1399.43  1454.10  1476.47  1492.47
                             1511.48  1562.08  1590.71  1598.06  1633.90
                             1674.16  1716.75  1748.65  1783.66  1787.00
                             1817.31  1868.18  1881.05  1893.54  1911.47
                             1933.45  1936.74  1967.32  1973.67  1996.15
                             2032.71  2050.86  2129.07  2161.17  2169.95
                             2179.99  2185.18  2218.90  2538.41  2660.54
                             4308.89  4344.50  4370.08  4396.33  4412.80
                             4422.91  4435.19  4441.48  4458.37  4462.83
                             4485.45  4509.09  4549.73  4566.54  5300.81
                             5348.80

 Zero-point correction=                           0.250901 (Hartree/Particle)
 Thermal correction to Energy=                    0.264645
 Thermal correction to Enthalpy=                  0.265589
 Thermal correction to Gibbs Free Energy=         0.207528
 Sum of electronic and zero-point Energies=           -616.156982
 Sum of electronic and thermal Energies=              -616.143238
 Sum of electronic and thermal Enthalpies=            -616.142294
 Sum of electronic and thermal Free Energies=         -616.200355

                     E (Thermal)             CV                S
                      KCal/Mol        Cal/Mol-Kelvin    Cal/Mol-Kelvin
 Total                  166.067             50.797            122.200
 Electronic               0.000              0.000              0.000
 Translational            0.889              2.981             41.537
 Rotational               0.889              2.981             32.019
 Vibrational            164.290             44.835             48.643
 Vibration     1          0.593              1.986              6.993
 Vibration     2          0.593              1.984              5.956
 Vibration     3          0.595              1.980              5.133
 Vibration     4          0.596              1.977              4.765
 Vibration     5          0.603              1.951              3.507
 Vibration     6          0.606              1.943              3.307
 Vibration     7          0.629              1.867              2.333
 Vibration     8          0.645              1.819              2.004
 Vibration     9          0.667              1.750              1.678
 Vibration    10          0.687              1.691              1.469
 Vibration    11          0.700              1.651              1.353
 Vibration    12          0.727              1.575              1.165
 Vibration    13          0.749              1.514              1.041
 Vibration    14          0.768              1.464              0.952
 Vibration    15          0.789              1.410              0.866
 Vibration    16          0.826              1.320              0.742
 Vibration    17          0.875              1.207              0.611
 Vibration    18          0.919              1.112              0.518
 Vibration    19          0.947              1.054              0.468

 Optimization completed on the basis of negligible forces.
    -- Stationary point found.
 Normal termination of Gaussian 16 at Wed Dec  9 23:54:58 2020.

 ----------------------------------------------------------------------
 # B3LYP/6-311++G(d,p) empiricaldispersion=gd3bj scf=xqc pop=npa geom=c
 heck
 ----------------------------------------------------------------------

 ---------------------------------------
 CID_101008591_JID_3552_Energie_neutraal
 ---------------------------------------
 Structure from the checkpoint file:  "JID_3552.chk"
 Charge =  0 Multiplicity = 1

 SCF Done:  E(RB3LYP) =  -616.603915251     A.U. after   14 cycles
 Normal termination of Gaussian 16 at Wed Dec  9 23:57:31 2020.

 ----------------------------------------------------------------------
 # B3LYP/6-311++G(d,p) empiricaldispersion=gd3bj scf=xqc pop=npa geom=c
 heck
 ----------------------------------------------------------------------

 -------------------------------------
 CID_101008591_JID_3552_Energie_kation
 -------------------------------------
 Structure from the checkpoint file:  "JID_3552.chk"
 Charge =  1 Multiplicity = 2

 SCF Done:  E(UB3LYP) =  -616.279875301     A.U. after   21 cycles
 Normal termination of Gaussian 16 at Thu Dec 10 00:02:38 2020.
 Gaussian 16:  ES64L-G16RevA.03 25-Dec-2016

 ----------------------------------------------------------------------
 # B3LYP/6-311++G(d,p) empiricaldispersion=gd3bj scf=xqc pop=npa geom=c
 heck
 ----------------------------------------------------------------------

 ------------------------------------
 CID_101008591_JID_3552_Energie_anion
 ------------------------------------
 Structure from the checkpoint file:  "JID_3552.chk"
 Charge = -1 Multiplicity = 2

                         Standard orientation:
 ---------------------------------------------------------------------
 Center     Atomic      Atomic             Coordinates (Angstroms)
 Number     Number       Type             X           Y           Z
 ---------------------------------------------------------------------
      1          6           0        2.772727    1.861122    0.109034
      2          6           0        3.924777    0.839041    0.012231
      3          6           0        3.261825   -0.367004   -0.663863
      4          6           0        1.896147   -0.460526    0.042253
      5          6           0        1.477561    1.013947    0.241823
      6          6           0        0.862115   -1.307519   -0.721238
      7          6           0       -0.480439   -1.316526   -0.051225
      8          6           0       -1.613307   -0.909791   -0.624468
      9          6           0       -2.944818   -0.886564    0.066371
     10          6           0       -3.624866    0.465450   -0.031844
     11          8           0       -3.293505    1.381583   -0.749926
     12          8           0       -4.705451    0.532657    0.786574
     13          8           0        2.076449   -0.993957    1.369421
     14          1           0        2.904957    2.558002    0.942067
     15          1           0        2.733405    2.462855   -0.806761
     16          1           0        4.256394    0.550046    1.014970
     17          1           0        4.792808    1.220510   -0.535092
     18          1           0        3.835013   -1.299485   -0.581700
     19          1           0        3.109717   -0.168311   -1.733471
     20          1           0        0.728493    1.302677   -0.501639
     21          1           0        1.007563    1.113430    1.223355
     22          1           0        0.769432   -0.929862   -1.746792
     23          1           0        1.254795   -2.334934   -0.797294
     24          1           0       -0.486622   -1.644498    0.987827
     25          1           0       -1.605355   -0.551993   -1.652660
     26          1           0       -3.641398   -1.614645   -0.378343
     27          1           0       -2.858175   -1.161834    1.123147
     28          1           0       -5.091405    1.417963    0.647429
     29          1           0        2.480102   -1.871962    1.271970
 ---------------------------------------------------------------------

 SCF Done:  E(UB3LYP) =  -616.590978059     A.U. after   33 cycles
 SCF Done:  E(UB3LYP) =  -616.590978059     a.u. after    1 cycles

 The electronic state is 2-A.
 Alpha  occ. eigenvalues --  -19.07323 -19.02149 -19.01869 -10.21296 -10.12768
 Alpha  occ. eigenvalues --  -10.09628 -10.07596 -10.07349 -10.07310 -10.06991
 Alpha  occ. eigenvalues --  -10.06736 -10.06650 -10.06230  -1.01465  -0.92644
 Alpha  occ. eigenvalues --   -0.92266  -0.73599  -0.71700  -0.67051  -0.61618
 Alpha  occ. eigenvalues --   -0.61374  -0.56261  -0.51008  -0.48612  -0.45872
 Alpha  occ. eigenvalues --   -0.45524  -0.40373  -0.39466  -0.38993  -0.38547
 Alpha  occ. eigenvalues --   -0.38180  -0.37086  -0.34904  -0.33336  -0.33015
 Alpha  occ. eigenvalues --   -0.30825  -0.30165  -0.29184  -0.27056  -0.26836
 Alpha  occ. eigenvalues --   -0.25402  -0.24940  -0.24475  -0.24221  -0.23268
 Alpha  occ. eigenvalues --   -0.22644  -0.21414  -0.19165  -0.18046  -0.15437
 Alpha  occ. eigenvalues --    0.04290
 Alpha virt. eigenvalues --    0.05587   0.07082   0.07661   0.08264   0.08731
 Alpha virt. eigenvalues --    0.09209   0.09938   0.10215   0.10300   0.10468
 Alpha virt. eigenvalues --    0.11098   0.11772   0.12560   0.13269   0.13927

  Beta  occ. eigenvalues --  -19.07268 -19.02135 -19.01833 -10.21288 -10.12768
  Beta  occ. eigenvalues --  -10.09603 -10.07588 -10.07341 -10.07290 -10.06984
  Beta  occ. eigenvalues --  -10.06724 -10.06619 -10.06217  -1.01393  -0.92584
  Beta  occ. eigenvalues --   -0.92191  -0.73567  -0.71671  -0.67006  -0.61579
  Beta  occ. eigenvalues --   -0.61330  -0.56204  -0.50916  -0.48554  -0.45819
  Beta  occ. eigenvalues --   -0.45480  -0.40328  -0.39424  -0.38953  -0.38505
  Beta  occ. eigenvalues --   -0.38142  -0.37044  -0.34867  -0.33290  -0.32984
  Beta  occ. eigenvalues --   -0.30787  -0.30132  -0.29141  -0.27022  -0.26807
  Beta  occ. eigenvalues --   -0.25361  -0.24912  -0.24448  -0.24191  -0.23221
  Beta  occ. eigenvalues --   -0.22620  -0.21374  -0.19120  -0.18011  -0.15408
  Beta virt. eigenvalues --    0.06540   0.07009   0.07895   0.08191   0.08613
  Beta virt. eigenvalues --    0.08976   0.09334   0.10077   0.10344   0.10622
  Beta virt. eigenvalues --    0.10808   0.11469   0.11871   0.12715   0.13316

 Mulliken charges and spin densities:
               1          2
     1  C    0.138188  -0.723076
     2  C   -0.140085  -0.018592
     3  C    0.650417  -1.065130
     4  C   -0.748368   1.031786
     5  C   -0.207082  -0.188295
     6  C    1.279455  -2.325934
     7  C   -0.318744   1.031483
     8  C   -0.133625  -0.035157
     9  C    0.377923  -0.804417
    10  C   -0.034606  -0.025680
    11  O   -0.279748  -0.001545
    12  O   -0.186842   0.033732
    13  O   -0.144778  -0.007550
    14  H    0.063113   0.069883
    15  H    0.055807   0.072500
    16  H    0.145074  -0.010333
    17  H   -0.166104   0.333867
    18  H   -0.563824   0.738790
    19  H    0.050609   0.080096
    20  H    0.099419   0.065009
    21  H    0.109109   0.080395
    22  H   -0.003719   0.153312
    23  H   -0.334261   0.510448
    24  H    0.005852   0.164052
    25  H    0.047502   0.136519
    26  H   -0.170386   0.351685
    27  H    0.013367   0.190483
    28  H   -0.525375   0.822583
    29  H   -0.078287   0.339087
 Sum of Mulliken charges =  -1.00000   1.00000

 Dipole moment (field-independent basis, Debye):
    X=              2.3697    Y=              0.9439    Z=             -0.7073  Tot=              2.6470
 Quadrupole moment (field-independent basis, Debye-Ang):
   XX=           -179.6257   YY=           -119.5506   ZZ=           -106.3428
   XY=             21.4047   XZ=              5.0928   YZ=             -0.0842

 Summary of Natural Population Analysis:

                                       Natural Population
                Natural  -----------------------------------------------
    Atom  No    Charge         Core      Valence    Rydberg      Total
 -----------------------------------------------------------------------
      C    1   -0.19061      0.99965     2.18412    0.00685     3.19061
      C    2   -0.19313      0.99964     2.18500    0.00849     3.19313
      C    3   -0.20022      0.99958     2.19081    0.00983     3.20022
      C    4    0.13646      0.99952     1.84815    0.01588     2.86354
      C    5   -0.19875      0.99958     2.19144    0.00773     3.19875
      C    6   -0.21340      0.99955     2.20245    0.01140     3.21340
      C    7   -0.08134      0.99950     2.07132    0.01052     3.08134
      C    8   -0.09214      0.99950     2.08335    0.00929     3.09214
      C    9   -0.25320      0.99956     2.24438    0.00927     3.25320
      C   10    0.41005      0.99973     1.56518    0.02504     2.58995
      O   11   -0.30524      0.99987     3.29907    0.00630     4.30524
      O   12   -0.34606      0.99988     3.33943    0.00675     4.34606
      O   13   -0.38228      0.99989     3.37565    0.00674     4.38228
      H   14    0.09719      0.00000     0.40186    0.00095     0.40281
      H   15    0.09318      0.00000     0.40563    0.00119     0.40682
      H   16    0.09984      0.00000     0.39883    0.00133     0.40016
      H   17    0.09705      0.00000     0.40206    0.00089     0.40295
      H   18    0.10413      0.00000     0.39348    0.00238     0.39587
      H   19    0.09769      0.00000     0.40099    0.00132     0.40231
      H   20    0.10431      0.00000     0.39462    0.00107     0.39569
      H   21    0.10898      0.00000     0.38983    0.00119     0.39102
      H   22    0.10187      0.00000     0.39680    0.00133     0.39813
      H   23    0.10493      0.00000     0.39320    0.00187     0.39507
      H   24    0.09748      0.00000     0.40116    0.00136     0.40252
      H   25    0.09713      0.00000     0.40167    0.00120     0.40287
      H   26    0.11674      0.00000     0.38205    0.00120     0.38326
      H   27    0.11496      0.00000     0.38384    0.00120     0.38504
      H   28    0.24451      0.00000     0.23323    0.02226     0.25549
      H   29    0.22985      0.00000     0.26516    0.00499     0.27015
 =======================================================================
   * Total *   -0.00000     12.99544    36.82474    0.17982    50.00000

 Normal termination of Gaussian 16 at Thu Dec 10 00:10:28 2020.
