 Gaussian 16, Revision A.03,

 -----------------------------------------------------------
 # opt freq B3LYP/6-31G(d) empiricaldispersion=gd3bj scf=xqc
 -----------------------------------------------------------

 ------------------------------
 CID_61293551_JID_8371_neutraal
 ------------------------------
 Symbolic Z-matrix:
 Charge =  0 Multiplicity = 1

 SCF Done:  E(RB3LYP) =  -915.731819332     A.U. after   15 cycles
 SCF Done:  E(RB3LYP) =  -915.737407542     A.U. after   12 cycles
 SCF Done:  E(RB3LYP) =  -915.738032849     A.U. after   12 cycles
 SCF Done:  E(RB3LYP) =  -915.739260992     A.U. after   12 cycles
 SCF Done:  E(RB3LYP) =  -915.739395139     A.U. after   11 cycles
 SCF Done:  E(RB3LYP) =  -915.739927760     A.U. after   12 cycles
 SCF Done:  E(RB3LYP) =  -915.740129067     A.U. after   11 cycles
 SCF Done:  E(RB3LYP) =  -915.740125715     A.U. after   13 cycles
 SCF Done:  E(RB3LYP) =  -915.740289822     A.U. after   11 cycles
 SCF Done:  E(RB3LYP) =  -915.740365156     A.U. after   11 cycles
 SCF Done:  E(RB3LYP) =  -915.741368716     A.U. after   11 cycles
 SCF Done:  E(RB3LYP) =  -915.741379445     A.U. after   11 cycles
 SCF Done:  E(RB3LYP) =  -915.741380064     A.U. after    9 cycles
 SCF Done:  E(RB3LYP) =  -915.741383380     A.U. after    9 cycles
 SCF Done:  E(RB3LYP) =  -915.741383441     A.U. after    9 cycles
 Optimization completed.
    -- Stationary point found.
 Normal termination of Gaussian 16 at Fri Dec 11 20:58:42 2020.

 --------------------------------------------------------------------
 #N Geom=AllCheck Guess=TCheck SCRF=Check GenChk RB3LYP/6-31G(d) Freq
 --------------------------------------------------------------------

 Structure from the checkpoint file:  "JID_8371.chk"
 ------------------------------
 CID_61293551_JID_8371_neutraal
 ------------------------------
 Charge =  0 Multiplicity = 1

 SCF Done:  E(RB3LYP) =  -915.741383441     A.U. after    1 cycles

  Exact polarizability: 166.026  -5.660 125.609   5.998  -1.946 119.531
 Approx polarizability: 195.881 -15.280 197.889   9.851  -3.092 190.731

                      1                      2                      3
                      A                      A                      A
 Frequencies --     13.8728                24.0346                25.8130
 Red. masses --      6.3486                 6.0260                11.7382
 Frc consts  --      0.0007                 0.0021                 0.0046
 IR Inten    --      0.0561                 0.0217                 1.2234

                      4                      5                      6
                      A                      A                      A
 Frequencies --     38.5756                54.6291                61.3101
 Red. masses --      5.5799                 5.4243                 6.2132
 Frc consts  --      0.0049                 0.0095                 0.0138
 IR Inten    --      2.0197                 2.7770                 1.3495

                      7                      8                      9
                      A                      A                      A
 Frequencies --    111.9067               119.2210               134.2428
 Red. masses --      3.8787                 4.4021                 1.6046
 Frc consts  --      0.0286                 0.0369                 0.0170
 IR Inten    --      1.8996                 0.1026                 1.1147

                     10                     11                     12
                      A                      A                      A
 Frequencies --    143.3904               175.7969               192.7694
 Red. masses --      2.0032                 3.1922                 3.2709
 Frc consts  --      0.0243                 0.0581                 0.0716
 IR Inten    --      1.0847                 1.0727                 0.4803

                     13                     14                     15
                      A                      A                      A
 Frequencies --    205.1629               244.4834               288.7584
 Red. masses --      3.1094                 2.9661                 4.0706
 Frc consts  --      0.0771                 0.1045                 0.2000
 IR Inten    --     14.1682                 1.6573                 6.9324

                     16                     17                     18
                      A                      A                      A
 Frequencies --    311.2265               337.9605               349.8504
 Red. masses --      3.3378                 3.3267                 2.4628
 Frc consts  --      0.1905                 0.2239                 0.1776
 IR Inten    --      2.0636                 4.4833                 3.7175

                     19                     20                     21
                      A                      A                      A
 Frequencies --    375.7852               406.7976               459.9710
 Red. masses --      3.3346                 2.1227                 2.9637
 Frc consts  --      0.2774                 0.2070                 0.3694
 IR Inten    --      5.8369                 2.0332                 0.7921

                     22                     23                     24
                      A                      A                      A
 Frequencies --    502.6447               529.9510               552.6956
 Red. masses --      4.2104                 2.6842                 3.9037
 Frc consts  --      0.6268                 0.4442                 0.7026
 IR Inten    --     22.9766                 0.4652                 7.7346

                     25                     26                     27
                      A                      A                      A
 Frequencies --    566.0945               595.5381               602.9799
 Red. masses --      3.0987                 3.6581                 3.5189
 Frc consts  --      0.5851                 0.7644                 0.7538
 IR Inten    --     27.6374                26.5024                16.7893

                     28                     29                     30
                      A                      A                      A
 Frequencies --    617.8723               627.0390               651.2667
 Red. masses --      1.2922                 2.7444                 2.9611
 Frc consts  --      0.2906                 0.6357                 0.7400
 IR Inten    --     67.1718                 3.6120                28.6801

                     31                     32                     33
                      A                      A                      A
 Frequencies --    725.8476               768.9500               785.5536
 Red. masses --      4.0313                 4.7213                 3.1506
 Frc consts  --      1.2514                 1.6448                 1.1455
 IR Inten    --      1.1326                45.0245                11.9298

                     34                     35                     36
                      A                      A                      A
 Frequencies --    827.4887               830.7114               834.2922
 Red. masses --      1.6271                 2.1362                 3.1536
 Frc consts  --      0.6564                 0.8686                 1.2933
 IR Inten    --      3.4076                19.5230                67.2450

                     37                     38                     39
                      A                      A                      A
 Frequencies --    859.4873               886.5298               923.4981
 Red. masses --      2.8581                 2.3537                 3.0549
 Frc consts  --      1.2440                 1.0899                 1.5350
 IR Inten    --     17.7436                24.4029                 6.4479

                     40                     41                     42
                      A                      A                      A
 Frequencies --    950.8063               966.5576               978.4055
 Red. masses --      2.0735                 2.0316                 2.3882
 Frc consts  --      1.1044                 1.1182                 1.3470
 IR Inten    --      6.0668                12.8100                29.3930

                     43                     44                     45
                      A                      A                      A
 Frequencies --   1000.6668              1029.8304              1050.4667
 Red. masses --      1.6266                 2.3723                 2.7011
 Frc consts  --      0.9596                 1.4824                 1.7561
 IR Inten    --      7.4347                45.4079                13.0831

                     46                     47                     48
                      A                      A                      A
 Frequencies --   1054.9212              1091.2650              1105.1715
 Red. masses --      3.6662                 2.3931                 2.9742
 Frc consts  --      2.4038                 1.6791                 2.1403
 IR Inten    --     44.7463                36.3736                 4.0788

                     49                     50                     51
                      A                      A                      A
 Frequencies --   1140.6217              1158.7758              1187.2940
 Red. masses --      2.7469                 2.6593                 1.2771
 Frc consts  --      2.1056                 2.1038                 1.0607
 IR Inten    --     78.4182                93.8005                 0.4444

                     52                     53                     54
                      A                      A                      A
 Frequencies --   1195.1642              1202.2924              1219.7363
 Red. masses --      1.5054                 2.0110                 1.4714
 Frc consts  --      1.2669                 1.7127                 1.2898
 IR Inten    --      8.3886                24.9367                 2.3007

                     55                     56                     57
                      A                      A                      A
 Frequencies --   1221.7182              1228.6907              1271.5674
 Red. masses --      2.1622                 1.6050                 1.4311
 Frc consts  --      1.9014                 1.4276                 1.3633
 IR Inten    --     56.3980                80.8690               112.1484

                     58                     59                     60
                      A                      A                      A
 Frequencies --   1276.4412              1302.0593              1308.8147
 Red. masses --      3.0730                 1.3112                 1.5563
 Frc consts  --      2.9500                 1.3098                 1.5707
 IR Inten    --    320.8977                25.4341                28.7583

                     61                     62                     63
                      A                      A                      A
 Frequencies --   1314.3722              1350.0545              1354.6890
 Red. masses --      1.3675                 1.4246                 1.3030
 Frc consts  --      1.3919                 1.5298                 1.4089
 IR Inten    --     14.4296                74.2792                18.2692

                     64                     65                     66
                      A                      A                      A
 Frequencies --   1380.2191              1387.0187              1390.3505
 Red. masses --      2.6455                 1.4256                 1.3245
 Frc consts  --      2.9693                 1.6159                 1.5085
 IR Inten    --     61.5391                 6.2160                 5.6303

                     67                     68                     69
                      A                      A                      A
 Frequencies --   1397.0612              1411.0130              1416.9382
 Red. masses --      1.2985                 1.5428                 1.3303
 Frc consts  --      1.4932                 1.8097                 1.5736
 IR Inten    --      0.4487                25.3580                 6.3069

                     70                     71                     72
                      A                      A                      A
 Frequencies --   1433.9622              1453.8616              1486.1435
 Red. masses --      1.3591                 1.8860                 1.1006
 Frc consts  --      1.6466                 2.3487                 1.4322
 IR Inten    --     15.3512               254.3085                 7.1372

                     73                     74                     75
                      A                      A                      A
 Frequencies --   1492.2478              1497.5568              1501.6403
 Red. masses --      1.2335                 1.2471                 1.1002
 Frc consts  --      1.6184                 1.6478                 1.4617
 IR Inten    --      7.7907                14.3751                 4.5095

                     76                     77                     78
                      A                      A                      A
 Frequencies --   1511.4287              1512.5876              1513.7885
 Red. masses --      1.0963                 1.0475                 1.0963
 Frc consts  --      1.4755                 1.4121                 1.4802
 IR Inten    --      9.1898                 6.4055                 8.6201

                     79                     80                     81
                      A                      A                      A
 Frequencies --   1524.1968              1525.7326              1530.3092
 Red. masses --      1.0563                 1.1039                 1.1796
 Frc consts  --      1.4458                 1.5141                 1.6276
 IR Inten    --      3.2364                15.7415                40.4313

                     82                     83                     84
                      A                      A                      A
 Frequencies --   1773.4199              1838.7668              1847.0466
 Red. masses --      7.5279                11.3755                 9.5292
 Frc consts  --     13.9491                22.6608                19.1542
 IR Inten    --    247.5234               237.0247               315.5388

                     85                     86                     87
                      A                      A                      A
 Frequencies --   3040.2102              3045.0452              3056.2115
 Red. masses --      1.0723                 1.0731                 1.0678
 Frc consts  --      5.8396                 5.8622                 5.8763
 IR Inten    --      8.6731                57.2736                11.6239

                     88                     89                     90
                      A                      A                      A
 Frequencies --   3057.1469              3064.5474              3065.8488
 Red. masses --      1.0615                 1.0631                 1.0853
 Frc consts  --      5.8450                 5.8824                 6.0102
 IR Inten    --     24.7081                23.8232                 9.9774

                     91                     92                     93
                      A                      A                      A
 Frequencies --   3081.1245              3094.2382              3108.8251
 Red. masses --      1.0288                 1.0607                 1.1022
 Frc consts  --      5.7546                 5.9832                 6.2762
 IR Inten    --     29.8416                26.7439                23.7909

                     94                     95                     96
                      A                      A                      A
 Frequencies --   3114.8432              3123.4323              3139.0061
 Red. masses --      1.0953                 1.1006                 1.1052
 Frc consts  --      6.2614                 6.3265                 6.4161
 IR Inten    --      6.3695                24.1501                27.0526

                     97                     98                     99
                      A                      A                      A
 Frequencies --   3160.0096              3163.0236              3172.4566
 Red. masses --      1.1079                 1.0937                 1.0918
 Frc consts  --      6.5184                 6.4469                 6.4741
 IR Inten    --     17.1253                 4.5794                12.1994

                    100                    101                    102
                      A                      A                      A
 Frequencies --   3185.8985              3569.1958              3688.0119
 Red. masses --      1.1079                 1.0739                 1.0641
 Frc consts  --      6.6255                 8.0606                 8.5272
 IR Inten    --     14.8152                30.8496                53.6391

 - Thermochemistry -
 -------------------
 Temperature   298.150 Kelvin.  Pressure   1.00000 Atm.
 Atom     1 has atomic number  6 and mass  12.00000

 Molecular mass:   258.12157 amu.
 Principal axes and moments of inertia in atomic units:
                           1         2         3
     Eigenvalues --  1540.35878********************
           X            0.99998  -0.00334   0.00593
           Y            0.00330   0.99997   0.00701
           Z           -0.00595  -0.00699   0.99996
 This molecule is an asymmetric top.
 Rotational symmetry number  1.
 Warning -- assumption of classical behavior for rotation
           may cause significant error
 Rotational temperatures (Kelvin)      0.05623     0.00795     0.00785
 Rotational constants (GHZ):           1.17164     0.16567     0.16357
 Zero-point vibrational energy     798380.2 (Joules/Mol)
                                  190.81745 (Kcal/Mol)
 Warning -- explicit consideration of  28 degrees of freedom as
           vibrations may cause significant error
 Vibrational temperatures:     19.96    34.58    37.14    55.50    78.60
          (Kelvin)             88.21   161.01   171.53   193.15   206.31
                              252.93   277.35   295.18   351.76   415.46
                              447.79   486.25   503.36   540.67   585.29
                              661.80   723.19   762.48   795.21   814.48
                              856.85   867.55   888.98   902.17   937.03
                             1044.33  1106.35  1130.24  1190.57  1195.21
                             1200.36  1236.61  1275.52  1328.71  1368.00
                             1390.66  1407.71  1439.74  1481.70  1511.39
                             1517.80  1570.09  1590.10  1641.10  1667.22
                             1708.25  1719.57  1729.83  1754.93  1757.78
                             1767.81  1829.50  1836.51  1873.37  1883.09
                             1891.09  1942.43  1949.10  1985.83  1995.61
                             2000.40  2010.06  2030.13  2038.66  2063.15
                             2091.78  2138.23  2147.01  2154.65  2160.53
                             2174.61  2176.28  2178.00  2192.98  2195.19
                             2201.77  2551.56  2645.58  2657.49  4374.18
                             4381.14  4397.21  4398.55  4409.20  4411.07
                             4433.05  4451.92  4472.91  4481.56  4493.92
                             4516.33  4546.55  4550.89  4564.46  4583.80
                             5135.28  5306.23

 Zero-point correction=                           0.304087 (Hartree/Particle)
 Thermal correction to Energy=                    0.322353
 Thermal correction to Enthalpy=                  0.323298
 Thermal correction to Gibbs Free Energy=         0.253764
 Sum of electronic and zero-point Energies=           -915.437296
 Sum of electronic and thermal Energies=              -915.419030
 Sum of electronic and thermal Enthalpies=            -915.418086
 Sum of electronic and thermal Free Energies=         -915.487620

                     E (Thermal)             CV                S
                      KCal/Mol        Cal/Mol-Kelvin    Cal/Mol-Kelvin
 Total                  202.280             66.333            146.347
 Electronic               0.000              0.000              0.000
 Translational            0.889              2.981             42.545
 Rotational               0.889              2.981             33.581
 Vibrational            200.502             60.371             70.221
 Vibration     1          0.593              1.986              7.361
 Vibration     2          0.593              1.985              6.269
 Vibration     3          0.593              1.985              6.128
 Vibration     4          0.594              1.981              5.331
 Vibration     5          0.596              1.976              4.642
 Vibration     6          0.597              1.973              4.415
 Vibration     7          0.607              1.940              3.236
 Vibration     8          0.609              1.933              3.113
 Vibration     9          0.613              1.919              2.884
 Vibration    10          0.616              1.910              2.758
 Vibration    11          0.628              1.872              2.373
 Vibration    12          0.635              1.850              2.201
 Vibration    13          0.640              1.833              2.086
 Vibration    14          0.660              1.772              1.770
 Vibration    15          0.685              1.695              1.481
 Vibration    16          0.700              1.652              1.356
 Vibration    17          0.718              1.600              1.222
 Vibration    18          0.727              1.576              1.167
 Vibration    19          0.747              1.522              1.056
 Vibration    20          0.772              1.455              0.938
 Vibration    21          0.818              1.339              0.766
 Vibration    22          0.858              1.244              0.652
 Vibration    23          0.885              1.184              0.587
 Vibration    24          0.908              1.134              0.539
 Vibration    25          0.922              1.105              0.512
 Vibration    26          0.953              1.041              0.457
 Vibration    27          0.961              1.025              0.445
 Vibration    28          0.978              0.994              0.420

                           ! Non-Optimized Parameters !
 Normal termination of Gaussian 16 at Fri Dec 11 21:13:32 2020.

 ----------------------------------------------------------------------
 # B3LYP/6-311++G(d,p) empiricaldispersion=gd3bj scf=xqc pop=npa geom=c
 heck
 ----------------------------------------------------------------------

 --------------------------------------
 CID_61293551_JID_8371_Energie_neutraal
 --------------------------------------
 Structure from the checkpoint file:  "JID_8371.chk"
 Charge =  0 Multiplicity = 1

 SCF Done:  E(RB3LYP) =  -916.021729996     A.U. after   15 cycles
 Normal termination of Gaussian 16 at Fri Dec 11 21:19:33 2020.

 ----------------------------------------------------------------------
 # B3LYP/6-311++G(d,p) empiricaldispersion=gd3bj scf=xqc pop=npa geom=c
 heck
 ----------------------------------------------------------------------

 ------------------------------------
 CID_61293551_JID_8371_Energie_kation
 ------------------------------------
 Structure from the checkpoint file:  "JID_8371.chk"
 Charge =  1 Multiplicity = 2

 SCF Done:  E(UB3LYP) =  -915.706271309     A.U. after   25 cycles
 Normal termination of Gaussian 16 at Fri Dec 11 21:32:28 2020.
 Gaussian 16:  ES64L-G16RevA.03 25-Dec-2016

 ----------------------------------------------------------------------
 # B3LYP/6-311++G(d,p) empiricaldispersion=gd3bj scf=xqc pop=npa geom=c
 heck
 ----------------------------------------------------------------------

 -----------------------------------
 CID_61293551_JID_8371_Energie_anion
 -----------------------------------
 Structure from the checkpoint file:  "JID_8371.chk"
 Charge = -1 Multiplicity = 2

                         Standard orientation:
 ---------------------------------------------------------------------
 Center     Atomic      Atomic             Coordinates (Angstroms)
 Number     Number       Type             X           Y           Z
 ---------------------------------------------------------------------
      1          6           0       -5.060969    1.486452   -0.720034
      2          8           0       -4.155074    0.369020   -0.739528
      3          6           0       -3.921065   -0.198943    0.469287
      4          8           0       -4.455365    0.168643    1.489774
      5          6           0       -2.941993   -1.355454    0.382994
      6          6           0       -2.074832   -1.410228   -0.880779
      7          7           0       -1.297032   -0.188164   -1.125384
      8          6           0       -0.498834    0.345938   -0.105798
      9          8           0       -0.610143    1.514747    0.249989
     10          7           0        0.398040   -0.541323    0.474646
     11          6           0        1.169816   -0.023587    1.607597
     12          6           0        2.466464    0.652787    1.154568
     13          6           0        3.307510   -0.329533    0.312743
     14          6           0        2.464417   -0.870996   -0.857757
     15          6           0        1.153503   -1.489251   -0.352366
     16          6           0        4.592579    0.311104   -0.163204
     17          8           0        5.710596   -0.013641    0.170723
     18          8           0        4.362811    1.333749   -1.027637
     19          1           0       -5.143891    1.813410   -1.756566
     20          1           0       -4.658931    2.285489   -0.092672
     21          1           0       -6.034803    1.180300   -0.330841
     22          1           0       -2.312299   -1.299805    1.276376
     23          1           0       -3.524830   -2.282037    0.473712
     24          1           0       -1.405426   -2.270703   -0.805378
     25          1           0       -2.699513   -1.565798   -1.763766
     26          1           0       -1.906398    0.556517   -1.447989
     27          1           0        1.396300   -0.872657    2.266276
     28          1           0        0.539543    0.680040    2.150815
     29          1           0        3.038149    0.987620    2.028226
     30          1           0        2.214445    1.535640    0.558900
     31          1           0        3.617606   -1.167035    0.948801
     32          1           0        2.230505   -0.052324   -1.547099
     33          1           0        3.030258   -1.624522   -1.419269
     34          1           0        0.545777   -1.793246   -1.202915
     35          1           0        1.363486   -2.381244    0.252874
     36          1           0        5.240789    1.686888   -1.264395
 ---------------------------------------------------------------------

 SCF Done:  E(UB3LYP) =  -916.013349182     A.U. after   33 cycles
 SCF Done:  E(UB3LYP) =  -916.013349182     a.u. after    1 cycles

 The electronic state is 2-A.
 Alpha  occ. eigenvalues --  -19.09102 -19.08608 -19.03361 -19.02898 -18.99922
 Alpha  occ. eigenvalues --  -14.24847 -14.23361 -10.22220 -10.21893 -10.20314
 Alpha  occ. eigenvalues --  -10.14643 -10.12057 -10.12035 -10.11726 -10.10818
 Alpha  occ. eigenvalues --  -10.09835 -10.09135 -10.09126  -1.02843  -1.02683
 Alpha  occ. eigenvalues --   -0.96297  -0.94042  -0.93777  -0.85682  -0.82619
 Alpha  occ. eigenvalues --   -0.73475  -0.69947  -0.68164  -0.64080  -0.62017
 Alpha  occ. eigenvalues --   -0.57305  -0.55715  -0.54592  -0.51223  -0.49088
 Alpha  occ. eigenvalues --   -0.47388  -0.43978  -0.41768  -0.41192  -0.40951
 Alpha  occ. eigenvalues --   -0.40521  -0.40023  -0.39144  -0.37986  -0.37569
 Alpha  occ. eigenvalues --   -0.37403  -0.35672  -0.34762  -0.34385  -0.34155
 Alpha  occ. eigenvalues --   -0.33283  -0.32327  -0.31993  -0.30804  -0.30482
 Alpha  occ. eigenvalues --   -0.29253  -0.28760  -0.27999  -0.27784  -0.27395
 Alpha  occ. eigenvalues --   -0.25534  -0.24929  -0.24081  -0.23178  -0.20106
 Alpha  occ. eigenvalues --   -0.20053  -0.19494  -0.16219  -0.15576   0.03720
 Alpha virt. eigenvalues --    0.05195   0.05835   0.06819   0.07419   0.07834
 Alpha virt. eigenvalues --    0.08080   0.08281   0.09002   0.09332   0.09753
 Alpha virt. eigenvalues --    0.10300   0.10717   0.10993   0.11293   0.11637

  Beta  occ. eigenvalues --  -19.09094 -19.08567 -19.03352 -19.02889 -18.99915
  Beta  occ. eigenvalues --  -14.24849 -14.23358 -10.22216 -10.21876 -10.20310
  Beta  occ. eigenvalues --  -10.14625 -10.12026 -10.12011 -10.11717 -10.10806
  Beta  occ. eigenvalues --  -10.09813 -10.09120 -10.09119  -1.02824  -1.02628
  Beta  occ. eigenvalues --   -0.96286  -0.94026  -0.93735  -0.85672  -0.82603
  Beta  occ. eigenvalues --   -0.73449  -0.69905  -0.68136  -0.64039  -0.61980
  Beta  occ. eigenvalues --   -0.57241  -0.55679  -0.54536  -0.51168  -0.49050
  Beta  occ. eigenvalues --   -0.47357  -0.43948  -0.41720  -0.41165  -0.40927
  Beta  occ. eigenvalues --   -0.40490  -0.39991  -0.39110  -0.37960  -0.37542
  Beta  occ. eigenvalues --   -0.37376  -0.35636  -0.34733  -0.34354  -0.34125
  Beta  occ. eigenvalues --   -0.33246  -0.32299  -0.31964  -0.30770  -0.30453
  Beta  occ. eigenvalues --   -0.29208  -0.28731  -0.27972  -0.27749  -0.27360
  Beta  occ. eigenvalues --   -0.25511  -0.24900  -0.24057  -0.23152  -0.20082
  Beta  occ. eigenvalues --   -0.20032  -0.19473  -0.16199  -0.15561
  Beta virt. eigenvalues --    0.05820   0.06112   0.06774   0.07330   0.07847
  Beta virt. eigenvalues --    0.08009   0.08391   0.08475   0.09299   0.09499
  Beta virt. eigenvalues --    0.10209   0.10573   0.10785   0.11264   0.11428

 Mulliken charges and spin densities:
               1          2
     1  C    0.203525  -0.441323
     2  O   -0.086455   0.028400
     3  C    0.005810  -0.248209
     4  O   -0.226230   0.010997
     5  C    0.203370  -0.378491
     6  C    0.269070  -0.714390
     7  N   -0.136233   0.116650
     8  C    0.421083  -0.713766
     9  O   -0.328966   0.029294
    10  N    0.080382   0.126558
    11  C   -0.476652   0.202939
    12  C    0.049499  -0.453397
    13  C    0.343965   0.032075
    14  C    0.790795  -1.229808
    15  C   -0.746701   0.285949
    16  C    0.145714  -0.489110
    17  O   -0.267194   0.018269
    18  O   -0.210247   0.074160
    19  H   -0.084004   0.228993
    20  H    0.114091   0.071525
    21  H   -0.000353   0.167946
    22  H    0.154834   0.075266
    23  H   -0.607959   0.824705
    24  H   -0.211868   0.343845
    25  H   -0.649628   0.888097
    26  H    0.306658   0.028458
    27  H   -0.025577   0.197255
    28  H    0.204092  -0.000876
    29  H    0.083537   0.081584
    30  H    0.215766   0.014386
    31  H    0.100189   0.120479
    32  H    0.178587   0.031371
    33  H   -0.230949   0.427981
    34  H   -0.018351   0.192733
    35  H   -0.395945   0.588652
    36  H   -0.167656   0.460803
 Sum of Mulliken charges =  -1.00000   1.00000

 Dipole moment (field-independent basis, Debye):
    X=             -1.0459    Y=              3.0184    Z=              1.5619  Tot=              3.5559
 Quadrupole moment (field-independent basis, Debye-Ang):
   XX=           -216.7204   YY=           -154.3125   ZZ=           -140.8846
   XY=            -11.8909   XZ=              6.7696   YZ=             -3.0423

 Summary of Natural Population Analysis:

                                       Natural Population
                Natural  -----------------------------------------------
    Atom  No    Charge         Core      Valence    Rydberg      Total
 -----------------------------------------------------------------------
      C    1   -0.10618      0.99959     2.09747    0.00912     3.10618
      O    2   -0.28583      0.99986     3.27629    0.00968     4.28583
      C    3    0.41484      0.99969     1.56008    0.02539     2.58516
      O    4   -0.30318      0.99987     3.29781    0.00551     4.30318
      C    5   -0.24626      0.99958     2.23776    0.00892     3.24626
      C    6   -0.09114      0.99961     2.07871    0.01282     3.09114
      N    7   -0.34019      0.99969     2.83035    0.01015     3.84019
      C    8    0.41390      0.99966     1.56215    0.02429     2.58610
      O    9   -0.33143      0.99988     3.32674    0.00482     4.33143
      N   10   -0.27490      0.99965     2.76472    0.01053     3.77490
      C   11   -0.08543      0.99961     2.07454    0.01128     3.08543
      C   12   -0.19416      0.99961     2.18746    0.00709     3.19416
      C   13   -0.15533      0.99954     2.14474    0.01106     3.15533
      C   14   -0.19377      0.99961     2.18540    0.00875     3.19377
      C   15   -0.08335      0.99960     2.07228    0.01147     3.08335
      C   16    0.41294      0.99967     1.56107    0.02632     2.58706
      O   17   -0.30536      0.99987     3.29954    0.00594     4.30536
      O   18   -0.34628      0.99988     3.33982    0.00659     4.34628
      H   19    0.09231      0.00000     0.40682    0.00087     0.40769
      H   20    0.09425      0.00000     0.40493    0.00082     0.40575
      H   21    0.09229      0.00000     0.40681    0.00091     0.40771
      H   22    0.11500      0.00000     0.38360    0.00140     0.38500
      H   23    0.12132      0.00000     0.37640    0.00228     0.37868
      H   24    0.10081      0.00000     0.39726    0.00193     0.39919
      H   25    0.10475      0.00000     0.39286    0.00239     0.39525
      H   26    0.19465      0.00000     0.30287    0.00248     0.30535
      H   27    0.09253      0.00000     0.40646    0.00101     0.40747
      H   28    0.11368      0.00000     0.38540    0.00092     0.38632
      H   29    0.10152      0.00000     0.39763    0.00085     0.39848
      H   30    0.11119      0.00000     0.38741    0.00140     0.38881
      H   31    0.10732      0.00000     0.39084    0.00184     0.39268
      H   32    0.10585      0.00000     0.39247    0.00167     0.39415
      H   33    0.10557      0.00000     0.39323    0.00120     0.39443
      H   34    0.11037      0.00000     0.38787    0.00176     0.38963
      H   35    0.09509      0.00000     0.40327    0.00164     0.40491
      H   36    0.24263      0.00000     0.24880    0.00857     0.25737
 =======================================================================
   * Total *    0.00000     17.99445    50.76186    0.24368    69.00000

 Normal termination of Gaussian 16 at Fri Dec 11 21:49:36 2020.
