 Gaussian 16, Revision A.03,

 -----------------------------------------------------------
 # opt freq B3LYP/6-31G(d) empiricaldispersion=gd3bj scf=xqc
 -----------------------------------------------------------

 ------------------------------
 CID_63749277_JID_2400_neutraal
 ------------------------------
 Symbolic Z-matrix:
 Charge =  0 Multiplicity = 1

 SCF Done:  E(RB3LYP) =  -876.532200312     A.U. after   14 cycles
 SCF Done:  E(RB3LYP) =  -876.535693691     A.U. after   13 cycles
 SCF Done:  E(RB3LYP) =  -876.538209869     A.U. after   14 cycles
 SCF Done:  E(RB3LYP) =  -876.539167322     A.U. after   13 cycles
 SCF Done:  E(RB3LYP) =  -876.539833075     A.U. after   12 cycles
 SCF Done:  E(RB3LYP) =  -876.540092496     A.U. after   12 cycles
 SCF Done:  E(RB3LYP) =  -876.540204800     A.U. after   12 cycles
 SCF Done:  E(RB3LYP) =  -876.540279958     A.U. after   11 cycles
 SCF Done:  E(RB3LYP) =  -876.540303625     A.U. after   10 cycles
 SCF Done:  E(RB3LYP) =  -876.540307273     A.U. after    8 cycles
 SCF Done:  E(RB3LYP) =  -876.540309197     A.U. after    8 cycles
 SCF Done:  E(RB3LYP) =  -876.540309498     A.U. after    8 cycles
 SCF Done:  E(RB3LYP) =  -876.540309703     A.U. after    8 cycles
 SCF Done:  E(RB3LYP) =  -876.540309766     A.U. after    7 cycles
 Optimization completed.
    -- Stationary point found.
 Normal termination of Gaussian 16 at Wed Dec  9 17:19:35 2020.

 --------------------------------------------------------------------
 #N Geom=AllCheck Guess=TCheck SCRF=Check GenChk RB3LYP/6-31G(d) Freq
 --------------------------------------------------------------------

 Structure from the checkpoint file:  "JID_2400.chk"
 ------------------------------
 CID_63749277_JID_2400_neutraal
 ------------------------------
 Charge =  0 Multiplicity = 1

 SCF Done:  E(RB3LYP) =  -876.540309766     A.U. after    1 cycles

  Exact polarizability: 149.007  -1.735 101.648 -13.041   0.745  75.786
 Approx polarizability: 213.705  -3.467 177.090 -28.713   0.974 131.125

                      1                      2                      3
                      A                      A                      A
 Frequencies --     37.1878                46.9282                91.5281
 Red. masses --      4.5525                 4.5816                 4.7880
 Frc consts  --      0.0037                 0.0059                 0.0236
 IR Inten    --      0.0830                 0.2079                 1.3496

                      4                      5                      6
                      A                      A                      A
 Frequencies --    150.2036               210.4164               242.3770
 Red. masses --      5.2953                 5.5267                 4.9952
 Frc consts  --      0.0704                 0.1442                 0.1729
 IR Inten    --      0.3328                 0.4774                 0.8119

                      7                      8                      9
                      A                      A                      A
 Frequencies --    312.0897               323.3420               381.7623
 Red. masses --      5.2084                 1.2744                 4.6046
 Frc consts  --      0.2989                 0.0785                 0.3954
 IR Inten    --     10.3746                84.9189                44.9614

                     10                     11                     12
                      A                      A                      A
 Frequencies --    458.1259               459.3648               494.5336
 Red. masses --      1.7275                 3.5607                 4.2019
 Frc consts  --      0.2136                 0.4427                 0.6055
 IR Inten    --     66.0423                 9.2177                12.9454

                     13                     14                     15
                      A                      A                      A
 Frequencies --    588.6313               629.3446               640.9472
 Red. masses --      4.2181                 7.1268                 2.4904
 Frc consts  --      0.8611                 1.6631                 0.6028
 IR Inten    --      6.9382                 5.2461                 3.9306

                     16                     17                     18
                      A                      A                      A
 Frequencies --    675.0745               688.0417               692.4971
 Red. masses --      2.7292                 1.2861                 1.2839
 Frc consts  --      0.7328                 0.3587                 0.3628
 IR Inten    --      2.1780                 7.6328                20.1677

                     19                     20                     21
                      A                      A                      A
 Frequencies --    735.0838               752.4704               792.5900
 Red. masses --      4.5731                 1.7018                 1.4815
 Frc consts  --      1.4559                 0.5677                 0.5483
 IR Inten    --     13.6504                97.5340                13.9698

                     22                     23                     24
                      A                      A                      A
 Frequencies --    828.2202               843.9774               845.7739
 Red. masses --      1.8139                 2.9535                 1.5950
 Frc consts  --      0.7331                 1.2395                 0.6722
 IR Inten    --     18.1863                29.9873                10.8453

                     25                     26                     27
                      A                      A                      A
 Frequencies --    872.0664               894.2721               912.7809
 Red. masses --      4.0577                 1.3074                 4.8580
 Frc consts  --      1.8182                 0.6160                 2.3847
 IR Inten    --      5.5724                 0.4246                 1.9063

                     28                     29                     30
                      A                      A                      A
 Frequencies --    958.2109               996.8825              1043.9484
 Red. masses --      4.0522                 2.6475                 3.9628
 Frc consts  --      2.1921                 1.5502                 2.5445
 IR Inten    --     16.5926                12.3520                79.1958

                     31                     32                     33
                      A                      A                      A
 Frequencies --   1092.6686              1101.7578              1115.9332
 Red. masses --      1.7321                 1.5136                 1.1147
 Frc consts  --      1.2184                 1.0825                 0.8178
 IR Inten    --     38.5396                19.6919                 7.6668

                     34                     35                     36
                      A                      A                      A
 Frequencies --   1166.8821              1174.0975              1230.0699
 Red. masses --      1.4509                 1.5299                 1.4352
 Frc consts  --      1.1640                 1.2426                 1.2794
 IR Inten    --      3.1725                 5.7115                17.9594

                     37                     38                     39
                      A                      A                      A
 Frequencies --   1243.9753              1282.8659              1307.0567
 Red. masses --      1.5591                 1.4593                 1.8567
 Frc consts  --      1.4215                 1.4150                 1.8689
 IR Inten    --     20.8415                 9.6302                 0.4869

                     40                     41                     42
                      A                      A                      A
 Frequencies --   1356.7424              1409.2504              1433.1857
 Red. masses --      1.9943                 2.3192                 1.6696
 Frc consts  --      2.1629                 2.7137                 2.0206
 IR Inten    --     23.6235                21.9920                38.8486

                     43                     44                     45
                      A                      A                      A
 Frequencies --   1438.6195              1478.0814              1479.3812
 Red. masses --      2.8924                 2.9102                 5.7514
 Frc consts  --      3.5269                 3.7460                 7.4162
 IR Inten    --     11.2770                 3.4319                26.9947

                     46                     47                     48
                      A                      A                      A
 Frequencies --   1537.5346              1605.7490              1617.1483
 Red. masses --      3.2196                 5.8058                 4.1480
 Frc consts  --      4.4844                 8.8199                 6.3913
 IR Inten    --     22.1270                 0.3715                 3.7251

                     49                     50                     51
                      A                      A                      A
 Frequencies --   3041.6060              3224.4834              3258.9007
 Red. masses --      1.0837                 1.0903                 1.0909
 Frc consts  --      5.9071                 6.6790                 6.8262
 IR Inten    --     28.7702                 3.5651                 2.0254

                     52                     53                     54
                      A                      A                      A
 Frequencies --   3268.9893              3282.9674              3288.5350
 Red. masses --      1.0970                 1.1017                 1.0975
 Frc consts  --      6.9069                 6.9959                 6.9932
 IR Inten    --      1.5144                 5.3226                 0.0740

                     55                     56                     57
                      A                      A                      A
 Frequencies --   3289.5194              3670.7361              3726.8353
 Red. masses --      1.0932                 1.0807                 1.0659
 Frc consts  --      6.9699                 8.5796                 8.7229
 IR Inten    --      1.0868                57.7843                13.1433

 - Thermochemistry -
 -------------------
 Temperature   298.150 Kelvin.  Pressure   1.00000 Atm.
 Atom     1 has atomic number  6 and mass  12.00000

 Molecular mass:   179.04049 amu.
 Principal axes and moments of inertia in atomic units:
                           1         2         3
     Eigenvalues --   945.733783831.066064377.83337
           X            1.00000   0.00101   0.00247
           Y           -0.00100   0.99999  -0.00407
           Z           -0.00247   0.00407   0.99999
 This molecule is an asymmetric top.
 Rotational symmetry number  1.
 Warning -- assumption of classical behavior for rotation
           may cause significant error
 Rotational temperatures (Kelvin)      0.09158     0.02261     0.01978
 Rotational constants (GHZ):           1.90830     0.47108     0.41225
 Zero-point vibrational energy     428994.3 (Joules/Mol)
                                  102.53210 (Kcal/Mol)
 Warning -- explicit consideration of  13 degrees of freedom as
           vibrations may cause significant error
 Vibrational temperatures:     53.51    67.52   131.69   216.11   302.74
          (Kelvin)            348.73   449.03   465.22   549.27   659.14
                              660.92   711.52   846.91   905.49   922.18
                              971.28   989.94   996.35  1057.62  1082.64
                             1140.36  1191.62  1214.30  1216.88  1254.71
                             1286.66  1313.29  1378.65  1434.29  1502.01
                             1572.11  1585.18  1605.58  1678.88  1689.26
                             1769.80  1789.80  1845.76  1880.56  1952.05
                             2027.60  2062.03  2069.85  2126.63  2128.50
                             2212.17  2310.31  2326.72  4376.19  4639.31
                             4688.83  4703.35  4723.46  4731.47  4732.88
                             5281.37  5362.08

 Zero-point correction=                           0.163395 (Hartree/Particle)
 Thermal correction to Energy=                    0.174007
 Thermal correction to Enthalpy=                  0.174951
 Thermal correction to Gibbs Free Energy=         0.125688
 Sum of electronic and zero-point Energies=           -876.376914
 Sum of electronic and thermal Energies=              -876.366303
 Sum of electronic and thermal Enthalpies=            -876.365359
 Sum of electronic and thermal Free Energies=         -876.414622

                     E (Thermal)             CV                S
                      KCal/Mol        Cal/Mol-Kelvin    Cal/Mol-Kelvin
 Total                  109.191             40.938            103.682
 Electronic               0.000              0.000              0.000
 Translational            0.889              2.981             41.454
 Rotational               0.889              2.981             31.140
 Vibrational            107.413             34.977             31.089
 Vibration     1          0.594              1.982              5.404
 Vibration     2          0.595              1.979              4.943
 Vibration     3          0.602              1.955              3.627
 Vibration     4          0.618              1.902              2.670
 Vibration     5          0.643              1.825              2.040
 Vibration     6          0.659              1.775              1.785
 Vibration     7          0.700              1.651              1.351
 Vibration     8          0.708              1.629              1.293
 Vibration     9          0.751              1.509              1.032
 Vibration    10          0.816              1.343              0.772
 Vibration    11          0.817              1.340              0.768
 Vibration    12          0.850              1.262              0.672
 Vibration    13          0.946              1.056              0.470

 Optimization completed.
    -- Stationary point found.
 Normal termination of Gaussian 16 at Wed Dec  9 17:24:08 2020.

 ----------------------------------------------------------------------
 # B3LYP/6-311++G(d,p) empiricaldispersion=gd3bj scf=xqc pop=npa geom=c
 heck
 ----------------------------------------------------------------------

 --------------------------------------
 CID_63749277_JID_2400_Energie_neutraal
 --------------------------------------
 Structure from the checkpoint file:  "JID_2400.chk"
 Charge =  0 Multiplicity = 1

 SCF Done:  E(RB3LYP) =  -876.710014231     A.U. after   16 cycles
 Normal termination of Gaussian 16 at Wed Dec  9 17:26:08 2020.

 ----------------------------------------------------------------------
 # B3LYP/6-311++G(d,p) empiricaldispersion=gd3bj scf=xqc pop=npa geom=c
 heck
 ----------------------------------------------------------------------

 ------------------------------------
 CID_63749277_JID_2400_Energie_kation
 ------------------------------------
 Structure from the checkpoint file:  "JID_2400.chk"
 Charge =  1 Multiplicity = 2

 SCF Done:  E(UB3LYP) =  -876.415097436     A.U. after   33 cycles
 SCF Done:  E(UB3LYP) =  -876.415097436     a.u. after    1 cycles
 Normal termination of Gaussian 16 at Wed Dec  9 17:31:01 2020.
 Gaussian 16:  ES64L-G16RevA.03 25-Dec-2016

 ----------------------------------------------------------------------
 # B3LYP/6-311++G(d,p) empiricaldispersion=gd3bj scf=xqc pop=npa geom=c
 heck
 ----------------------------------------------------------------------

 -----------------------------------
 CID_63749277_JID_2400_Energie_anion
 -----------------------------------
 Structure from the checkpoint file:  "JID_2400.chk"
 Charge = -1 Multiplicity = 2

                         Standard orientation:
 ---------------------------------------------------------------------
 Center     Atomic      Atomic             Coordinates (Angstroms)
 Number     Number       Type             X           Y           Z
 ---------------------------------------------------------------------
      1          6           0       -2.940401    0.487032    0.564038
      2          6           0       -3.729772   -0.490830    0.004582
      3          7           0       -2.904395   -1.343342   -0.695502
      4          6           0       -1.601236   -0.924032   -0.588949
      5          6           0       -1.585031    0.215007    0.195672
      6          6           0       -0.395162    1.079156    0.513262
      7          6           0        0.922399    0.354911    0.324373
      8          6           0        1.949175    0.840184   -0.437153
      9         16           0        3.325037   -0.219315   -0.431835
     10          6           0        2.508244   -1.337360    0.618428
     11          6           0        1.252319   -0.902725    0.933874
     12          8           0       -0.433363    2.301742   -0.237742
     13          1           0       -3.280969    1.318246    1.166117
     14          1           0       -4.796683   -0.654945    0.043939
     15          1           0       -3.207651   -2.165308   -1.193933
     16          1           0       -0.792149   -1.465234   -1.055442
     17          1           0       -0.463511    1.409975    1.557777
     18          1           0        1.970723    1.775770   -0.975855
     19          1           0        3.002452   -2.245300    0.936623
     20          1           0        0.569591   -1.452457    1.572062
     21          1           0       -0.687940    2.049701   -1.140247
 ---------------------------------------------------------------------

 SCF Done:  E(UB3LYP) =  -876.698188622     A.U. after   33 cycles
 SCF Done:  E(UB3LYP) =  -876.698188622     a.u. after    1 cycles

 The electronic state is 2-A.
 Alpha  occ. eigenvalues --  -88.78564 -19.03016 -14.25030 -10.14009 -10.10745
 Alpha  occ. eigenvalues --  -10.10339 -10.09026 -10.08992 -10.08904 -10.08408
 Alpha  occ. eigenvalues --  -10.06326 -10.05579  -7.87176  -5.83458  -5.83096
 Alpha  occ. eigenvalues --   -5.82786  -0.93280  -0.87207  -0.79005  -0.69435
 Alpha  occ. eigenvalues --   -0.65761  -0.63636  -0.62172  -0.57704  -0.48579
 Alpha  occ. eigenvalues --   -0.48031  -0.46392  -0.45280  -0.44618  -0.41891
 Alpha  occ. eigenvalues --   -0.36831  -0.35501  -0.33439  -0.32344  -0.31265
 Alpha  occ. eigenvalues --   -0.30703  -0.30245  -0.29925  -0.28478  -0.27328
 Alpha  occ. eigenvalues --   -0.25643  -0.24818  -0.19621  -0.16095  -0.14874
 Alpha  occ. eigenvalues --   -0.14255  -0.11800   0.04501
 Alpha virt. eigenvalues --    0.06415   0.07079   0.07405   0.08201   0.09025
 Alpha virt. eigenvalues --    0.09624   0.10167   0.10828   0.11402   0.11884
 Alpha virt. eigenvalues --    0.11999   0.12630   0.13162   0.13947   0.14549

  Beta  occ. eigenvalues --  -88.78563 -19.03012 -14.24962 -10.14004 -10.10725
  Beta  occ. eigenvalues --  -10.10337 -10.09012 -10.08992 -10.08882 -10.08400
  Beta  occ. eigenvalues --  -10.06327 -10.05575  -7.87174  -5.83456  -5.83093
  Beta  occ. eigenvalues --   -5.82784  -0.93268  -0.87130  -0.78993  -0.69395
  Beta  occ. eigenvalues --   -0.65719  -0.63616  -0.62132  -0.57667  -0.48478
  Beta  occ. eigenvalues --   -0.47995  -0.46366  -0.45236  -0.44560  -0.41859
  Beta  occ. eigenvalues --   -0.36789  -0.35476  -0.33403  -0.32275  -0.31229
  Beta  occ. eigenvalues --   -0.30681  -0.30213  -0.29905  -0.28461  -0.27305
  Beta  occ. eigenvalues --   -0.25629  -0.24801  -0.19614  -0.16084  -0.14860
  Beta  occ. eigenvalues --   -0.14230  -0.11787
  Beta virt. eigenvalues --    0.06962   0.07095   0.07511   0.08056   0.08823
  Beta virt. eigenvalues --    0.09701   0.09804   0.10509   0.11079   0.11726
  Beta virt. eigenvalues --    0.12183   0.12448   0.12643   0.13028   0.13901

 Mulliken charges and spin densities:
               1          2
     1  C   -1.287968   1.952514
     2  C    1.287624  -1.789699
     3  N    0.134477  -0.201580
     4  C   -0.753721   0.552930
     5  C    1.857186  -1.807397
     6  C    0.868682  -2.443871
     7  C    0.481763  -0.466424
     8  C   -0.425033   1.171837
     9  S    0.293501  -0.758779
    10  C    0.613263  -0.840694
    11  C   -1.176960   0.862706
    12  O   -0.168663  -0.000437
    13  H   -0.078976   0.237504
    14  H   -0.932495   1.092481
    15  H   -0.779759   1.121010
    16  H   -0.377690   0.586379
    17  H    0.192939   0.011587
    18  H    0.101835   0.170873
    19  H   -0.900084   1.174222
    20  H   -0.135966   0.331963
    21  H    0.186045   0.042877
 Sum of Mulliken charges =  -1.00000   1.00000

 Dipole moment (field-independent basis, Debye):
    X=              6.7816    Y=              7.3352    Z=              1.4013  Tot=             10.0875
 Quadrupole moment (field-independent basis, Debye-Ang):
   XX=           -159.2433   YY=           -129.3504   ZZ=           -103.1159
   XY=            -11.8970   XZ=            -13.3182   YZ=             -6.1367

 Summary of Natural Population Analysis:

                                       Natural Population
                Natural  -----------------------------------------------
    Atom  No    Charge         Core      Valence    Rydberg      Total
 -----------------------------------------------------------------------
      C    1   -0.14247      0.99952     2.13314    0.00980     3.14247
      C    2   -0.01532      0.99957     2.00121    0.01454     3.01532
      N    3   -0.25916      0.99970     2.74702    0.01244     3.75916
      C    4   -0.01408      0.99950     2.00084    0.01373     3.01408
      C    5   -0.08450      0.99950     2.07245    0.01255     3.08450
      C    6    0.05480      0.99946     1.93197    0.01377     2.94520
      C    7   -0.05145      0.99946     2.03844    0.01355     3.05145
      C    8   -0.19319      0.99945     2.18388    0.00986     3.19319
      S    9    0.19180      4.99946     2.78567    0.02308     7.80820
      C   10   -0.18935      0.99954     2.17736    0.01245     3.18935
      C   11   -0.12413      0.99949     2.11364    0.01100     3.12413
      O   12   -0.36889      0.99990     3.36339    0.00560     4.36889
      H   13    0.10412      0.00000     0.39509    0.00079     0.39588
      H   14    0.10319      0.00000     0.39430    0.00250     0.39681
      H   15    0.21378      0.00000     0.24001    0.04620     0.28622
      H   16    0.10861      0.00000     0.38952    0.00187     0.39139
      H   17    0.09413      0.00000     0.40416    0.00172     0.40587
      H   18    0.11562      0.00000     0.38325    0.00113     0.38438
      H   19    0.11316      0.00000     0.38457    0.00226     0.38684
      H   20    0.11451      0.00000     0.38436    0.00113     0.38549
      H   21    0.22880      0.00000     0.26823    0.00298     0.27120
 =======================================================================
   * Total *    0.00000     15.99456    30.79249    0.21295    47.00000

 Normal termination of Gaussian 16 at Wed Dec  9 17:36:07 2020.
