 Gaussian 16, Revision A.03,

 -----------------------------------------------------------
 # opt freq B3LYP/6-31G(d) empiricaldispersion=gd3bj scf=xqc
 -----------------------------------------------------------

 -------------------------------
 CID_115731128_JID_5537_neutraal
 -------------------------------
 Symbolic Z-matrix:
 Charge =  0 Multiplicity = 1

 SCF Done:  E(RB3LYP) =  -1083.61590565     A.U. after   15 cycles
 SCF Done:  E(RB3LYP) =  -1083.61375251     A.U. after   13 cycles
 SCF Done:  E(RB3LYP) =  -1083.61970434     A.U. after   13 cycles
 SCF Done:  E(RB3LYP) =  -1083.62039765     A.U. after   12 cycles
 SCF Done:  E(RB3LYP) =  -1083.62069616     A.U. after   12 cycles
 SCF Done:  E(RB3LYP) =  -1083.62065690     A.U. after   12 cycles
 SCF Done:  E(RB3LYP) =  -1083.62094233     A.U. after   12 cycles
 SCF Done:  E(RB3LYP) =  -1083.62103764     A.U. after   12 cycles
 SCF Done:  E(RB3LYP) =  -1083.62110860     A.U. after   12 cycles
 SCF Done:  E(RB3LYP) =  -1083.62116350     A.U. after   12 cycles
 SCF Done:  E(RB3LYP) =  -1083.62154306     A.U. after    9 cycles
 SCF Done:  E(RB3LYP) =  -1083.62154334     A.U. after    8 cycles
 SCF Done:  E(RB3LYP) =  -1083.62154344     A.U. after    8 cycles
 SCF Done:  E(RB3LYP) =  -1083.62154347     A.U. after    7 cycles
 Optimization completed.
    -- Stationary point found.
 Normal termination of Gaussian 16 at Thu Dec 10 16:37:45 2020.

 --------------------------------------------------------------------
 #N Geom=AllCheck Guess=TCheck SCRF=Check GenChk RB3LYP/6-31G(d) Freq
 --------------------------------------------------------------------

 Structure from the checkpoint file:  "JID_5537.chk"
 -------------------------------
 CID_115731128_JID_5537_neutraal
 -------------------------------
 Charge =  0 Multiplicity = 1

 SCF Done:  E(RB3LYP) =  -1083.62154347     A.U. after    1 cycles

  Exact polarizability: 124.345   3.718 137.878  17.627  -0.142 103.040
 Approx polarizability: 174.828   8.983 227.675  42.436 -10.785 178.933

                      1                      2                      3
                      A                      A                      A
 Frequencies --     23.9188                34.8916                39.0189
 Red. masses --      6.6822                 7.4888                 8.9749
 Frc consts  --      0.0023                 0.0054                 0.0081
 IR Inten    --      0.3852                 1.4430                 1.1262

                      4                      5                      6
                      A                      A                      A
 Frequencies --     49.3195                66.9048                76.1289
 Red. masses --      5.0592                 7.2303                 6.8879
 Frc consts  --      0.0073                 0.0191                 0.0235
 IR Inten    --      3.4013                 0.4878                 1.7124

                      7                      8                      9
                      A                      A                      A
 Frequencies --    113.2395               192.3300               202.9988
 Red. masses --      4.5652                 5.6416                 3.3738
 Frc consts  --      0.0345                 0.1230                 0.0819
 IR Inten    --      0.0645                 0.8787                 2.0051

                     10                     11                     12
                      A                      A                      A
 Frequencies --    234.0835               274.1489               332.7778
 Red. masses --      1.2082                 2.8050                 3.5548
 Frc consts  --      0.0390                 0.1242                 0.2319
 IR Inten    --      0.3083                 0.1573                 1.2250

                     13                     14                     15
                      A                      A                      A
 Frequencies --    335.3172               356.4541               383.8634
 Red. masses --      2.2896                 3.7629                 3.3954
 Frc consts  --      0.1517                 0.2817                 0.2948
 IR Inten    --      4.0927                 4.8346                 1.3438

                     16                     17                     18
                      A                      A                      A
 Frequencies --    413.7729               494.8829               506.1992
 Red. masses --      6.7870                 4.5453                 2.2120
 Frc consts  --      0.6846                 0.6559                 0.3339
 IR Inten    --      7.1599                 2.0727                16.4200

                     19                     20                     21
                      A                      A                      A
 Frequencies --    561.9199               581.2054               595.7440
 Red. masses --      3.6372                 3.1223                 2.4862
 Frc consts  --      0.6767                 0.6214                 0.5199
 IR Inten    --     12.5622                32.6126                62.1344

                     22                     23                     24
                      A                      A                      A
 Frequencies --    609.8062               649.3527               666.7758
 Red. masses --      1.8194                 1.9032                 7.3392
 Frc consts  --      0.3986                 0.4728                 1.9225
 IR Inten    --     57.0600                60.0987                 0.7533

                     25                     26                     27
                      A                      A                      A
 Frequencies --    707.6563               725.8463               736.9608
 Red. masses --      4.0564                 3.5449                 1.2895
 Frc consts  --      1.1968                 1.1004                 0.4126
 IR Inten    --      5.4926                22.7012                 8.8945

                     28                     29                     30
                      A                      A                      A
 Frequencies --    741.8155               797.5491               818.1909
 Red. masses --      2.7511                 2.4250                 1.4830
 Frc consts  --      0.8920                 0.9088                 0.5849
 IR Inten    --     24.5111                 4.4364                44.1998

                     31                     32                     33
                      A                      A                      A
 Frequencies --    820.6783               828.2977               884.0699
 Red. masses --      3.8122                 2.5311                 4.6686
 Frc consts  --      1.5128                 1.0231                 2.1498
 IR Inten    --      9.8567                 1.7095                35.8583

                     34                     35                     36
                      A                      A                      A
 Frequencies --    928.8341               963.3647               987.7728
 Red. masses --      3.8274                 2.1575                 2.2138
 Frc consts  --      1.9455                 1.1797                 1.2726
 IR Inten    --     22.6489                 8.2545                 4.3158

                     37                     38                     39
                      A                      A                      A
 Frequencies --   1008.5184              1041.7493              1088.3674
 Red. masses --      1.9458                 2.2501                 1.8950
 Frc consts  --      1.1661                 1.4387                 1.3225
 IR Inten    --      1.3054                 6.1489                16.5317

                     40                     41                     42
                      A                      A                      A
 Frequencies --   1116.0685              1167.7500              1170.1372
 Red. masses --      2.4210                 2.5986                 1.3714
 Frc consts  --      1.7768                 2.0878                 1.1063
 IR Inten    --     43.3661               252.8846                20.5303

                     43                     44                     45
                      A                      A                      A
 Frequencies --   1180.1871              1235.4185              1244.3041
 Red. masses --      1.4738                 1.3310                 2.5030
 Frc consts  --      1.2094                 1.1969                 2.2834
 IR Inten    --     21.5948                15.5447                 0.2801

                     46                     47                     48
                      A                      A                      A
 Frequencies --   1272.7867              1323.4743              1337.5821
 Red. masses --      1.3864                 1.6283                 1.4448
 Frc consts  --      1.3233                 1.6804                 1.5230
 IR Inten    --      8.0315                28.0907                 4.8827

                     49                     50                     51
                      A                      A                      A
 Frequencies --   1355.4492              1368.9003              1374.9000
 Red. masses --      1.3010                 1.6155                 2.0443
 Frc consts  --      1.4083                 1.7836                 2.2769
 IR Inten    --      0.5820                 7.5340                23.6522

                     52                     53                     54
                      A                      A                      A
 Frequencies --   1400.0214              1419.3210              1440.2644
 Red. masses --      1.7117                 2.2518                 1.3053
 Frc consts  --      1.9767                 2.6726                 1.5953
 IR Inten    --     22.0939               115.9952                10.9934

                     55                     56                     57
                      A                      A                      A
 Frequencies --   1488.3395              1492.4717              1507.0268
 Red. masses --      5.0914                 1.5667                 1.1423
 Frc consts  --      6.6449                 2.0562                 1.5286
 IR Inten    --     45.3407                38.0521                17.6094

                     58                     59                     60
                      A                      A                      A
 Frequencies --   1523.5481              1526.8265              1533.4734
 Red. masses --      1.1686                 1.0682                 1.0842
 Frc consts  --      1.5981                 1.4671                 1.5021
 IR Inten    --     11.5884                11.8485                 3.3381

                     61                     62                     63
                      A                      A                      A
 Frequencies --   1579.4168              1791.4759              1853.4471
 Red. masses --      6.6165                 8.1305                10.2817
 Frc consts  --      9.7246                15.3741                20.8102
 IR Inten    --     22.5491               291.1929               243.4526

                     64                     65                     66
                      A                      A                      A
 Frequencies --   3059.5152              3063.7930              3079.6516
 Red. masses --      1.0429                 1.0642                 1.0794
 Frc consts  --      5.7517                 5.8855                 6.0315
 IR Inten    --     18.9577                23.9973                15.3289

                     67                     68                     69
                      A                      A                      A
 Frequencies --   3103.4866              3122.3373              3131.8629
 Red. masses --      1.0618                 1.1003                 1.0996
 Frc consts  --      6.0256                 6.3202                 6.3544
 IR Inten    --     15.7992                 4.8743                14.1404

                     70                     71                     72
                      A                      A                      A
 Frequencies --   3154.6515              3167.0289              3246.5443
 Red. masses --      1.1029                 1.1019                 1.0939
 Frc consts  --      6.4665                 6.5119                 6.7929
 IR Inten    --     20.7676                11.3310                 1.0188

                     73                     74                     75
                      A                      A                      A
 Frequencies --   3284.1831              3578.7694              3683.0039
 Red. masses --      1.0951                 1.0756                 1.0642
 Frc consts  --      6.9591                 8.1165                 8.5047
 IR Inten    --      2.3166                17.0848                52.5102

 - Thermochemistry -
 -------------------
 Temperature   298.150 Kelvin.  Pressure   1.00000 Atm.
 Atom     1 has atomic number  6 and mass  12.00000

 Molecular mass:   228.05686 amu.
 Principal axes and moments of inertia in atomic units:
                           1         2         3
     Eigenvalues --  2274.764924706.906205720.11249
           X            0.99967  -0.02546  -0.00377
           Y            0.02560   0.99868   0.04458
           Z            0.00263  -0.04466   0.99900
 This molecule is an asymmetric top.
 Rotational symmetry number  1.
 Warning -- assumption of classical behavior for rotation
           may cause significant error
 Rotational temperatures (Kelvin)      0.03808     0.01840     0.01514
 Rotational constants (GHZ):           0.79337     0.38342     0.31551
 Zero-point vibrational energy     557771.7 (Joules/Mol)
                                  133.31063 (Kcal/Mol)
 Warning -- explicit consideration of  22 degrees of freedom as
           vibrations may cause significant error
 Vibrational temperatures:     34.41    50.20    56.14    70.96    96.26
          (Kelvin)            109.53   162.93   276.72   292.07   336.79
                              394.44   478.79   482.45   512.86   552.29
                              595.33   712.03   728.31   808.48   836.22
                              857.14   877.38   934.27   959.34  1018.16
                             1044.33  1060.32  1067.31  1147.50  1177.19
                             1180.77  1191.74  1271.98  1336.39  1386.07
                             1421.18  1451.03  1498.84  1565.92  1605.77
                             1680.13  1683.57  1698.03  1777.49  1790.28
                             1831.26  1904.18  1924.48  1950.19  1969.54
                             1978.17  2014.32  2042.09  2072.22  2141.39
                             2147.33  2168.28  2192.05  2196.76  2206.33
                             2272.43  2577.53  2666.70  4401.96  4408.11
                             4430.93  4465.22  4492.35  4506.05  4538.84
                             4556.65  4671.05  4725.21  5149.05  5299.02

 Zero-point correction=                           0.212444 (Hartree/Particle)
 Thermal correction to Energy=                    0.227428
 Thermal correction to Enthalpy=                  0.228373
 Thermal correction to Gibbs Free Energy=         0.167363
 Sum of electronic and zero-point Energies=          -1083.409099
 Sum of electronic and thermal Energies=             -1083.394115
 Sum of electronic and thermal Enthalpies=           -1083.393171
 Sum of electronic and thermal Free Energies=        -1083.454181

                     E (Thermal)             CV                S
                      KCal/Mol        Cal/Mol-Kelvin    Cal/Mol-Kelvin
 Total                  142.713             54.545            128.406
 Electronic               0.000              0.000              0.000
 Translational            0.889              2.981             42.175
 Rotational               0.889              2.981             32.482
 Vibrational            140.936             48.584             53.749
 Vibration     1          0.593              1.985              6.279
 Vibration     2          0.594              1.983              5.530
 Vibration     3          0.594              1.981              5.308
 Vibration     4          0.595              1.978              4.844
 Vibration     5          0.598              1.970              4.242
 Vibration     6          0.599              1.965              3.988
 Vibration     7          0.607              1.938              3.213
 Vibration     8          0.634              1.850              2.205
 Vibration     9          0.639              1.836              2.106
 Vibration    10          0.654              1.789              1.847
 Vibration    11          0.676              1.721              1.570
 Vibration    12          0.715              1.610              1.247
 Vibration    13          0.716              1.605              1.234
 Vibration    14          0.732              1.562              1.138
 Vibration    15          0.753              1.505              1.024
 Vibration    16          0.777              1.440              0.913
 Vibration    17          0.850              1.261              0.671
 Vibration    18          0.861              1.236              0.643
 Vibration    19          0.918              1.114              0.520
 Vibration    20          0.938              1.072              0.483
 Vibration    21          0.954              1.041              0.457
 Vibration    22          0.969              1.011              0.433

                           ! Non-Optimized Parameters !
 Normal termination of Gaussian 16 at Thu Dec 10 16:46:08 2020.

 ----------------------------------------------------------------------
 # B3LYP/6-311++G(d,p) empiricaldispersion=gd3bj scf=xqc pop=npa geom=c
 heck
 ----------------------------------------------------------------------

 ---------------------------------------
 CID_115731128_JID_5537_Energie_neutraal
 ---------------------------------------
 Structure from the checkpoint file:  "JID_5537.chk"
 Charge =  0 Multiplicity = 1

 SCF Done:  E(RB3LYP) =  -1083.85766827     A.U. after   16 cycles
 Normal termination of Gaussian 16 at Thu Dec 10 16:49:53 2020.

 ----------------------------------------------------------------------
 # B3LYP/6-311++G(d,p) empiricaldispersion=gd3bj scf=xqc pop=npa geom=c
 heck
 ----------------------------------------------------------------------

 -------------------------------------
 CID_115731128_JID_5537_Energie_kation
 -------------------------------------
 Structure from the checkpoint file:  "JID_5537.chk"
 Charge =  1 Multiplicity = 2

 SCF Done:  E(UB3LYP) =  -1083.53650686     A.U. after   33 cycles
 SCF Done:  E(UB3LYP) =  -1083.53650846     a.u. after    2 cycles
 Normal termination of Gaussian 16 at Thu Dec 10 17:07:51 2020.
 Gaussian 16:  ES64L-G16RevA.03 25-Dec-2016

 ----------------------------------------------------------------------
 # B3LYP/6-311++G(d,p) empiricaldispersion=gd3bj scf=xqc pop=npa geom=c
 heck
 ----------------------------------------------------------------------

 ------------------------------------
 CID_115731128_JID_5537_Energie_anion
 ------------------------------------
 Structure from the checkpoint file:  "JID_5537.chk"
 Charge = -1 Multiplicity = 2

                         Standard orientation:
 ---------------------------------------------------------------------
 Center     Atomic      Atomic             Coordinates (Angstroms)
 Number     Number       Type             X           Y           Z
 ---------------------------------------------------------------------
      1          6           0        1.322764   -2.022016   -1.146878
      2          6           0        1.432778   -0.748865   -0.299776
      3          6           0        2.843642   -0.537199    0.255498
      4          8           0        3.479539    0.488521    0.191448
      5          8           0        3.297326   -1.647957    0.887344
      6          7           0        0.990269    0.393994   -1.068934
      7          6           0        0.655118    1.644284   -0.609588
      8          8           0        0.466822    2.567976   -1.390746
      9          6           0        0.405083    1.818717    0.881385
     10          6           0       -1.115812    1.876619    1.143509
     11          6           0       -1.809720    0.620610    0.700159
     12          6           0       -2.732869    0.527499   -0.303726
     13         16           0       -3.221475   -1.120358   -0.535726
     14          6           0       -2.131493   -1.573366    0.750363
     15          7           0       -1.474676   -0.588502    1.290515
     16          1           0        1.953932   -1.956489   -2.040987
     17          1           0        0.284081   -2.154879   -1.462563
     18          1           0        1.637040   -2.894103   -0.570633
     19          1           0        0.772939   -0.872024    0.565868
     20          1           0        4.177142   -1.417854    1.241206
     21          1           0        1.209183    0.391236   -2.058819
     22          1           0        0.855956    1.033030    1.489555
     23          1           0        0.859654    2.769850    1.170670
     24          1           0       -1.287851    2.036200    2.214502
     25          1           0       -1.533075    2.731417    0.604038
     26          1           0       -3.127200    1.322812   -0.919823
     27          1           0       -2.033787   -2.607922    1.057494
 ---------------------------------------------------------------------

 SCF Done:  E(UB3LYP) =  -1083.85098112     A.U. after   33 cycles
 SCF Done:  E(UB3LYP) =  -1083.85098112     a.u. after    1 cycles

 The electronic state is 2-A.
 Alpha  occ. eigenvalues --  -88.76464 -19.06671 -19.01519 -18.98460 -14.23387
 Alpha  occ. eigenvalues --  -14.19713 -10.20188 -10.17039 -10.12651 -10.10605
 Alpha  occ. eigenvalues --  -10.09438 -10.08089 -10.08034 -10.07682 -10.07564
 Alpha  occ. eigenvalues --   -7.85119  -5.81385  -5.81042  -5.80757  -1.00877
 Alpha  occ. eigenvalues --   -0.93646  -0.92105  -0.84846  -0.82705  -0.70028
 Alpha  occ. eigenvalues --   -0.68340  -0.67677  -0.62501  -0.57479  -0.55129
 Alpha  occ. eigenvalues --   -0.51484  -0.48580  -0.47602  -0.43282  -0.41277
 Alpha  occ. eigenvalues --   -0.40202  -0.39204  -0.38510  -0.37134  -0.35224
 Alpha  occ. eigenvalues --   -0.34839  -0.32344  -0.31971  -0.31264  -0.30244
 Alpha  occ. eigenvalues --   -0.29795  -0.29605  -0.28984  -0.28250  -0.27327
 Alpha  occ. eigenvalues --   -0.26081  -0.25459  -0.24017  -0.22675  -0.18683
 Alpha  occ. eigenvalues --   -0.17415  -0.16775  -0.15984  -0.15326  -0.13689
 Alpha  occ. eigenvalues --    0.04562
 Alpha virt. eigenvalues --    0.06182   0.07466   0.07867   0.08370   0.09013
 Alpha virt. eigenvalues --    0.09567   0.10578   0.10929   0.11032   0.11484
 Alpha virt. eigenvalues --    0.11878   0.12727   0.13163   0.13600   0.13842

  Beta  occ. eigenvalues --  -88.76432 -19.06603 -19.01475 -18.98459 -14.23383
  Beta  occ. eigenvalues --  -14.19660 -10.20154 -10.17039 -10.12640 -10.10301
  Beta  occ. eigenvalues --  -10.09441 -10.08089 -10.07866 -10.07675 -10.07538
  Beta  occ. eigenvalues --   -7.85090  -5.81374  -5.81031  -5.80641  -1.00769
  Beta  occ. eigenvalues --   -0.93640  -0.92006  -0.84619  -0.82690  -0.69970
  Beta  occ. eigenvalues --   -0.68128  -0.67620  -0.62290  -0.57373  -0.55005
  Beta  occ. eigenvalues --   -0.51382  -0.48203  -0.47540  -0.43127  -0.41208
  Beta  occ. eigenvalues --   -0.40142  -0.39109  -0.38410  -0.37093  -0.35090
  Beta  occ. eigenvalues --   -0.34763  -0.32295  -0.31903  -0.31186  -0.30105
  Beta  occ. eigenvalues --   -0.29578  -0.29443  -0.28914  -0.27937  -0.27280
  Beta  occ. eigenvalues --   -0.25954  -0.25397  -0.23902  -0.22521  -0.18595
  Beta  occ. eigenvalues --   -0.16813  -0.16594  -0.15949  -0.15306  -0.12718
  Beta virt. eigenvalues --    0.07139   0.07732   0.08384   0.08620   0.08865
  Beta virt. eigenvalues --    0.09132   0.09919   0.10625   0.10906   0.11084
  Beta virt. eigenvalues --    0.11567   0.11919   0.12863   0.13280   0.13852

 Mulliken charges and spin densities:
               1          2
     1  C    0.225658  -0.904776
     2  C   -0.049210  -0.174519
     3  C    0.141853  -0.123986
     4  O   -0.271102   0.021982
     5  O   -0.177062   0.067250
     6  N   -0.074264   0.052397
     7  C   -0.145391   0.029335
     8  O   -0.352963   0.001575
     9  C    0.120779  -0.050420
    10  C   -0.330126  -0.557571
    11  C   -0.338702  -0.118602
    12  C   -0.175339   0.490904
    13  S    0.082017  -0.285818
    14  C    0.022373   0.262631
    15  N    0.001208   0.066466
    16  H   -0.107692   0.255616
    17  H   -0.130908   0.261904
    18  H    0.007565   0.164924
    19  H    0.433916  -0.137529
    20  H   -0.578543   0.883188
    21  H    0.254093   0.025807
    22  H    0.021896   0.157667
    23  H    0.113981   0.101194
    24  H    0.113468   0.052626
    25  H    0.171333   0.001384
    26  H    0.167426   0.070439
    27  H   -0.146264   0.385931
 Sum of Mulliken charges =  -1.00000   1.00000

 Dipole moment (field-independent basis, Debye):
    X=             -5.2792    Y=              1.5448    Z=             -1.4258  Tot=              5.6823
 Quadrupole moment (field-independent basis, Debye-Ang):
   XX=           -161.8628   YY=           -133.4688   ZZ=           -121.4428
   XY=              3.9295   XZ=             -6.8369   YZ=             10.1930

 Summary of Natural Population Analysis:

                                       Natural Population
                Natural  -----------------------------------------------
    Atom  No    Charge         Core      Valence    Rydberg      Total
 -----------------------------------------------------------------------
      C    1   -0.28348      0.99964     2.27768    0.00616     3.28348
      C    2   -0.07153      0.99955     2.05900    0.01298     3.07153
      C    3    0.40715      0.99970     1.56756    0.02560     2.59285
      O    4   -0.30154      0.99987     3.29530    0.00638     4.30154
      O    5   -0.34561      0.99988     3.33859    0.00715     4.34561
      N    6   -0.31419      0.99965     2.80421    0.01032     3.81419
      C    7    0.35505      0.99967     1.62225    0.02303     2.64495
      O    8   -0.32888      0.99988     3.32315    0.00585     4.32888
      C    9   -0.22836      0.99958     2.21955    0.00923     3.22836
      C   10   -0.19392      0.99958     2.18543    0.00891     3.19392
      C   11    0.05296      0.99948     1.93345    0.01411     2.94704
      C   12   -0.17868      0.99944     2.16985    0.00938     3.17868
      S   13    0.17998      4.99947     2.79923    0.02132     7.82002
      C   14   -0.00417      0.99965     1.98712    0.01740     3.00417
      N   15   -0.25422      0.99966     2.74229    0.01226     3.75422
      H   16    0.09658      0.00000     0.40228    0.00114     0.40342
      H   17    0.10683      0.00000     0.39164    0.00153     0.39317
      H   18    0.11227      0.00000     0.38651    0.00122     0.38773
      H   19    0.12948      0.00000     0.36730    0.00322     0.37052
      H   20    0.24541      0.00000     0.22607    0.02852     0.25459
      H   21    0.19111      0.00000     0.30648    0.00241     0.30889
      H   22    0.10554      0.00000     0.39274    0.00172     0.39446
      H   23    0.11101      0.00000     0.38797    0.00102     0.38899
      H   24    0.10357      0.00000     0.39515    0.00128     0.39643
      H   25    0.10548      0.00000     0.39326    0.00126     0.39452
      H   26    0.10846      0.00000     0.39056    0.00098     0.39154
      H   27    0.09372      0.00000     0.40501    0.00127     0.40628
 =======================================================================
   * Total *    0.00000     18.99470    40.76965    0.23565    60.00000

 Normal termination of Gaussian 16 at Thu Dec 10 17:20:41 2020.
