 Gaussian 16, Revision A.03,

 -----------------------------------------------------------
 # opt freq B3LYP/6-31G(d) empiricaldispersion=gd3bj scf=xqc
 -----------------------------------------------------------

 -------------------------------
 CID_130246881_JID_3476_neutraal
 -------------------------------
 Symbolic Z-matrix:
 Charge =  0 Multiplicity = 1

 SCF Done:  E(RB3LYP) =  -886.895301936     A.U. after   19 cycles
 SCF Done:  E(RB3LYP) =  -886.955836638     A.U. after   17 cycles
 SCF Done:  E(RB3LYP) =  -887.028738530     A.U. after   16 cycles
 SCF Done:  E(RB3LYP) =  -887.074556374     A.U. after   14 cycles
 SCF Done:  E(RB3LYP) =  -887.093682789     A.U. after   15 cycles
 SCF Done:  E(RB3LYP) =  -887.104273531     A.U. after   14 cycles
 SCF Done:  E(RB3LYP) =  -887.108997652     A.U. after   14 cycles
 SCF Done:  E(RB3LYP) =  -887.112096346     A.U. after   12 cycles
 SCF Done:  E(RB3LYP) =  -887.115172950     A.U. after   13 cycles
 SCF Done:  E(RB3LYP) =  -887.117275491     A.U. after   13 cycles
 SCF Done:  E(RB3LYP) =  -887.123446303     A.U. after    7 cycles
 SCF Done:  E(RB3LYP) =  -887.123446559     A.U. after    7 cycles
 SCF Done:  E(RB3LYP) =  -887.123446699     A.U. after    7 cycles
 SCF Done:  E(RB3LYP) =  -887.123446687     A.U. after    7 cycles
 SCF Done:  E(RB3LYP) =  -887.123446725     A.U. after    7 cycles
 SCF Done:  E(RB3LYP) =  -887.123446781     A.U. after    6 cycles
 Optimization completed.
    -- Stationary point found.
 Normal termination of Gaussian 16 at Mon Dec 21 14:48:07 2020.

 --------------------------------------------------------------------
 #N Geom=AllCheck Guess=TCheck SCRF=Check GenChk RB3LYP/6-31G(d) Freq
 --------------------------------------------------------------------

 Structure from the checkpoint file:  "JID_3476.chk"
 -------------------------------
 CID_130246881_JID_3476_neutraal
 -------------------------------
 Charge =  0 Multiplicity = 1

 SCF Done:  E(RB3LYP) =  -887.123446781     A.U. after    1 cycles

  Exact polarizability: 182.226  13.371 146.519   2.362   0.088 131.854
 Approx polarizability: 250.189  27.767 212.928   4.578   1.807 199.359

                      1                      2                      3
                      A                      A                      A
 Frequencies --     44.8130                70.6254                78.8386
 Red. masses --      3.0456                 3.0067                 2.0930
 Frc consts  --      0.0036                 0.0088                 0.0077
 IR Inten    --      0.6573                 0.4039                 0.2841

                      4                      5                      6
                      A                      A                      A
 Frequencies --     96.3494               103.5410               114.7248
 Red. masses --      2.6084                 2.3109                 3.0998
 Frc consts  --      0.0143                 0.0146                 0.0240
 IR Inten    --      3.4021                 0.9116                 1.2429

                      7                      8                      9
                      A                      A                      A
 Frequencies --    133.2204               160.0425               175.6168
 Red. masses --      2.3411                 2.0563                 1.4530
 Frc consts  --      0.0245                 0.0310                 0.0264
 IR Inten    --      0.2911                12.4838                25.6733

                     10                     11                     12
                      A                      A                      A
 Frequencies --    189.9647               209.6921               228.3225
 Red. masses --      2.4195                 3.6238                 1.2578
 Frc consts  --      0.0514                 0.0939                 0.0386
 IR Inten    --     30.8055                22.2083                 1.2706

                     13                     14                     15
                      A                      A                      A
 Frequencies --    229.2165               279.0408               288.8803
 Red. masses --      1.2809                 1.8053                 1.3693
 Frc consts  --      0.0397                 0.0828                 0.0673
 IR Inten    --      8.0708                 7.6903                 1.3103

                     16                     17                     18
                      A                      A                      A
 Frequencies --    290.7491               316.2749               325.5250
 Red. masses --      1.8394                 2.2466                 2.0183
 Frc consts  --      0.0916                 0.1324                 0.1260
 IR Inten    --      1.5669                 6.2727                 1.0849

                     19                     20                     21
                      A                      A                      A
 Frequencies --    340.6775               364.9932               432.3014
 Red. masses --      2.2958                 2.4248                 4.5432
 Frc consts  --      0.1570                 0.1903                 0.5002
 IR Inten    --      4.2485                18.0843               126.3347

                     22                     23                     24
                      A                      A                      A
 Frequencies --    462.5437               480.0476               496.8864
 Red. masses --      3.0206                 4.6755                 2.8084
 Frc consts  --      0.3808                 0.6348                 0.4085
 IR Inten    --     13.8840                30.7191                 8.8550

                     25                     26                     27
                      A                      A                      A
 Frequencies --    530.6022               537.0520               659.0171
 Red. masses --      2.4794                 2.1503                 3.0714
 Frc consts  --      0.4113                 0.3654                 0.7859
 IR Inten    --     45.7883                30.5260                 5.8335

                     28                     29                     30
                      A                      A                      A
 Frequencies --    724.8971               770.9266               790.8541
 Red. masses --      5.3440                 1.3967                 1.1728
 Frc consts  --      1.6545                 0.4891                 0.4322
 IR Inten    --      1.6493                 6.3296                 1.4221

                     31                     32                     33
                      A                      A                      A
 Frequencies --    800.9529               841.8100               858.0632
 Red. masses --      1.3518                 1.5850                 2.2472
 Frc consts  --      0.5109                 0.6618                 0.9748
 IR Inten    --      8.6604                 3.8612                30.9355

                     34                     35                     36
                      A                      A                      A
 Frequencies --    876.8178               899.1117               913.8189
 Red. masses --      1.5877                 1.9728                 2.2676
 Frc consts  --      0.7192                 0.9396                 1.1157
 IR Inten    --      2.4676                 1.0766                 0.3821

                     37                     38                     39
                      A                      A                      A
 Frequencies --    921.7321               970.9625               973.5815
 Red. masses --      1.8318                 1.2138                 1.2309
 Frc consts  --      0.9169                 0.6742                 0.6874
 IR Inten    --      4.3226                11.6787                13.3128

                     40                     41                     42
                      A                      A                      A
 Frequencies --    981.2462               993.8534               997.7123
 Red. masses --      1.9467                 1.3228                 1.7043
 Frc consts  --      1.1044                 0.7698                 0.9996
 IR Inten    --     41.0547                21.1442                 1.6605

                     43                     44                     45
                      A                      A                      A
 Frequencies --   1025.2466              1041.1082              1063.3407
 Red. masses --      1.3064                 2.6110                 1.8281
 Frc consts  --      0.8091                 1.6675                 1.2178
 IR Inten    --     43.4465                 3.4208                 1.9534

                     46                     47                     48
                      A                      A                      A
 Frequencies --   1073.0820              1115.6334              1122.8318
 Red. masses --      2.0325                 1.1818                 1.6293
 Frc consts  --      1.3789                 0.8666                 1.2103
 IR Inten    --      8.3162                 7.9127                13.2385

                     49                     50                     51
                      A                      A                      A
 Frequencies --   1144.7830              1151.9864              1159.3954
 Red. masses --      1.5717                 1.9790                 2.0075
 Frc consts  --      1.2136                 1.5474                 1.5899
 IR Inten    --      3.4373                 5.2976                24.8158

                     52                     53                     54
                      A                      A                      A
 Frequencies --   1212.3138              1222.7152              1232.4423
 Red. masses --      2.2386                 2.9298                 1.4276
 Frc consts  --      1.9385                 2.5807                 1.2776
 IR Inten    --     12.6671                91.4459                10.2335

                     55                     56                     57
                      A                      A                      A
 Frequencies --   1250.4575              1290.3167              1300.7342
 Red. masses --      1.4037                 1.2162                 1.2507
 Frc consts  --      1.2932                 1.1930                 1.2467
 IR Inten    --      1.8080                 1.6442                 2.6215

                     58                     59                     60
                      A                      A                      A
 Frequencies --   1308.6202              1333.2660              1349.8685
 Red. masses --      1.2533                 1.2153                 1.2313
 Frc consts  --      1.2645                 1.2728                 1.3218
 IR Inten    --      3.3271                18.6428                 5.0878

                     61                     62                     63
                      A                      A                      A
 Frequencies --   1351.6959              1359.4871              1374.7365
 Red. masses --      1.1759                 1.4512                 1.3153
 Frc consts  --      1.2658                 1.5803                 1.4646
 IR Inten    --      5.5811                 0.4012                 5.5228

                     64                     65                     66
                      A                      A                      A
 Frequencies --   1375.9987              1395.9611              1406.6013
 Red. masses --      1.3045                 1.2665                 1.3257
 Frc consts  --      1.4552                 1.4541                 1.5454
 IR Inten    --      5.8039                31.1316                30.7065

                     67                     68                     69
                      A                      A                      A
 Frequencies --   1421.9912              1423.4743              1437.4676
 Red. masses --      1.2676                 1.2335                 1.2341
 Frc consts  --      1.5102                 1.4726                 1.5025
 IR Inten    --      9.7995                19.5617                 2.1192

                     70                     71                     72
                      A                      A                      A
 Frequencies --   1477.1403              1490.8041              1496.6835
 Red. masses --      1.0554                 1.0780                 1.1034
 Frc consts  --      1.3567                 1.4116                 1.4562
 IR Inten    --      4.0367                 0.7993                 3.1526

                     73                     74                     75
                      A                      A                      A
 Frequencies --   1504.0445              1515.1376              1518.9412
 Red. masses --      1.0693                 1.0634                 1.0854
 Frc consts  --      1.4251                 1.4384                 1.4754
 IR Inten    --      1.3839                 1.6519                 5.5812

                     76                     77                     78
                      A                      A                      A
 Frequencies --   1522.1300              1524.3992              1525.8175
 Red. masses --      1.0513                 1.0574                 1.0483
 Frc consts  --      1.4351                 1.4478                 1.4380
 IR Inten    --      6.0135                 2.8486                 6.0649

                     79                     80                     81
                      A                      A                      A
 Frequencies --   1529.0614              1534.2320              1535.2498
 Red. masses --      1.0568                 1.0986                 1.0626
 Frc consts  --      1.4558                 1.5236                 1.4756
 IR Inten    --      0.9748                 2.6183                 5.0261

                     82                     83                     84
                      A                      A                      A
 Frequencies --   1539.1256              1542.3060              2896.4590
 Red. masses --      1.0534                 1.0542                 1.0747
 Frc consts  --      1.4703                 1.4775                 5.3120
 IR Inten    --      0.6782                 1.2922               135.3040

                     85                     86                     87
                      A                      A                      A
 Frequencies --   2940.5343              2990.1004              3035.0777
 Red. masses --      1.0826                 1.0843                 1.0421
 Frc consts  --      5.5152                 5.7116                 5.6557
 IR Inten    --     80.7616                50.0152                 8.8092

                     88                     89                     90
                      A                      A                      A
 Frequencies --   3036.1435              3036.8852              3038.7516
 Red. masses --      1.0634                 1.0397                 1.0455
 Frc consts  --      5.7755                 5.6493                 5.6883
 IR Inten    --     37.8369                42.7409                58.7653

                     91                     92                     93
                      A                      A                      A
 Frequencies --   3039.7140              3050.2793              3052.5198
 Red. masses --      1.0488                 1.0610                 1.0623
 Frc consts  --      5.7095                 5.8163                 5.8321
 IR Inten    --      8.2804                22.7784                24.5084

                     94                     95                     96
                      A                      A                      A
 Frequencies --   3074.1864              3076.4765              3086.8648
 Red. masses --      1.1007                 1.0342                 1.0957
 Frc consts  --      6.1291                 5.7671                 6.1513
 IR Inten    --     10.5622                18.2756                64.2484

                     97                     98                     99
                      A                      A                      A
 Frequencies --   3093.9809              3098.5257              3099.3989
 Red. masses --      1.1008                 1.1034                 1.0981
 Frc consts  --      6.2086                 6.2415                 6.2149
 IR Inten    --     60.7169                31.7748                57.0541

                    100                    101                    102
                      A                      A                      A
 Frequencies --   3100.0272              3112.9694              3117.0761
 Red. masses --      1.1014                 1.1007                 1.0966
 Frc consts  --      6.2365                 6.2847                 6.2777
 IR Inten    --     51.8960                63.6222                40.0231

                    103                    104                    105
                      A                      A                      A
 Frequencies --   3122.5741              3123.7171              3125.9827
 Red. masses --      1.1043                 1.0978                 1.0673
 Frc consts  --      6.3438                 6.3113                 6.1450
 IR Inten    --     33.7089                26.3099                 4.5059

                    106                    107                    108
                      A                      A                      A
 Frequencies --   3163.2933              3182.2750              3228.2209
 Red. masses --      1.1041                 1.1080                 1.1044
 Frc consts  --      6.5095                 6.6112                 6.7811
 IR Inten    --      4.8239                 2.6651                 0.7173

 - Thermochemistry -
 -------------------
 Temperature   298.150 Kelvin.  Pressure   1.00000 Atm.
 Atom     1 has atomic number  6 and mass  12.00000

 Molecular mass:   203.17077 amu.
 Principal axes and moments of inertia in atomic units:
                           1         2         3
     Eigenvalues --  2044.747423937.730524526.57009
           X            0.99994  -0.00899  -0.00690
           Y            0.00898   0.99996  -0.00163
           Z            0.00691   0.00157   0.99997
 This molecule is an asymmetric top.
 Rotational symmetry number  1.
 Warning -- assumption of classical behavior for rotation
           may cause significant error
 Rotational temperatures (Kelvin)      0.04236     0.02200     0.01913
 Rotational constants (GHZ):           0.88262     0.45832     0.39870
 Zero-point vibrational energy     915613.1 (Joules/Mol)
                                  218.83679 (Kcal/Mol)
 Warning -- explicit consideration of  26 degrees of freedom as
           vibrations may cause significant error
 Vibrational temperatures:     64.48   101.61   113.43   138.63   148.97
          (Kelvin)            165.06   191.67   230.27   252.67   273.32
                              301.70   328.51   329.79   401.48   415.63
                              418.32   455.05   468.36   490.16   525.14
                              621.99   665.50   690.68   714.91   763.42
                              772.70   948.18  1042.97  1109.19  1137.86
                             1152.39  1211.18  1234.56  1261.55  1293.62
                             1314.78  1326.17  1397.00  1400.77  1411.79
                             1429.93  1435.49  1475.10  1497.92  1529.91
                             1543.93  1605.15  1615.50  1647.09  1657.45
                             1668.11  1744.25  1759.21  1773.21  1799.13
                             1856.48  1871.47  1882.81  1918.27  1942.16
                             1944.79  1956.00  1977.94  1979.76  2008.48
                             2023.79  2045.93  2048.06  2068.20  2125.28
                             2144.93  2153.39  2163.98  2179.95  2185.42
                             2190.01  2193.27  2195.31  2199.98  2207.42
                             2208.88  2214.46  2219.03  4167.36  4230.77
                             4302.09  4366.80  4368.33  4369.40  4372.09
                             4373.47  4388.67  4391.90  4423.07  4426.36
                             4441.31  4451.55  4458.09  4459.34  4460.25
                             4478.87  4484.78  4492.69  4494.33  4497.59
                             4551.27  4578.58  4644.69

 Zero-point correction=                           0.348739 (Hartree/Particle)
 Thermal correction to Energy=                    0.365929
 Thermal correction to Enthalpy=                  0.366874
 Thermal correction to Gibbs Free Energy=         0.304979
 Sum of electronic and zero-point Energies=           -886.774708
 Sum of electronic and thermal Energies=              -886.757517
 Sum of electronic and thermal Enthalpies=            -886.756573
 Sum of electronic and thermal Free Energies=         -886.818468

                     E (Thermal)             CV                S
                      KCal/Mol        Cal/Mol-Kelvin    Cal/Mol-Kelvin
 Total                  229.624             64.578            130.268
 Electronic               0.000              0.000              0.000
 Translational            0.889              2.981             41.831
 Rotational               0.889              2.981             31.966
 Vibrational            227.847             58.617             56.471
 Vibration     1          0.595              1.979              5.034
 Vibration     2          0.598              1.968              4.136
 Vibration     3          0.600              1.963              3.920
 Vibration     4          0.603              1.952              3.527
 Vibration     5          0.605              1.946              3.387
 Vibration     6          0.608              1.937              3.187
 Vibration     7          0.613              1.920              2.899
 Vibration     8          0.622              1.891              2.549
 Vibration     9          0.628              1.872              2.375
 Vibration    10          0.633              1.854              2.228
 Vibration    11          0.642              1.826              2.046
 Vibration    12          0.651              1.798              1.892
 Vibration    13          0.652              1.796              1.885
 Vibration    14          0.679              1.712              1.540
 Vibration    15          0.685              1.694              1.481
 Vibration    16          0.687              1.691              1.470
 Vibration    17          0.703              1.643              1.329
 Vibration    18          0.710              1.624              1.282
 Vibration    19          0.720              1.594              1.209
 Vibration    20          0.738              1.544              1.101
 Vibration    21          0.793              1.400              0.851
 Vibration    22          0.820              1.333              0.759
 Vibration    23          0.836              1.294              0.710
 Vibration    24          0.852              1.257              0.666
 Vibration    25          0.886              1.182              0.586
 Vibration    26          0.892              1.168              0.572

 Optimization completed.
    -- Stationary point found.
 Normal termination of Gaussian 16 at Mon Dec 21 15:01:20 2020.

 ----------------------------------------------------------------------
 # B3LYP/6-311++G(d,p) empiricaldispersion=gd3bj scf=xqc pop=npa geom=c
 heck
 ----------------------------------------------------------------------

 ---------------------------------------
 CID_130246881_JID_3476_Energie_neutraal
 ---------------------------------------
 Structure from the checkpoint file:  "JID_3476.chk"
 Charge =  0 Multiplicity = 1

 SCF Done:  E(RB3LYP) =  -887.291186992     A.U. after   16 cycles
 Normal termination of Gaussian 16 at Mon Dec 21 15:09:28 2020.

 ----------------------------------------------------------------------
 # B3LYP/6-311++G(d,p) empiricaldispersion=gd3bj scf=xqc pop=npa geom=c
 heck
 ----------------------------------------------------------------------

 -------------------------------------
 CID_130246881_JID_3476_Energie_kation
 -------------------------------------
 Structure from the checkpoint file:  "JID_3476.chk"
 Charge =  1 Multiplicity = 2

 SCF Done:  E(UB3LYP) =  -887.077065191     A.U. after   19 cycles
 Normal termination of Gaussian 16 at Mon Dec 21 15:22:55 2020.
 Gaussian 16:  ES64L-G16RevA.03 25-Dec-2016

 ----------------------------------------------------------------------
 # B3LYP/6-311++G(d,p) empiricaldispersion=gd3bj scf=xqc pop=npa geom=c
 heck
 ----------------------------------------------------------------------

 ------------------------------------
 CID_130246881_JID_3476_Energie_anion
 ------------------------------------
 Structure from the checkpoint file:  "JID_3476.chk"
 Charge = -1 Multiplicity = 2

                         Standard orientation:
 ---------------------------------------------------------------------
 Center     Atomic      Atomic             Coordinates (Angstroms)
 Number     Number       Type             X           Y           Z
 ---------------------------------------------------------------------
      1          6           0        3.711760   -1.935221   -0.276283
      2          6           0        2.438585   -1.355133    0.346886
      3          6           0        2.004219    0.016350   -0.215677
      4          6           0        1.706475   -0.071077   -1.730613
      5          7           0        0.916173    0.561808    0.583139
      6          6           0        1.011667    1.970115    0.891367
      7          6           0        1.118542    2.986457   -0.266977
      8         16           0       -0.862765   -0.531844    0.418271
      9          6           0       -1.598823    0.860315   -0.573235
     10          6           0       -3.025334    0.528545   -1.008941
     11          6           0       -3.152207   -1.001311   -1.048162
     12          6           0       -2.602250   -1.461609    0.289481
     13          6           0       -1.100569   -0.221530    2.200879
     14          1           0        3.573261   -2.191159   -1.332623
     15          1           0        4.026096   -2.848294    0.242950
     16          1           0        4.540614   -1.217917   -0.216311
     17          1           0        1.612562   -2.069078    0.227255
     18          1           0        2.579160   -1.225373    1.426755
     19          1           0        2.877194    0.684948   -0.101554
     20          1           0        0.900106   -0.790014   -1.925072
     21          1           0        1.395987    0.902281   -2.122379
     22          1           0        2.580813   -0.397311   -2.306913
     23          1           0        0.139099    2.245314    1.506687
     24          1           0        1.886955    2.153351    1.547879
     25          1           0        0.257612    2.937020   -0.942876
     26          1           0        1.183368    4.010231    0.125023
     27          1           0        2.018788    2.806812   -0.864507
     28          1           0       -1.520044    1.759867    0.037402
     29          1           0       -0.906853    0.960299   -1.409692
     30          1           0       -3.242012    0.994556   -1.976613
     31          1           0       -3.744893    0.928918   -0.284199
     32          1           0       -2.543227   -1.402609   -1.870416
     33          1           0       -4.186008   -1.318961   -1.226415
     34          1           0       -2.386778   -2.533097    0.345629
     35          1           0       -3.284528   -1.189285    1.103867
     36          1           0       -0.134268    0.084640    2.591955
     37          1           0       -1.860193    0.551403    2.346891
     38          1           0       -1.444180   -1.155089    2.650607
 ---------------------------------------------------------------------

 SCF Done:  E(UB3LYP) =  -887.278538293     A.U. after   30 cycles

 The electronic state is 2-A.
 Alpha  occ. eigenvalues --  -88.81736 -14.13274 -10.09854 -10.09249 -10.08115
 Alpha  occ. eigenvalues --  -10.07602 -10.07013 -10.06745 -10.06481 -10.06002
 Alpha  occ. eigenvalues --  -10.05465 -10.05084 -10.04994  -7.89354  -5.85538
 Alpha  occ. eigenvalues --   -5.85497  -5.85015  -0.77236  -0.74218  -0.67964
 Alpha  occ. eigenvalues --   -0.67172  -0.62449  -0.62400  -0.59540  -0.57559
 Alpha  occ. eigenvalues --   -0.53595  -0.49632  -0.48439  -0.47581  -0.43845
 Alpha  occ. eigenvalues --   -0.38801  -0.37988  -0.36364  -0.34959  -0.34264
 Alpha  occ. eigenvalues --   -0.33682  -0.33258  -0.32918  -0.32495  -0.30707
 Alpha  occ. eigenvalues --   -0.29607  -0.28737  -0.28311  -0.27421  -0.26724
 Alpha  occ. eigenvalues --   -0.26316  -0.25709  -0.25036  -0.24320  -0.24109
 Alpha  occ. eigenvalues --   -0.23472  -0.22654  -0.22122  -0.21777  -0.20466
 Alpha  occ. eigenvalues --   -0.10015  -0.06159   0.04377
 Alpha virt. eigenvalues --    0.06651   0.06930   0.07219   0.08348   0.08675
 Alpha virt. eigenvalues --    0.08894   0.09299   0.09550   0.10380   0.10918
 Alpha virt. eigenvalues --    0.11120   0.11463   0.11641   0.12216   0.12769

  Beta  occ. eigenvalues --  -88.81733 -14.13273 -10.09840 -10.09212 -10.08112
  Beta  occ. eigenvalues --  -10.07592 -10.06972 -10.06720 -10.06475 -10.05972
  Beta  occ. eigenvalues --  -10.05460 -10.05073 -10.04985  -7.89351  -5.85535
  Beta  occ. eigenvalues --   -5.85491  -5.85010  -0.77219  -0.74194  -0.67933
  Beta  occ. eigenvalues --   -0.67147  -0.62420  -0.62359  -0.59522  -0.57483
  Beta  occ. eigenvalues --   -0.53573  -0.49567  -0.48402  -0.47490  -0.43820
  Beta  occ. eigenvalues --   -0.38766  -0.37929  -0.36342  -0.34931  -0.34247
  Beta  occ. eigenvalues --   -0.33648  -0.33227  -0.32884  -0.32479  -0.30669
  Beta  occ. eigenvalues --   -0.29568  -0.28721  -0.28300  -0.27399  -0.26702
  Beta  occ. eigenvalues --   -0.26281  -0.25655  -0.25019  -0.24304  -0.24056
  Beta  occ. eigenvalues --   -0.23426  -0.22621  -0.22109  -0.21753  -0.20442
  Beta  occ. eigenvalues --   -0.09994  -0.06152
  Beta virt. eigenvalues --    0.06353   0.07222   0.07542   0.07611   0.08937
  Beta virt. eigenvalues --    0.09040   0.09214   0.09570   0.09761   0.10719
  Beta virt. eigenvalues --    0.11173   0.11444   0.11646   0.12093   0.12396

 Mulliken charges and spin densities:
               1          2
     1  C   -0.235708  -0.514239
     2  C   -0.190090   0.108374
     3  C   -0.133317  -0.066449
     4  C   -0.291454  -0.296382
     5  N   -0.041716  -0.020292
     6  C    0.124886  -0.110087
     7  C   -0.158120  -0.335925
     8  S   -0.440221   1.197097
     9  C   -0.823781   0.486505
    10  C    1.682101  -2.276397
    11  C   -0.265639  -0.065488
    12  C   -0.313299  -0.184941
    13  C    1.329180  -1.974828
    14  H    0.093039   0.042157
    15  H    0.042716   0.085509
    16  H    0.076714   0.046750
    17  H   -0.009684   0.133963
    18  H    0.062086   0.104573
    19  H    0.142197  -0.043006
    20  H    0.030915   0.126709
    21  H    0.057688   0.076550
    22  H   -0.026648   0.130677
    23  H   -0.082878   0.218573
    24  H    0.030970   0.075159
    25  H   -0.129000   0.257364
    26  H   -0.030303   0.149639
    27  H    0.073027   0.055520
    28  H    0.145556   0.072178
    29  H    0.487550  -0.297819
    30  H   -0.456271   0.637382
    31  H   -0.385659   0.561143
    32  H    0.081131   0.048537
    33  H   -0.652835   0.853137
    34  H   -0.221369   0.408750
    35  H   -0.192260   0.343080
    36  H    0.084353   0.088571
    37  H   -0.296335   0.527039
    38  H   -0.167522   0.350920
 Sum of Mulliken charges =  -1.00000   1.00000

 Dipole moment (field-independent basis, Debye):
    X=              7.1546    Y=             -0.4868    Z=             -0.5825  Tot=              7.1948
 Quadrupole moment (field-independent basis, Debye-Ang):
   XX=           -172.7260   YY=           -137.5897   ZZ=           -134.1201
   XY=             -0.0792   XZ=             -0.7889   YZ=              0.9902

 Summary of Natural Population Analysis:

                                       Natural Population
                Natural  -----------------------------------------------
    Atom  No    Charge         Core      Valence    Rydberg      Total
 -----------------------------------------------------------------------
      C    1   -0.28726      0.99967     2.28345    0.00414     3.28726
      C    2   -0.19257      0.99961     2.18328    0.00968     3.19257
      C    3   -0.00576      0.99958     1.99336    0.01283     3.00576
      C    4   -0.29753      0.99964     2.29158    0.00631     3.29753
      N    5   -0.43003      0.99971     2.91003    0.02029     3.93003
      C    6   -0.08760      0.99961     2.07378    0.01421     3.08760
      C    7   -0.29749      0.99966     2.29273    0.00509     3.29749
      S    8    0.43845      4.99947     2.52937    0.03270     7.56155
      C    9   -0.24651      0.99959     2.23560    0.01132     3.24651
      C   10   -0.19991      0.99962     2.19008    0.01022     3.19991
      C   11   -0.19961      0.99962     2.19064    0.00934     3.19961
      C   12   -0.28997      0.99961     2.27864    0.01172     3.28997
      C   13   -0.34422      0.99962     2.33715    0.00745     3.34422
      H   14    0.09408      0.00000     0.40473    0.00119     0.40592
      H   15    0.09553      0.00000     0.40364    0.00083     0.40447
      H   16    0.09240      0.00000     0.40654    0.00106     0.40760
      H   17    0.09509      0.00000     0.40340    0.00151     0.40491
      H   18    0.09760      0.00000     0.40108    0.00132     0.40240
      H   19    0.07779      0.00000     0.42007    0.00214     0.42221
      H   20    0.09547      0.00000     0.40326    0.00127     0.40453
      H   21    0.09865      0.00000     0.40015    0.00120     0.40135
      H   22    0.09266      0.00000     0.40636    0.00097     0.40734
      H   23    0.08611      0.00000     0.41228    0.00161     0.41389
      H   24    0.07608      0.00000     0.42245    0.00147     0.42392
      H   25    0.09293      0.00000     0.40559    0.00148     0.40707
      H   26    0.09305      0.00000     0.40558    0.00136     0.40695
      H   27    0.09224      0.00000     0.40625    0.00151     0.40776
      H   28    0.11082      0.00000     0.38722    0.00196     0.38918
      H   29    0.11171      0.00000     0.38651    0.00177     0.38829
      H   30    0.10660      0.00000     0.39158    0.00182     0.39340
      H   31    0.10164      0.00000     0.39525    0.00310     0.39836
      H   32    0.09335      0.00000     0.40516    0.00149     0.40665
      H   33    0.10503      0.00000     0.39320    0.00177     0.39497
      H   34    0.09884      0.00000     0.39942    0.00175     0.40116
      H   35    0.09644      0.00000     0.40099    0.00257     0.40356
      H   36    0.11975      0.00000     0.37863    0.00162     0.38025
      H   37    0.10789      0.00000     0.38991    0.00220     0.39211
      H   38    0.10824      0.00000     0.39024    0.00152     0.39176
 =======================================================================
   * Total *   -0.00000     16.99502    39.80918    0.19580    57.00000

 Normal termination of Gaussian 16 at Mon Dec 21 15:44:07 2020.
