 Gaussian 16, Revision A.03,

 -----------------------------------------------------------
 # opt freq B3LYP/6-31G(d) empiricaldispersion=gd3bj scf=xqc
 -----------------------------------------------------------

 -------------------------------
 CID_141730273_JID_6739_neutraal
 -------------------------------
 Symbolic Z-matrix:
 Charge =  0 Multiplicity = 1

 SCF Done:  E(RB3LYP) =  -739.055692884     A.U. after   14 cycles
 SCF Done:  E(RB3LYP) =  -739.067706760     A.U. after   13 cycles
 SCF Done:  E(RB3LYP) =  -739.049838197     A.U. after   15 cycles
 SCF Done:  E(RB3LYP) =  -739.068476371     A.U. after   13 cycles
 SCF Done:  E(RB3LYP) =  -739.073694263     A.U. after   13 cycles
 SCF Done:  E(RB3LYP) =  -739.075087817     A.U. after   12 cycles
 SCF Done:  E(RB3LYP) =  -739.076788245     A.U. after   13 cycles
 SCF Done:  E(RB3LYP) =  -739.076469493     A.U. after   13 cycles
 SCF Done:  E(RB3LYP) =  -739.077707613     A.U. after   12 cycles
 SCF Done:  E(RB3LYP) =  -739.077966763     A.U. after   11 cycles
 SCF Done:  E(RB3LYP) =  -739.078216659     A.U. after    8 cycles
 SCF Done:  E(RB3LYP) =  -739.078217434     A.U. after    8 cycles
 SCF Done:  E(RB3LYP) =  -739.078217656     A.U. after    8 cycles
 SCF Done:  E(RB3LYP) =  -739.078217690     A.U. after    7 cycles
 SCF Done:  E(RB3LYP) =  -739.078217709     A.U. after    7 cycles
 Optimization completed.
    -- Stationary point found.
 Normal termination of Gaussian 16 at Thu Dec 10 23:11:18 2020.

 --------------------------------------------------------------------
 #N Geom=AllCheck Guess=TCheck SCRF=Check GenChk RB3LYP/6-31G(d) Freq
 --------------------------------------------------------------------

 Structure from the checkpoint file:  "JID_6739.chk"
 -------------------------------
 CID_141730273_JID_6739_neutraal
 -------------------------------
 Charge =  0 Multiplicity = 1

 SCF Done:  E(RB3LYP) =  -739.078217709     A.U. after    1 cycles

  Exact polarizability: 161.139   1.397 167.264 -23.902   7.817  93.163
 Approx polarizability: 219.745   7.013 269.137 -45.002  16.295 154.274

                      1                      2                      3
                      A                      A                      A
 Frequencies --     13.5162                23.7087                58.2862
 Red. masses --      5.3660                 4.2404                 4.6150
 Frc consts  --      0.0006                 0.0014                 0.0092
 IR Inten    --      0.1108                 0.3728                 0.0905

                      4                      5                      6
                      A                      A                      A
 Frequencies --     77.3825                91.1468               117.8199
 Red. masses --      4.7930                 5.2650                 5.7026
 Frc consts  --      0.0169                 0.0258                 0.0466
 IR Inten    --      1.8474                 2.2520                 1.9215

                      7                      8                      9
                      A                      A                      A
 Frequencies --    175.1124               209.0966               221.0249
 Red. masses --      3.2760                 7.8283                 4.5649
 Frc consts  --      0.0592                 0.2017                 0.1314
 IR Inten    --     10.6118                15.8729                 7.1532

                     10                     11                     12
                      A                      A                      A
 Frequencies --    262.8554               294.3960               314.7986
 Red. masses --      3.5629                 1.7437                 3.0046
 Frc consts  --      0.1450                 0.0890                 0.1754
 IR Inten    --      0.7106                58.8050                33.3600

                     13                     14                     15
                      A                      A                      A
 Frequencies --    348.1707               368.2431               400.0177
 Red. masses --      2.4520                 2.3708                 2.8052
 Frc consts  --      0.1751                 0.1894                 0.2645
 IR Inten    --     38.5396                 8.9300                 8.0881

                     16                     17                     18
                      A                      A                      A
 Frequencies --    416.5064               418.8815               426.0134
 Red. masses --      2.9539                 2.8863                 1.2082
 Frc consts  --      0.3019                 0.2984                 0.1292
 IR Inten    --      1.2342                10.1190               215.1940

                     19                     20                     21
                      A                      A                      A
 Frequencies --    441.8516               505.8090               509.6902
 Red. masses --      1.1740                 2.8746                 3.8739
 Frc consts  --      0.1350                 0.4333                 0.5929
 IR Inten    --     35.8443                16.7244                23.1659

                     22                     23                     24
                      A                      A                      A
 Frequencies --    541.6528               572.2583               590.2309
 Red. masses --      1.3225                 3.2302                 2.8198
 Frc consts  --      0.2286                 0.6233                 0.5788
 IR Inten    --    131.7532                20.3824                19.3088

                     25                     26                     27
                      A                      A                      A
 Frequencies --    638.6939               640.0781               703.9629
 Red. masses --      5.9701                 2.1573                 3.6100
 Frc consts  --      1.4349                 0.5208                 1.0540
 IR Inten    --      6.3394               170.8365                 8.4732

                     28                     29                     30
                      A                      A                      A
 Frequencies --    713.3975               739.1057               755.7518
 Red. masses --      1.7693                 3.1178                 5.7733
 Frc consts  --      0.5305                 1.0035                 1.9428
 IR Inten    --     32.2340               175.8454                39.6336

                     31                     32                     33
                      A                      A                      A
 Frequencies --    767.9531               794.3990               853.6040
 Red. masses --      1.8823                 3.5693                 2.0024
 Frc consts  --      0.6541                 1.3271                 0.8597
 IR Inten    --     17.0479                 2.1607                 5.3279

                     34                     35                     36
                      A                      A                      A
 Frequencies --    856.9093               909.3485               916.1575
 Red. masses --      1.4416                 1.6271                 1.4085
 Frc consts  --      0.6237                 0.7927                 0.6966
 IR Inten    --      2.5484                87.4237                13.1865

                     37                     38                     39
                      A                      A                      A
 Frequencies --    955.5510               962.1055               988.2646
 Red. masses --      1.6503                 1.4349                 1.2414
 Frc consts  --      0.8878                 0.7826                 0.7143
 IR Inten    --     10.6971                 6.6713                 0.0642

                     40                     41                     42
                      A                      A                      A
 Frequencies --   1000.5794              1021.3191              1022.9601
 Red. masses --      2.2514                 3.0945                 6.1618
 Frc consts  --      1.3280                 1.9018                 3.7990
 IR Inten    --      3.0179                 9.2006                 0.2827

                     43                     44                     45
                      A                      A                      A
 Frequencies --   1058.2072              1062.7565              1084.5936
 Red. masses --      1.9534                 2.1185                 2.3045
 Frc consts  --      1.2888                 1.4098                 1.5972
 IR Inten    --     17.1652                 0.7596                14.1232

                     46                     47                     48
                      A                      A                      A
 Frequencies --   1119.9519              1169.7563              1187.9853
 Red. masses --      1.5677                 4.3787                 2.1018
 Frc consts  --      1.1585                 3.5301                 1.7477
 IR Inten    --      3.7653                60.9842                 9.8503

                     49                     50                     51
                      A                      A                      A
 Frequencies --   1192.7299              1214.0994              1214.8279
 Red. masses --      1.0971                 1.3571                 1.3751
 Frc consts  --      0.9195                 1.1786                 1.1957
 IR Inten    --      0.0247                 3.9950                 3.3213

                     52                     53                     54
                      A                      A                      A
 Frequencies --   1218.8208              1239.1749              1287.6608
 Red. masses --      1.4164                 2.5035                 1.2221
 Frc consts  --      1.2397                 2.2650                 1.1938
 IR Inten    --      4.9020                 4.4293                 0.9107

                     55                     56                     57
                      A                      A                      A
 Frequencies --   1356.0361              1362.6149              1368.6320
 Red. masses --      1.6842                 3.5557                 1.4706
 Frc consts  --      1.8247                 3.8898                 1.6230
 IR Inten    --     36.7024                 5.2278                 2.7246

                     58                     59                     60
                      A                      A                      A
 Frequencies --   1384.8508              1408.4012              1436.2172
 Red. masses --      1.3939                 1.4094                 4.2397
 Frc consts  --      1.5750                 1.6472                 5.1526
 IR Inten    --      9.7251               102.7998               183.1900

                     61                     62                     63
                      A                      A                      A
 Frequencies --   1504.1421              1513.4374              1521.8799
 Red. masses --      2.1259                 1.1257                 1.1079
 Frc consts  --      2.8338                 1.5192                 1.5118
 IR Inten    --      5.7151                15.8038                15.8732

                     64                     65                     66
                      A                      A                      A
 Frequencies --   1545.4568              1549.5581              1603.8073
 Red. masses --      2.4589                 2.2517                 1.8594
 Frc consts  --      3.4603                 3.1855                 2.8179
 IR Inten    --    173.5877                11.6678               177.3293

                     67                     68                     69
                      A                      A                      A
 Frequencies --   1636.9410              1647.5964              1653.8570
 Red. masses --      1.8009                 5.3584                 1.3550
 Frc consts  --      2.8432                 8.5701                 2.1837
 IR Inten    --    211.8334                 3.1240               130.9814

                     70                     71                     72
                      A                      A                      A
 Frequencies --   1669.3172              1673.3155              1703.1014
 Red. masses --      3.6383                 1.7240                 2.9108
 Frc consts  --      5.9735                 2.8440                 4.9745
 IR Inten    --     73.9713               218.5596               372.6267

                     73                     74                     75
                      A                      A                      A
 Frequencies --   2777.7691              2947.4717              3001.7079
 Red. masses --      1.0790                 1.0663                 1.0925
 Frc consts  --      4.9055                 5.4581                 5.7996
 IR Inten    --    582.0586                48.3410                37.3494

                     76                     77                     78
                      A                      A                      A
 Frequencies --   3050.8679              3096.7591              3168.9240
 Red. masses --      1.0625                 1.1026                 1.0867
 Frc consts  --      5.8265                 6.2298                 6.4293
 IR Inten    --     47.4897                22.2971                10.8321

                     79                     80                     81
                      A                      A                      A
 Frequencies --   3179.7000              3189.4285              3197.8552
 Red. masses --      1.0857                 1.0903                 1.0938
 Frc consts  --      6.4676                 6.5345                 6.5904
 IR Inten    --      0.8075                17.3810                48.2501

                     82                     83                     84
                      A                      A                      A
 Frequencies --   3208.5425              3548.2771              3569.2002
 Red. masses --      1.0980                 1.0490                 1.0776
 Frc consts  --      6.6597                 7.7814                 8.0884
 IR Inten    --     19.9603                22.5859                20.1808

                     85                     86                     87
                      A                      A                      A
 Frequencies --   3587.0506              3661.0158              3699.1528
 Red. masses --      1.0464                 1.0976                 1.1013
 Frc consts  --      7.9331                 8.6674                 8.8786
 IR Inten    --     27.3750                25.0870                24.0406

 - Thermochemistry -
 -------------------
 Temperature   298.150 Kelvin.  Pressure   1.00000 Atm.
 Atom     1 has atomic number  6 and mass  12.00000

 Molecular mass:   221.12766 amu.
 Principal axes and moments of inertia in atomic units:
                           1         2         3
     Eigenvalues --  2082.642005365.747666754.61471
           X            0.99999  -0.00299  -0.00355
           Y            0.00303   0.99993   0.01138
           Z            0.00351  -0.01139   0.99993
 This molecule is an asymmetric top.
 Rotational symmetry number  1.
 Warning -- assumption of classical behavior for rotation
           may cause significant error
 Rotational temperatures (Kelvin)      0.04159     0.01614     0.01282
 Rotational constants (GHZ):           0.86656     0.33634     0.26719
 Zero-point vibrational energy     676560.4 (Joules/Mol)
                                  161.70181 (Kcal/Mol)
 Warning -- explicit consideration of  24 degrees of freedom as
           vibrations may cause significant error
 Vibrational temperatures:     19.45    34.11    83.86   111.34   131.14
          (Kelvin)            169.52   251.95   300.84   318.01   378.19
                              423.57   452.93   500.94   529.82   575.54
                              599.26   602.68   612.94   635.73   727.75
                              733.33   779.32   823.35   849.21   918.94
                              920.93  1012.85  1026.42  1063.41  1087.36
                             1104.91  1142.96  1228.15  1232.90  1308.35
                             1318.15  1374.82  1384.26  1421.89  1439.61
                             1469.45  1471.81  1522.52  1529.07  1560.49
                             1611.36  1683.02  1709.25  1716.07  1746.82
                             1747.87  1753.61  1782.90  1852.66  1951.03
                             1960.50  1969.16  1992.49  2026.38  2066.40
                             2164.13  2177.50  2189.65  2223.57  2229.47
                             2307.52  2355.19  2370.52  2379.53  2401.78
                             2407.53  2450.38  3996.59  4240.75  4318.79
                             4389.52  4455.55  4559.37  4574.88  4588.88
                             4601.00  4616.38  5105.18  5135.28  5160.97
                             5267.39  5322.26

 Zero-point correction=                           0.257688 (Hartree/Particle)
 Thermal correction to Energy=                    0.273115
 Thermal correction to Enthalpy=                  0.274059
 Thermal correction to Gibbs Free Energy=         0.213074
 Sum of electronic and zero-point Energies=           -738.820529
 Sum of electronic and thermal Energies=              -738.805103
 Sum of electronic and thermal Enthalpies=            -738.804158
 Sum of electronic and thermal Free Energies=         -738.865144

                     E (Thermal)             CV                S
                      KCal/Mol        Cal/Mol-Kelvin    Cal/Mol-Kelvin
 Total                  171.382             59.210            128.355
 Electronic               0.000              0.000              0.000
 Translational            0.889              2.981             42.083
 Rotational               0.889              2.981             32.690
 Vibrational            169.605             53.248             53.582
 Vibration     1          0.593              1.986              7.412
 Vibration     2          0.593              1.985              6.296
 Vibration     3          0.596              1.974              4.514
 Vibration     4          0.599              1.964              3.956
 Vibration     5          0.602              1.955              3.635
 Vibration     6          0.608              1.935              3.136
 Vibration     7          0.627              1.873              2.380
 Vibration     8          0.642              1.827              2.052
 Vibration     9          0.648              1.809              1.951
 Vibration    10          0.670              1.741              1.643
 Vibration    11          0.689              1.684              1.449
 Vibration    12          0.702              1.645              1.337
 Vibration    13          0.726              1.579              1.174
 Vibration    14          0.741              1.538              1.087
 Vibration    15          0.766              1.470              0.963
 Vibration    16          0.780              1.434              0.904
 Vibration    17          0.782              1.429              0.896
 Vibration    18          0.788              1.414              0.872
 Vibration    19          0.802              1.379              0.821
 Vibration    20          0.861              1.237              0.644
 Vibration    21          0.865              1.229              0.634
 Vibration    22          0.897              1.158              0.562
 Vibration    23          0.928              1.091              0.500
 Vibration    24          0.948              1.053              0.467

                           ! Non-Optimized Parameters !
 Normal termination of Gaussian 16 at Thu Dec 10 23:20:49 2020.

 ----------------------------------------------------------------------
 # B3LYP/6-311++G(d,p) empiricaldispersion=gd3bj scf=xqc pop=npa geom=c
 heck
 ----------------------------------------------------------------------

 ---------------------------------------
 CID_141730273_JID_6739_Energie_neutraal
 ---------------------------------------
 Structure from the checkpoint file:  "JID_6739.chk"
 Charge =  0 Multiplicity = 1

 SCF Done:  E(RB3LYP) =  -739.307810909     A.U. after   15 cycles
 Normal termination of Gaussian 16 at Thu Dec 10 23:24:29 2020.

 ----------------------------------------------------------------------
 # B3LYP/6-311++G(d,p) empiricaldispersion=gd3bj scf=xqc pop=npa geom=c
 heck
 ----------------------------------------------------------------------

 -------------------------------------
 CID_141730273_JID_6739_Energie_kation
 -------------------------------------
 Structure from the checkpoint file:  "JID_6739.chk"
 Charge =  1 Multiplicity = 2

 SCF Done:  E(UB3LYP) =  -739.020108621     A.U. after   30 cycles
 Normal termination of Gaussian 16 at Thu Dec 10 23:34:13 2020.
 Gaussian 16:  ES64L-G16RevA.03 25-Dec-2016

 ----------------------------------------------------------------------
 # B3LYP/6-311++G(d,p) empiricaldispersion=gd3bj scf=xqc pop=npa geom=c
 heck
 ----------------------------------------------------------------------

 ------------------------------------
 CID_141730273_JID_6739_Energie_anion
 ------------------------------------
 Structure from the checkpoint file:  "JID_6739.chk"
 Charge = -1 Multiplicity = 2

                         Standard orientation:
 ---------------------------------------------------------------------
 Center     Atomic      Atomic             Coordinates (Angstroms)
 Number     Number       Type             X           Y           Z
 ---------------------------------------------------------------------
      1          6           0       -3.656166   -1.490590    0.513883
      2          6           0       -2.695392   -1.743061   -0.465205
      3          6           0       -1.957271   -0.692747   -1.009921
      4          6           0       -2.162702    0.625032   -0.585871
      5          6           0       -3.130019    0.865409    0.398065
      6          6           0       -3.871877   -0.180678    0.945108
      7          6           0       -1.331423    1.757660   -1.137947
      8          6           0       -0.104926    2.084011   -0.269086
      9          7           0        0.799242    0.950416   -0.217439
     10          6           0        2.004189    1.141462    0.247545
     11          7           0        2.456757    2.366432    0.706325
     12          7           0        3.009321    0.203759    0.225586
     13          6           0        2.809075   -1.061100   -0.029310
     14          7           0        3.852786   -1.794488   -0.582472
     15          7           0        1.706678   -1.820438    0.188943
     16          8           0        0.615271   -1.367497    0.895418
     17          1           0       -4.232585   -2.307747    0.938555
     18          1           0       -2.517705   -2.760296   -0.803554
     19          1           0       -1.201196   -0.891354   -1.764531
     20          1           0       -3.304106    1.885150    0.735354
     21          1           0       -4.620229    0.026540    1.705454
     22          1           0       -0.976872    1.507999   -2.144139
     23          1           0       -1.943935    2.664127   -1.222924
     24          1           0        0.397743    2.968503   -0.692784
     25          1           0       -0.456606    2.369483    0.739711
     26          1           0        3.341957    2.324975    1.191665
     27          1           0        1.773870    2.990127    1.111496
     28          1           0        4.045729   -2.685325   -0.139093
     29          1           0        4.679704   -1.223282   -0.703002
     30          1           0        1.518631   -2.606513   -0.421838
     31          1           0        0.379019   -0.494554    0.416117
 ---------------------------------------------------------------------

 SCF Done:  E(UB3LYP) =  -739.297204087     A.U. after   33 cycles
 SCF Done:  E(UB3LYP) =  -739.297204087     a.u. after    1 cycles

 The electronic state is 2-A.
 Alpha  occ. eigenvalues --  -19.03682 -14.28363 -14.22449 -14.22398 -14.18559
 Alpha  occ. eigenvalues --  -14.18030 -10.18576 -10.16796 -10.09916 -10.08869
 Alpha  occ. eigenvalues --  -10.08595 -10.08421 -10.08361 -10.08183 -10.07906
 Alpha  occ. eigenvalues --  -10.07823  -0.98409  -0.88283  -0.85112  -0.77509
 Alpha  occ. eigenvalues --   -0.76505  -0.76051  -0.72752  -0.68842  -0.65572
 Alpha  occ. eigenvalues --   -0.62687  -0.56472  -0.53147  -0.51673  -0.49543
 Alpha  occ. eigenvalues --   -0.48051  -0.45340  -0.45086  -0.42552  -0.42217
 Alpha  occ. eigenvalues --   -0.40241  -0.39062  -0.37743  -0.36723  -0.35301
 Alpha  occ. eigenvalues --   -0.35011  -0.33174  -0.33013  -0.31458  -0.30794
 Alpha  occ. eigenvalues --   -0.29165  -0.28000  -0.26611  -0.25999  -0.25005
 Alpha  occ. eigenvalues --   -0.24443  -0.21712  -0.18511  -0.16935  -0.16578
 Alpha  occ. eigenvalues --   -0.15981  -0.15601  -0.13986  -0.12865   0.04064
 Alpha virt. eigenvalues --    0.05543   0.06318   0.07224   0.07346   0.07558
 Alpha virt. eigenvalues --    0.08033   0.08673   0.09133   0.09356   0.09943
 Alpha virt. eigenvalues --    0.10535   0.11073   0.11746   0.12324   0.12898

  Beta  occ. eigenvalues --  -19.03674 -14.28339 -14.22413 -14.22321 -14.18549
  Beta  occ. eigenvalues --  -14.18026 -10.18558 -10.16786 -10.09896 -10.08864
  Beta  occ. eigenvalues --  -10.08590 -10.08413 -10.08355 -10.08172 -10.07898
  Beta  occ. eigenvalues --  -10.07815  -0.98387  -0.88248  -0.85053  -0.77480
  Beta  occ. eigenvalues --   -0.76456  -0.76010  -0.72688  -0.68818  -0.65553
  Beta  occ. eigenvalues --   -0.62656  -0.56410  -0.53103  -0.51651  -0.49512
  Beta  occ. eigenvalues --   -0.48018  -0.45269  -0.45019  -0.42513  -0.42178
  Beta  occ. eigenvalues --   -0.40166  -0.39018  -0.37719  -0.36684  -0.35266
  Beta  occ. eigenvalues --   -0.34986  -0.33147  -0.32969  -0.31427  -0.30766
  Beta  occ. eigenvalues --   -0.29129  -0.27967  -0.26584  -0.25949  -0.24985
  Beta  occ. eigenvalues --   -0.24420  -0.21684  -0.18485  -0.16878  -0.16540
  Beta  occ. eigenvalues --   -0.15954  -0.15562  -0.13946  -0.12853
  Beta virt. eigenvalues --    0.06056   0.06772   0.07090   0.07423   0.07571
  Beta virt. eigenvalues --    0.08007   0.08337   0.08856   0.09424   0.09727
  Beta virt. eigenvalues --    0.10459   0.10957   0.11393   0.12108   0.12409

 Mulliken charges and spin densities:
               1          2
     1  C    0.153318  -0.558724
     2  C   -0.073562  -0.218386
     3  C   -0.601913   0.494968
     4  C    0.095851   0.825430
     5  C   -0.243058  -0.096584
     6  C   -0.022365  -0.222619
     7  C    0.800848  -1.557357
     8  C    0.257466  -0.629799
     9  N   -0.275081   0.016790
    10  C   -0.002432  -0.102267
    11  N   -0.258314  -0.072316
    12  N   -0.125666  -0.070632
    13  C    0.801893  -0.705404
    14  N   -0.411434   0.115562
    15  N   -0.422344  -0.046663
    16  O   -0.082357   0.002643
    17  H    0.101038   0.034965
    18  H   -0.114455   0.286060
    19  H    0.038810   0.126506
    20  H   -0.276282   0.429091
    21  H   -0.053726   0.216500
    22  H    0.138194   0.025112
    23  H   -0.092543   0.261053
    24  H   -0.007190   0.160773
    25  H   -0.085769   0.255224
    26  H   -0.024217   0.304402
    27  H   -0.119765   0.382289
    28  H   -0.570602   0.835743
    29  H   -0.065069   0.332424
    30  H   -0.025923   0.328471
    31  H    0.566647  -0.153256
 Sum of Mulliken charges =  -1.00000   1.00000

 Dipole moment (field-independent basis, Debye):
    X=             -5.8775    Y=              1.4288    Z=             -1.0765  Tot=              6.1437
 Quadrupole moment (field-independent basis, Debye-Ang):
   XX=           -171.0404   YY=           -149.9026   ZZ=           -120.7545
   XY=             16.6057   XZ=             -0.0251   YZ=             -2.2949

 Summary of Natural Population Analysis:

                                       Natural Population
                Natural  -----------------------------------------------
    Atom  No    Charge         Core      Valence    Rydberg      Total
 -----------------------------------------------------------------------
      C    1   -0.10740      0.99956     2.09819    0.00965     3.10740
      C    2   -0.09662      0.99956     2.08703    0.01002     3.09662
      C    3   -0.09670      0.99951     2.08781    0.00938     3.09670
      C    4   -0.01382      0.99950     2.00341    0.01091     3.01382
      C    5   -0.10287      0.99951     2.09333    0.01002     3.10287
      C    6   -0.10154      0.99957     2.09260    0.00938     3.10154
      C    7   -0.19601      0.99959     2.18633    0.01009     3.19601
      C    8   -0.09188      0.99961     2.08035    0.01192     3.09188
      N    9   -0.34630      0.99963     2.83533    0.01134     3.84630
      C   10    0.32011      0.99960     1.66366    0.01663     2.67989
      N   11   -0.40110      0.99971     2.89271    0.00868     3.90110
      N   12   -0.33180      0.99960     2.82054    0.01166     3.83180
      C   13    0.31652      0.99961     1.66700    0.01687     2.68348
      N   14   -0.39862      0.99972     2.88947    0.00944     3.89862
      N   15   -0.15076      0.99961     2.63562    0.01554     3.65076
      O   16   -0.29160      0.99989     3.28368    0.00802     4.29160
      H   17    0.09836      0.00000     0.40088    0.00077     0.40164
      H   18    0.10021      0.00000     0.39883    0.00096     0.39979
      H   19    0.10390      0.00000     0.39474    0.00136     0.39610
      H   20    0.10034      0.00000     0.39853    0.00113     0.39966
      H   21    0.09867      0.00000     0.40052    0.00082     0.40133
      H   22    0.10198      0.00000     0.39676    0.00126     0.39802
      H   23    0.10119      0.00000     0.39776    0.00105     0.39881
      H   24    0.09136      0.00000     0.40717    0.00146     0.40864
      H   25    0.08585      0.00000     0.41223    0.00193     0.41415
      H   26    0.19582      0.00000     0.30189    0.00229     0.30418
      H   27    0.19094      0.00000     0.30681    0.00225     0.30906
      H   28    0.19487      0.00000     0.28983    0.01529     0.30513
      H   29    0.19536      0.00000     0.30154    0.00311     0.30464
      H   30    0.18910      0.00000     0.30841    0.00249     0.31090
      H   31    0.24246      0.00000     0.25241    0.00514     0.25754
 =======================================================================
   * Total *   -0.00000     15.99378    42.78534    0.22087    59.00000

 Normal termination of Gaussian 16 at Thu Dec 10 23:45:00 2020.
