 Gaussian 16, Revision A.03,

 -----------------------------------------------------------
 # opt freq B3LYP/6-31G(d) empiricaldispersion=gd3bj scf=xqc
 -----------------------------------------------------------

 ------------------------------
 CID_65565812_JID_6667_neutraal
 ------------------------------
 Symbolic Z-matrix:
 Charge =  0 Multiplicity = 1

 SCF Done:  E(RB3LYP) =  -1449.45973461     A.U. after   15 cycles
 SCF Done:  E(RB3LYP) =  -1449.46699425     A.U. after   13 cycles
 SCF Done:  E(RB3LYP) =  -1449.46796712     A.U. after   13 cycles
 SCF Done:  E(RB3LYP) =  -1449.46821127     A.U. after   13 cycles
 SCF Done:  E(RB3LYP) =  -1449.46833676     A.U. after   12 cycles
 SCF Done:  E(RB3LYP) =  -1449.46838973     A.U. after   10 cycles
 SCF Done:  E(RB3LYP) =  -1449.46840861     A.U. after   10 cycles
 SCF Done:  E(RB3LYP) =  -1449.46841469     A.U. after   10 cycles
 SCF Done:  E(RB3LYP) =  -1449.46841930     A.U. after   10 cycles
 SCF Done:  E(RB3LYP) =  -1449.46842006     A.U. after    8 cycles
 SCF Done:  E(RB3LYP) =  -1449.46842025     A.U. after    8 cycles
 SCF Done:  E(RB3LYP) =  -1449.46842025     A.U. after    8 cycles
 SCF Done:  E(RB3LYP) =  -1449.46842021     A.U. after    7 cycles
 Optimization completed.
    -- Stationary point found.
 Normal termination of Gaussian 16 at Mon Dec 14 13:16:36 2020.

 --------------------------------------------------------------------
 #N Geom=AllCheck Guess=TCheck SCRF=Check GenChk RB3LYP/6-31G(d) Freq
 --------------------------------------------------------------------

 Structure from the checkpoint file:  "JID_6667.chk"
 ------------------------------
 CID_65565812_JID_6667_neutraal
 ------------------------------
 Charge =  0 Multiplicity = 1

 SCF Done:  E(RB3LYP) =  -1449.46842021     A.U. after    1 cycles

  Exact polarizability: 166.442   3.052 161.505  -7.089  -6.332 133.057
 Approx polarizability: 206.218  20.747 268.549 -17.732 -16.917 218.787

 ******    1 imaginary frequencies (negative Signs) ******

                      1                      2                      3
                      A                      A                      A
 Frequencies --     -6.7316                18.0516                43.1789
 Red. masses --      3.9506                 7.4490                 4.3942
 Frc consts  --      0.0001                 0.0014                 0.0048
 IR Inten    --      0.0964                 0.6342                 1.0250

                      4                      5                      6
                      A                      A                      A
 Frequencies --     55.4678                83.1420               111.2598
 Red. masses --      5.7153                 3.8365                 4.6854
 Frc consts  --      0.0104                 0.0156                 0.0342
 IR Inten    --      4.5778                 1.6698                 5.1842

                      7                      8                      9
                      A                      A                      A
 Frequencies --    136.8307               179.8520               193.2887
 Red. masses --      3.2865                 5.6453                 2.5209
 Frc consts  --      0.0363                 0.1076                 0.0555
 IR Inten    --      1.7902                 6.6404                 2.7095

                     10                     11                     12
                      A                      A                      A
 Frequencies --    209.8095               239.9342               261.7996
 Red. masses --      3.2801                 1.1824                 3.2399
 Frc consts  --      0.0851                 0.0401                 0.1308
 IR Inten    --      0.0478                 0.3931                 3.0478

                     13                     14                     15
                      A                      A                      A
 Frequencies --    281.0696               294.5415               304.9628
 Red. masses --      4.9161                 3.7138                 2.2884
 Frc consts  --      0.2288                 0.1898                 0.1254
 IR Inten    --      0.0924                 2.5898                 0.2646

                     16                     17                     18
                      A                      A                      A
 Frequencies --    331.6353               350.7757               405.3073
 Red. masses --      2.5714                 2.9078                 2.4304
 Frc consts  --      0.1666                 0.2108                 0.2352
 IR Inten    --      2.0170                 5.8141                 3.4809

                     19                     20                     21
                      A                      A                      A
 Frequencies --    427.6243               439.7190               445.2428
 Red. masses --      2.4747                 2.5911                 3.5063
 Frc consts  --      0.2666                 0.2952                 0.4095
 IR Inten    --      1.5642                 5.7483                 4.9136

                     22                     23                     24
                      A                      A                      A
 Frequencies --    468.8870               470.8325               487.0918
 Red. masses --      2.3920                 3.4170                 3.0185
 Frc consts  --      0.3098                 0.4463                 0.4219
 IR Inten    --     10.7838                 9.3440                 5.3847

                     25                     26                     27
                      A                      A                      A
 Frequencies --    509.7044               558.7895               566.3565
 Red. masses --      5.5452                 2.1890                 1.4211
 Frc consts  --      0.8488                 0.4027                 0.2686
 IR Inten    --     24.2277                67.5781               318.4068

                     28                     29                     30
                      A                      A                      A
 Frequencies --    607.0696               646.6592               648.8086
 Red. masses --      2.9556                 1.4740                 1.3678
 Frc consts  --      0.6418                 0.3631                 0.3392
 IR Inten    --     97.9983                 2.4092                 7.2525

                     31                     32                     33
                      A                      A                      A
 Frequencies --    729.8715               777.5633               799.5029
 Red. masses --      4.1257                 2.6326                 1.9415
 Frc consts  --      1.2949                 0.9378                 0.7312
 IR Inten    --      2.0241                11.0059                 3.8020

                     34                     35                     36
                      A                      A                      A
 Frequencies --    801.6335               813.5614               884.5084
 Red. masses --      2.1520                 3.4254                 2.3739
 Frc consts  --      0.8148                 1.3358                 1.0943
 IR Inten    --      4.4621                 7.9103                26.5526

                     37                     38                     39
                      A                      A                      A
 Frequencies --    894.9721               931.8916               942.9143
 Red. masses --      2.6300                 1.9175                 1.5411
 Frc consts  --      1.2411                 0.9811                 0.8073
 IR Inten    --     46.8078                40.6162                 7.0159

                     40                     41                     42
                      A                      A                      A
 Frequencies --    955.9526               974.3282               985.8985
 Red. masses --      1.4162                 1.7978                 2.3063
 Frc consts  --      0.7625                 1.0055                 1.3208
 IR Inten    --      2.9299                21.8126                 1.2447

                     43                     44                     45
                      A                      A                      A
 Frequencies --   1006.8132              1019.1095              1019.5049
 Red. masses --      1.6926                 1.8166                 1.8286
 Frc consts  --      1.0109                 1.1116                 1.1198
 IR Inten    --     10.4671                19.5368                15.1787

                     46                     47                     48
                      A                      A                      A
 Frequencies --   1062.2792              1078.2000              1103.1737
 Red. masses --      1.8837                 3.6863                 6.2647
 Frc consts  --      1.2524                 2.5249                 4.4920
 IR Inten    --      2.5512                67.3375               102.5764

                     49                     50                     51
                      A                      A                      A
 Frequencies --   1112.2966              1116.5192              1136.8697
 Red. masses --      1.5029                 2.5334                 1.3419
 Frc consts  --      1.0955                 1.8608                 1.0219
 IR Inten    --      0.4092                 2.7946                 1.0676

                     52                     53                     54
                      A                      A                      A
 Frequencies --   1166.9196              1182.1934              1187.9886
 Red. masses --      1.2293                 1.6963                 2.0731
 Frc consts  --      0.9862                 1.3968                 1.7238
 IR Inten    --     49.1595                13.5754                 1.3236

                     55                     56                     57
                      A                      A                      A
 Frequencies --   1241.8564              1251.1579              1265.0877
 Red. masses --      1.4646                 1.4708                 1.3175
 Frc consts  --      1.3308                 1.3565                 1.2423
 IR Inten    --      1.6303                23.1735                 2.0333

                     58                     59                     60
                      A                      A                      A
 Frequencies --   1293.3975              1305.7202              1323.6258
 Red. masses --      1.3094                 1.2373                 4.2791
 Frc consts  --      1.2906                 1.2429                 4.4171
 IR Inten    --     11.8885                 0.2466               130.8724

                     61                     62                     63
                      A                      A                      A
 Frequencies --   1333.3355              1350.8805              1352.7349
 Red. masses --      1.3242                 1.2931                 2.4349
 Frc consts  --      1.3870                 1.3903                 2.6251
 IR Inten    --      5.5950                 1.0909                69.6870

                     64                     65                     66
                      A                      A                      A
 Frequencies --   1357.6013              1380.9769              1397.4427
 Red. masses --      1.3112                 1.4479                 1.3962
 Frc consts  --      1.4238                 1.6269                 1.6065
 IR Inten    --      0.1061                 2.7015                 7.7199

                     67                     68                     69
                      A                      A                      A
 Frequencies --   1401.8792              1404.0820              1418.9261
 Red. masses --      1.4458                 1.5018                 1.4189
 Frc consts  --      1.6741                 1.7444                 1.6832
 IR Inten    --      0.5358                 8.6822                 7.0049

                     70                     71                     72
                      A                      A                      A
 Frequencies --   1430.0251              1441.2941              1450.7126
 Red. masses --      1.4504                 1.2422                 1.4023
 Frc consts  --      1.7476                 1.5204                 1.7389
 IR Inten    --      5.5599                 1.8848                11.8790

                     73                     74                     75
                      A                      A                      A
 Frequencies --   1455.7216              1477.0829              1513.5216
 Red. masses --      2.6088                 1.1585                 1.0833
 Frc consts  --      3.2573                 1.4893                 1.4620
 IR Inten    --    209.1733                29.8061                 3.4059

                     76                     77                     78
                      A                      A                      A
 Frequencies --   1519.0038              1526.4438              1529.1302
 Red. masses --      1.0912                 1.0719                 1.0595
 Frc consts  --      1.4834                 1.4715                 1.4597
 IR Inten    --      6.1429                 6.9399                 1.9172

                     79                     80                     81
                      A                      A                      A
 Frequencies --   1530.8113              1535.0797              1540.9932
 Red. masses --      1.0607                 1.0843                 1.0882
 Frc consts  --      1.4644                 1.5055                 1.5225
 IR Inten    --      8.8951                 9.2716                 8.8726

                     82                     83                     84
                      A                      A                      A
 Frequencies --   1680.5492              2995.9022              3021.3588
 Red. masses --      1.2596                 1.0817                 1.0657
 Frc consts  --      2.0960                 5.7201                 5.7320
 IR Inten    --    148.2228                 9.6319                15.4799

                     85                     86                     87
                      A                      A                      A
 Frequencies --   3028.8147              3032.0257              3035.5603
 Red. masses --      1.0633                 1.0623                 1.0630
 Frc consts  --      5.7470                 5.7541                 5.7713
 IR Inten    --     17.8958                34.0572                18.5957

                     88                     89                     90
                      A                      A                      A
 Frequencies --   3039.7593              3060.5452              3062.4858
 Red. masses --      1.0388                 1.0864                 1.0922
 Frc consts  --      5.6553                 5.9958                 6.0353
 IR Inten    --     40.1517                17.2740                40.1616

                     91                     92                     93
                      A                      A                      A
 Frequencies --   3068.1071              3069.4434              3072.2985
 Red. masses --      1.0766                 1.0941                 1.0939
 Frc consts  --      5.9711                 6.0731                 6.0833
 IR Inten    --     64.6069                37.5436                 9.1803

                     94                     95                     96
                      A                      A                      A
 Frequencies --   3079.8697              3092.2821              3103.6560
 Red. masses --      1.0976                 1.0677                 1.1012
 Frc consts  --      6.1344                 6.0154                 6.2499
 IR Inten    --     71.3427                 2.3867                59.3109

                     97                     98                     99
                      A                      A                      A
 Frequencies --   3110.5835              3117.2539              3197.1131
 Red. masses --      1.1025                 1.1046                 1.0981
 Frc consts  --      6.2850                 6.3239                 6.6132
 IR Inten    --     33.7944                26.1135                 0.5319

                    100                    101                    102
                      A                      A                      A
 Frequencies --   3504.9995              3541.5916              3662.6234
 Red. masses --      1.0522                 1.0746                 1.0984
 Frc consts  --      7.6161                 7.9417                 8.6815
 IR Inten    --    115.6351                29.3347                70.0571

 - Thermochemistry -
 -------------------
 Temperature   298.150 Kelvin.  Pressure   1.00000 Atm.
 Atom     1 has atomic number  6 and mass  12.00000

 Molecular mass:   264.09662 amu.
 Principal axes and moments of inertia in atomic units:
                           1         2         3
     Eigenvalues --  2615.009428092.518409377.97263
           X            1.00000  -0.00024  -0.00239
           Y            0.00023   0.99998  -0.00629
           Z            0.00239   0.00629   0.99998
 This molecule is an asymmetric top.
 Rotational symmetry number  1.
 Warning -- assumption of classical behavior for rotation
           may cause significant error
 Rotational temperatures (Kelvin)      0.03312     0.01070     0.00924
 Rotational constants (GHZ):           0.69015     0.22301     0.19244
    1 imaginary frequencies ignored.
 Zero-point vibrational energy     813864.4 (Joules/Mol)
                                  194.51826 (Kcal/Mol)
 Warning -- explicit consideration of  27 degrees of freedom as
           vibrations may cause significant error
 Vibrational temperatures:     25.97    62.12    79.81   119.62   160.08
          (Kelvin)            196.87   258.77   278.10   301.87   345.21
                              376.67   404.40   423.78   438.77   477.15
                              504.69   583.15   615.26   632.66   640.61
                              674.62   677.42   700.82   733.35   803.97
                              814.86   873.44   930.40   933.49  1050.12
                             1118.74  1150.31  1153.37  1170.53  1272.61
                             1287.67  1340.78  1356.64  1375.40  1401.84
                             1418.49  1448.58  1466.27  1466.84  1528.38
                             1551.29  1587.22  1600.35  1606.42  1635.70
                             1678.94  1700.91  1709.25  1786.75  1800.14
                             1820.18  1860.91  1878.64  1904.40  1918.37
                             1943.62  1946.28  1953.29  1986.92  2010.61
                             2016.99  2020.16  2041.52  2057.49  2073.70
                             2087.25  2094.46  2125.19  2177.62  2185.51
                             2196.21  2200.08  2202.50  2208.64  2217.15
                             2417.94  4310.44  4347.06  4357.79  4362.41
                             4367.49  4373.54  4403.44  4406.23  4414.32
                             4416.24  4420.35  4431.25  4449.10  4465.47
                             4475.44  4485.03  4599.93  5042.91  5095.56
                             5269.70

 Zero-point correction=                           0.309985 (Hartree/Particle)
 Thermal correction to Energy=                    0.326379
 Thermal correction to Enthalpy=                  0.327323
 Thermal correction to Gibbs Free Energy=         0.264965
 Sum of electronic and zero-point Energies=          -1449.158436
 Sum of electronic and thermal Energies=             -1449.142041
 Sum of electronic and thermal Enthalpies=           -1449.141097
 Sum of electronic and thermal Free Energies=        -1449.203456

                     E (Thermal)             CV                S
                      KCal/Mol        Cal/Mol-Kelvin    Cal/Mol-Kelvin
 Total                  204.806             63.809            131.245
 Electronic               0.000              0.000              0.000
 Translational            0.889              2.981             42.613
 Rotational               0.889              2.981             33.650
 Vibrational            203.029             57.847             54.982
 Vibration     1          0.593              1.986              6.838
 Vibration     2          0.595              1.980              5.108
 Vibration     3          0.596              1.975              4.612
 Vibration     4          0.600              1.961              3.815
 Vibration     5          0.607              1.940              3.247
 Vibration     6          0.614              1.917              2.848
 Vibration     7          0.629              1.867              2.330
 Vibration     8          0.635              1.849              2.196
 Vibration     9          0.642              1.826              2.045
 Vibration    10          0.657              1.779              1.803
 Vibration    11          0.669              1.743              1.650
 Vibration    12          0.681              1.709              1.527
 Vibration    13          0.689              1.684              1.448
 Vibration    14          0.696              1.664              1.390
 Vibration    15          0.714              1.612              1.252
 Vibration    16          0.728              1.574              1.163
 Vibration    17          0.770              1.459              0.943
 Vibration    18          0.789              1.410              0.866
 Vibration    19          0.800              1.384              0.827
 Vibration    20          0.805              1.371              0.810
 Vibration    21          0.826              1.319              0.741
 Vibration    22          0.828              1.315              0.735
 Vibration    23          0.843              1.279              0.691
 Vibration    24          0.865              1.228              0.634
 Vibration    25          0.914              1.120              0.526
 Vibration    26          0.922              1.104              0.511
 Vibration    27          0.966              1.017              0.438

                           ! Non-Optimized Parameters !
 Normal termination of Gaussian 16 at Mon Dec 14 13:29:26 2020.

 ----------------------------------------------------------------------
 # B3LYP/6-311++G(d,p) empiricaldispersion=gd3bj scf=xqc pop=npa geom=c
 heck
 ----------------------------------------------------------------------

 --------------------------------------
 CID_65565812_JID_6667_Energie_neutraal
 --------------------------------------
 Structure from the checkpoint file:  "JID_6667.chk"
 Charge =  0 Multiplicity = 1

 SCF Done:  E(RB3LYP) =  -1449.71591378     A.U. after   15 cycles
 Normal termination of Gaussian 16 at Mon Dec 14 13:36:30 2020.

 ----------------------------------------------------------------------
 # B3LYP/6-311++G(d,p) empiricaldispersion=gd3bj scf=xqc pop=npa geom=c
 heck
 ----------------------------------------------------------------------

 ------------------------------------
 CID_65565812_JID_6667_Energie_kation
 ------------------------------------
 Structure from the checkpoint file:  "JID_6667.chk"
 Charge =  1 Multiplicity = 2

 SCF Done:  E(UB3LYP) =  -1449.40325610     A.U. after   28 cycles
 Normal termination of Gaussian 16 at Mon Dec 14 13:55:13 2020.
 Gaussian 16:  ES64L-G16RevA.03 25-Dec-2016

 ----------------------------------------------------------------------
 # B3LYP/6-311++G(d,p) empiricaldispersion=gd3bj scf=xqc pop=npa geom=c
 heck
 ----------------------------------------------------------------------

 -----------------------------------
 CID_65565812_JID_6667_Energie_anion
 -----------------------------------
 Structure from the checkpoint file:  "JID_6667.chk"
 Charge = -1 Multiplicity = 2

                         Standard orientation:
 ---------------------------------------------------------------------
 Center     Atomic      Atomic             Coordinates (Angstroms)
 Number     Number       Type             X           Y           Z
 ---------------------------------------------------------------------
      1          6           0        5.380407   -0.753889   -0.231474
      2          6           0        4.233842    0.174930    0.173255
      3          6           0        3.495031    0.730677   -1.055076
      4          6           0        2.320152    1.638536   -0.662081
      5          6           0        1.325310    0.953932    0.294900
      6          6           0        2.083571    0.395864    1.514830
      7          6           0        3.245053   -0.525853    1.119383
      8          6           0        0.508453   -0.111544   -0.448411
      9          7           0       -0.535339   -0.656124    0.437287
     10         16           0       -1.778835   -1.535224   -0.252525
     11          8           0       -1.346231   -2.354780   -1.386989
     12          8           0       -2.493115   -2.149463    0.882648
     13          6           0       -2.821032   -0.199750   -0.921958
     14          6           0       -3.091765    0.905350    0.078340
     15         16           0       -2.712201    2.483872   -0.270025
     16          7           0       -3.681842    0.495300    1.212430
     17          1           0        5.000039   -1.625882   -0.778703
     18          1           0        6.098099   -0.240130   -0.881563
     19          1           0        5.923781   -1.122478    0.646446
     20          1           0        4.659476    1.032084    0.719339
     21          1           0        4.196204    1.288658   -1.688498
     22          1           0        3.136985   -0.110456   -1.665867
     23          1           0        1.794691    1.993713   -1.557585
     24          1           0        2.715278    2.531928   -0.160114
     25          1           0        0.601578    1.700975    0.642893
     26          1           0        1.398741   -0.118734    2.202354
     27          1           0        2.482933    1.246602    2.083101
     28          1           0        2.861342   -1.431682    0.626793
     29          1           0        3.770371   -0.868776    2.019748
     30          1           0        0.001248    0.369907   -1.289702
     31          1           0        1.134415   -0.911693   -0.858266
     32          1           0       -0.189655   -1.170176    1.244622
     33          1           0       -2.325559    0.196489   -1.805943
     34          1           0       -3.743205   -0.708302   -1.224907
     35          1           0       -3.686328   -0.493558    1.451751
     36          1           0       -3.812960    1.173332    1.951370
 ---------------------------------------------------------------------

 SCF Done:  E(UB3LYP) =  -1449.72322264     A.U. after   30 cycles

 The electronic state is 2-A.
 Alpha  occ. eigenvalues --  -88.95133 -88.65122 -19.01534 -19.01357 -14.24050
 Alpha  occ. eigenvalues --  -14.20218 -10.11117 -10.09592 -10.09476 -10.08748
 Alpha  occ. eigenvalues --  -10.07996 -10.07840 -10.07791 -10.07736 -10.07687
 Alpha  occ. eigenvalues --  -10.07616  -8.01475  -7.73867  -5.97744  -5.97718
 Alpha  occ. eigenvalues --   -5.97513  -5.70206  -5.69774  -5.69444  -1.01517
 Alpha  occ. eigenvalues --   -0.90616  -0.83024  -0.80961  -0.75289  -0.69239
 Alpha  occ. eigenvalues --   -0.66878  -0.65634  -0.61889  -0.58947  -0.57194
 Alpha  occ. eigenvalues --   -0.53006  -0.51287  -0.49408  -0.45892  -0.45681
 Alpha  occ. eigenvalues --   -0.42482  -0.41297  -0.40475  -0.39184  -0.37803
 Alpha  occ. eigenvalues --   -0.36160  -0.35761  -0.35474  -0.34527  -0.33923
 Alpha  occ. eigenvalues --   -0.33266  -0.31900  -0.30288  -0.29864  -0.29210
 Alpha  occ. eigenvalues --   -0.27754  -0.26771  -0.25851  -0.25118  -0.25010
 Alpha  occ. eigenvalues --   -0.24047  -0.23518  -0.22997  -0.22159  -0.21389
 Alpha  occ. eigenvalues --   -0.21174  -0.20801  -0.19441  -0.16988  -0.10261
 Alpha  occ. eigenvalues --   -0.07711   0.03861
 Alpha virt. eigenvalues --    0.05364   0.06975   0.07184   0.07874   0.09089
 Alpha virt. eigenvalues --    0.09565   0.10053   0.10265   0.10654   0.10895
 Alpha virt. eigenvalues --    0.11583   0.12401   0.13114   0.13200   0.13538

  Beta  occ. eigenvalues --  -88.95086 -88.65083 -19.01527 -19.01320 -14.24038
  Beta  occ. eigenvalues --  -14.20081 -10.11115 -10.09608 -10.08792 -10.08741
  Beta  occ. eigenvalues --  -10.07991 -10.07835 -10.07780 -10.07721 -10.07674
  Beta  occ. eigenvalues --  -10.07610  -8.01421  -7.73833  -5.97705  -5.97680
  Beta  occ. eigenvalues --   -5.97425  -5.70209  -5.69627  -5.69423  -1.01424
  Beta  occ. eigenvalues --   -0.90549  -0.82978  -0.80369  -0.75269  -0.69200
  Beta  occ. eigenvalues --   -0.66540  -0.65610  -0.61814  -0.58469  -0.57127
  Beta  occ. eigenvalues --   -0.52954  -0.51135  -0.49378  -0.45726  -0.45319
  Beta  occ. eigenvalues --   -0.42360  -0.41214  -0.40321  -0.39119  -0.37670
  Beta  occ. eigenvalues --   -0.36124  -0.35714  -0.35397  -0.34274  -0.33889
  Beta  occ. eigenvalues --   -0.33034  -0.31826  -0.30190  -0.29736  -0.29179
  Beta  occ. eigenvalues --   -0.27727  -0.26751  -0.25827  -0.25071  -0.24620
  Beta  occ. eigenvalues --   -0.23551  -0.23275  -0.22204  -0.21946  -0.21353
  Beta  occ. eigenvalues --   -0.21115  -0.20648  -0.19071  -0.16921  -0.09029
  Beta  occ. eigenvalues --   -0.07592
  Beta virt. eigenvalues --    0.05664   0.07150   0.07300   0.07922   0.08957
  Beta virt. eigenvalues --    0.09476   0.09804   0.10228   0.10547   0.10648
  Beta virt. eigenvalues --    0.10923   0.11881   0.12368   0.13130   0.13213

 Mulliken charges and spin densities:
               1          2
     1  C   -0.042829  -0.750834
     2  C    0.114170   0.130628
     3  C   -0.207699  -0.162788
     4  C   -0.587983  -0.012210
     5  C    0.497713   0.238887
     6  C   -0.267678  -0.225173
     7  C   -0.336267   0.027592
     8  C   -0.471441  -0.658644
     9  N   -0.062019   0.048269
    10  S    0.365566   0.009293
    11  O   -0.083556   0.004198
    12  O   -0.298467   0.015377
    13  C   -0.776617  -0.088441
    14  C    0.303895   0.306985
    15  S   -0.732887   0.163362
    16  N   -0.284061   0.121836
    17  H    0.113244   0.014243
    18  H   -0.047503   0.176085
    19  H   -0.085526   0.216379
    20  H   -0.031045   0.199153
    21  H    0.096290   0.067767
    22  H    0.083088   0.062318
    23  H    0.093298   0.060447
    24  H    0.022294   0.135768
    25  H    0.083822   0.143716
    26  H   -0.127356   0.265149
    27  H    0.033226   0.123006
    28  H    0.099157   0.059823
    29  H   -0.067362   0.241370
    30  H    0.223930  -0.037463
    31  H    0.236894  -0.013095
    32  H    0.282534   0.023961
    33  H    0.207773  -0.003056
    34  H    0.166672   0.096084
    35  H    0.261916  -0.001077
    36  H    0.224815   0.001085
 Sum of Mulliken charges =  -1.00000   1.00000

 Dipole moment (field-independent basis, Debye):
    X=              3.7800    Y=             -2.5252    Z=             -0.1039  Tot=              4.5471
 Quadrupole moment (field-independent basis, Debye-Ang):
   XX=           -184.8316   YY=           -161.8066   ZZ=           -132.7483
   XY=              9.8484   XZ=             -6.7984   YZ=             -0.3492

 Summary of Natural Population Analysis:

                                       Natural Population
                Natural  -----------------------------------------------
    Atom  No    Charge         Core      Valence    Rydberg      Total
 -----------------------------------------------------------------------
      C    1   -0.28082      0.99965     2.27639    0.00478     3.28082
      C    2   -0.11379      0.99960     2.10383    0.01037     3.11379
      C    3   -0.18900      0.99961     2.18189    0.00749     3.18900
      C    4   -0.18594      0.99961     2.17858    0.00774     3.18594
      C    5   -0.12005      0.99958     2.10862    0.01185     3.12005
      C    6   -0.18964      0.99961     2.18103    0.00900     3.18964
      C    7   -0.19234      0.99961     2.18278    0.00994     3.19234
      C    8   -0.09232      0.99959     2.08140    0.01133     3.09232
      N    9   -0.43115      0.99975     2.91908    0.01232     3.93115
      S   10    1.10401      4.99929     1.79708    0.09961     6.89599
      O   11   -0.46432      0.99990     3.45932    0.00509     4.46432
      O   12   -0.47984      0.99990     3.47352    0.00642     4.47984
      C   13   -0.31271      0.99951     2.29890    0.01431     3.31271
      C   14    0.14884      0.99967     1.83167    0.01983     2.85116
      S   15   -0.13379      4.99953     3.11875    0.01550     8.13379
      N   16   -0.37398      0.99966     2.86291    0.01141     3.87398
      H   17    0.09549      0.00000     0.40358    0.00093     0.40451
      H   18    0.09759      0.00000     0.40146    0.00095     0.40241
      H   19    0.09876      0.00000     0.40025    0.00099     0.40124
      H   20    0.09098      0.00000     0.40709    0.00193     0.40902
      H   21    0.09789      0.00000     0.40116    0.00095     0.40211
      H   22    0.09310      0.00000     0.40568    0.00122     0.40690
      H   23    0.10177      0.00000     0.39731    0.00092     0.39823
      H   24    0.09765      0.00000     0.40128    0.00107     0.40235
      H   25    0.11675      0.00000     0.38179    0.00146     0.38325
      H   26    0.09745      0.00000     0.40149    0.00106     0.40255
      H   27    0.09894      0.00000     0.39990    0.00116     0.40106
      H   28    0.09268      0.00000     0.40603    0.00129     0.40732
      H   29    0.09979      0.00000     0.39927    0.00095     0.40021
      H   30    0.10528      0.00000     0.39354    0.00118     0.39472
      H   31    0.09036      0.00000     0.40824    0.00141     0.40964
      H   32    0.19454      0.00000     0.30255    0.00292     0.30546
      H   33    0.12329      0.00000     0.37588    0.00083     0.37671
      H   34    0.12205      0.00000     0.37685    0.00110     0.37795
      H   35    0.20030      0.00000     0.29837    0.00133     0.29970
      H   36    0.19218      0.00000     0.30660    0.00123     0.30782
 =======================================================================
   * Total *   -0.00000     23.99409    46.72406    0.28185    71.00000

 Normal termination of Gaussian 16 at Mon Dec 14 14:15:15 2020.
