 Gaussian 16, Revision A.03,

 -----------------------------------------------------------
 # opt freq B3LYP/6-31G(d) empiricaldispersion=gd3bj scf=xqc
 -----------------------------------------------------------

 ------------------------------
 CID_57723936_JID_2251_neutraal
 ------------------------------
 Symbolic Z-matrix:
 Charge =  0 Multiplicity = 1

 SCF Done:  E(RB3LYP) =  -498.804346041     A.U. after   18 cycles
 SCF Done:  E(RB3LYP) =  -498.879162069     A.U. after   17 cycles
 SCF Done:  E(RB3LYP) =  -498.922257412     A.U. after   14 cycles
 SCF Done:  E(RB3LYP) =  -498.931139606     A.U. after   15 cycles
 SCF Done:  E(RB3LYP) =  -498.934203572     A.U. after   14 cycles
 SCF Done:  E(RB3LYP) =  -498.935326014     A.U. after   14 cycles
 SCF Done:  E(RB3LYP) =  -498.936077647     A.U. after   13 cycles
 SCF Done:  E(RB3LYP) =  -498.936092502     A.U. after    8 cycles
 SCF Done:  E(RB3LYP) =  -498.936477560     A.U. after   13 cycles
 SCF Done:  E(RB3LYP) =  -498.936323847     A.U. after   12 cycles
 SCF Done:  E(RB3LYP) =  -498.937710134     A.U. after   10 cycles
 SCF Done:  E(RB3LYP) =  -498.937710513     A.U. after    8 cycles
 SCF Done:  E(RB3LYP) =  -498.937710564     A.U. after    9 cycles
 SCF Done:  E(RB3LYP) =  -498.937710643     A.U. after    7 cycles
 SCF Done:  E(RB3LYP) =  -498.937710743     A.U. after    8 cycles
 Optimization completed.
    -- Stationary point found.

 1\1\GINC-NODE362\FOpt\RB3LYP\6-31G(d)\C11H8O1\VSC10255\17-Dec-2020\0\\
 # opt freq B3LYP/6-31G(d) empiricaldispersion=gd3bj scf=xqc\\CID_57723
 936_JID_2251_neutraal\\0,1\C,0.6816663168,-0.1303973576,0.5223356877\C
 ,0.3401445809,-1.4922741362,0.1240146196\C,0.0880829024,-2.6036964659,
 -0.269706893\O,-0.2132394438,-3.8150555153,-0.6909184397\C,0.804002661
 4,-4.4874092389,-1.4846456611\C,0.9684401322,-3.8231384788,-2.87490338
 84\C,1.6867716346,-2.5564863466,-2.8765862569\C,2.3007379623,-1.509356
 5874,-2.8823098505\C,2.9761254096,-0.3216395866,-2.8656522354\C,3.5728

 Normal termination of Gaussian 16 at Thu Dec 17 20:13:53 2020.

 --------------------------------------------------------------------
 #N Geom=AllCheck Guess=TCheck SCRF=Check GenChk RB3LYP/6-31G(d) Freq
 --------------------------------------------------------------------

 Structure from the checkpoint file:  "JID_2251.chk"
 ------------------------------
 CID_57723936_JID_2251_neutraal
 ------------------------------
 Charge =  0 Multiplicity = 1

 SCF Done:  E(RB3LYP) =  -498.937710743     A.U. after    1 cycles

  Exact polarizability: 154.351  17.007  80.921  18.984   0.422  87.397
 Approx polarizability: 282.261  35.534 105.803  63.806   3.145 145.908

                      1                      2                      3
                      A                      A                      A
 Frequencies --     27.6248                49.8670                57.6226
 Red. masses --      4.5067                 4.5758                 5.4278
 Frc consts  --      0.0020                 0.0067                 0.0106
 IR Inten    --      0.9205                 0.3299                 0.4118

                      4                      5                      6
                      A                      A                      A
 Frequencies --     77.5234                81.6830               142.5773
 Red. masses --      3.7408                 1.0628                 5.1168
 Frc consts  --      0.0132                 0.0042                 0.0613
 IR Inten    --      0.5786                 0.1247                 0.3164

                      7                      8                      9
                      A                      A                      A
 Frequencies --    171.9766               197.0071               223.3751
 Red. masses --      3.7262                 5.0120                 3.8036
 Frc consts  --      0.0649                 0.1146                 0.1118
 IR Inten    --      6.6804                 1.9731                 2.1525

                     10                     11                     12
                      A                      A                      A
 Frequencies --    256.4998               293.5353               341.5889
 Red. masses --      4.9530                 4.2611                 5.4617
 Frc consts  --      0.1920                 0.2163                 0.3755
 IR Inten    --      2.4239                 4.7861                 0.3299

                     13                     14                     15
                      A                      A                      A
 Frequencies --    355.8825               417.5393               425.7620
 Red. masses --      3.1043                 7.5074                 7.3998
 Frc consts  --      0.2316                 0.7711                 0.7903
 IR Inten    --      0.3500                 1.4873                 2.2995

                     16                     17                     18
                      A                      A                      A
 Frequencies --    461.3585               570.4998               581.0192
 Red. masses --      8.8830                 1.2350                 1.2817
 Frc consts  --      1.1140                 0.2368                 0.2549
 IR Inten    --      2.8032                47.9065                38.3753

                     19                     20                     21
                      A                      A                      A
 Frequencies --    591.3947               613.6975               655.7602
 Red. masses --      4.7736                 1.3297                 3.8031
 Frc consts  --      0.9837                 0.2951                 0.9636
 IR Inten    --     15.7640                47.0803                 1.8557

                     22                     23                     24
                      A                      A                      A
 Frequencies --    668.2500               674.5215               682.9732
 Red. masses --      1.5464                 4.7394                10.3766
 Frc consts  --      0.4069                 1.2705                 2.8517
 IR Inten    --     34.9379                 4.0225                 2.1293

                     25                     26                     27
                      A                      A                      A
 Frequencies --    722.5288               754.8542               877.4808
 Red. masses --      6.1473                 4.9391                 3.0137
 Frc consts  --      1.8908                 1.6581                 1.3672
 IR Inten    --      8.0499                 7.9178                33.2618

                     28                     29                     30
                      A                      A                      A
 Frequencies --    925.4716              1005.9569              1059.0987
 Red. masses --      3.8345                 3.8894                 2.5761
 Frc consts  --      1.9350                 2.3190                 1.7025
 IR Inten    --     11.7975                97.1257                25.2297

                     31                     32                     33
                      A                      A                      A
 Frequencies --   1071.8890              1079.3587              1192.3953
 Red. masses --      1.3976                 1.3595                 3.9318
 Frc consts  --      0.9461                 0.9332                 3.2937
 IR Inten    --      3.4112                 2.6397                 2.1062

                     34                     35                     36
                      A                      A                      A
 Frequencies --   1253.0680              1262.8549              1306.2818
 Red. masses --      1.1896                 2.6220                 1.5543
 Frc consts  --      1.1005                 2.4637                 1.5626
 IR Inten    --      2.7356               105.7325                18.7896

                     37                     38                     39
                      A                      A                      A
 Frequencies --   1394.5970              1399.9598              1449.5280
 Red. masses --      1.4060                 1.3831                 1.3018
 Frc consts  --      1.6112                 1.5971                 1.6115
 IR Inten    --     30.8397                14.6091                 0.3656

                     40                     41                     42
                      A                      A                      A
 Frequencies --   1482.0206              1510.4667              1514.4473
 Red. masses --      1.1004                 1.0415                 1.0405
 Frc consts  --      1.4240                 1.4000                 1.4061
 IR Inten    --      7.4861                 4.3954                 3.0055

                     43                     44                     45
                      A                      A                      A
 Frequencies --   2182.9373              2250.0628              2364.9502
 Red. masses --      6.6718                 5.9221                10.8626
 Frc consts  --     18.7317                17.6651                35.7954
 IR Inten    --      2.8996                 9.0661                 8.0209

                     46                     47                     48
                      A                      A                      A
 Frequencies --   2417.6714              3033.9987              3040.6128
 Red. masses --     11.8640                 1.0343                 1.0600
 Frc consts  --     40.8580                 5.6098                 5.7740
 IR Inten    --     80.8811                36.7445                13.5264

                     49                     50                     51
                      A                      A                      A
 Frequencies --   3081.4372              3092.2477              3096.8278
 Red. masses --      1.1018                 1.1020                 1.1012
 Frc consts  --      6.1638                 6.2085                 6.2225
 IR Inten    --      5.7233                17.3990                12.3631

                     52                     53                     54
                      A                      A                      A
 Frequencies --   3097.9696              3496.2937              3497.1355
 Red. masses --      1.0849                 1.1620                 1.1529
 Frc consts  --      6.1347                 8.3687                 8.3072
 IR Inten    --     20.7020                46.7106               101.3539

 - Thermochemistry -
 -------------------
 Temperature   298.150 Kelvin.  Pressure   1.00000 Atm.
 Atom     1 has atomic number  6 and mass  12.00000

 Molecular mass:   156.05751 amu.
 Principal axes and moments of inertia in atomic units:
                           1         2         3
     Eigenvalues --  1640.030122642.542093314.72949
           X            0.99767   0.06714   0.01250
           Y           -0.06745   0.99738   0.02607
           Z           -0.01072  -0.02685   0.99958
 This molecule is an asymmetric top.
 Rotational symmetry number  1.
 Warning -- assumption of classical behavior for rotation
           may cause significant error
 Rotational temperatures (Kelvin)      0.05281     0.03278     0.02613
 Rotational constants (GHZ):           1.10043     0.68296     0.54446
 Zero-point vibrational energy     385998.7 (Joules/Mol)
                                   92.25590 (Kcal/Mol)
 Warning -- explicit consideration of  20 degrees of freedom as
           vibrations may cause significant error
 Vibrational temperatures:     39.75    71.75    82.91   111.54   117.52
          (Kelvin)            205.14   247.44   283.45   321.39   369.05
                              422.33   491.47   512.04   600.75   612.58
                              663.79   820.82   835.96   850.89   882.97
                              943.49   961.46   970.49   982.65  1039.56
                             1086.07  1262.50  1331.55  1447.35  1523.81
                             1542.21  1552.96  1715.59  1802.89  1816.97
                             1879.45  2006.51  2014.23  2085.55  2132.30
                             2173.22  2178.95  3140.76  3237.34  3402.64
                             3478.49  4365.25  4374.76  4433.50  4449.05
                             4455.64  4457.29  5030.39  5031.60

 Zero-point correction=                           0.147019 (Hartree/Particle)
 Thermal correction to Energy=                    0.160435
 Thermal correction to Enthalpy=                  0.161379
 Thermal correction to Gibbs Free Energy=         0.105732
 Sum of electronic and zero-point Energies=           -498.790692
 Sum of electronic and thermal Energies=              -498.777276
 Sum of electronic and thermal Enthalpies=            -498.776332
 Sum of electronic and thermal Free Energies=         -498.831979

                     E (Thermal)             CV                S
                      KCal/Mol        Cal/Mol-Kelvin    Cal/Mol-Kelvin
 Total                  100.674             46.845            117.119
 Electronic               0.000              0.000              0.000
 Translational            0.889              2.981             41.045
 Rotational               0.889              2.981             31.041
 Vibrational             98.897             40.884             45.033
 Vibration     1          0.593              1.984              5.993
 Vibration     2          0.595              1.978              4.823
 Vibration     3          0.596              1.974              4.537
 Vibration     4          0.599              1.964              3.953
 Vibration     5          0.600              1.962              3.850
 Vibration     6          0.616              1.911              2.769
 Vibration     7          0.626              1.877              2.414
 Vibration     8          0.636              1.844              2.161
 Vibration     9          0.649              1.805              1.932
 Vibration    10          0.666              1.752              1.685
 Vibration    11          0.688              1.686              1.453
 Vibration    12          0.721              1.592              1.205
 Vibration    13          0.731              1.563              1.140
 Vibration    14          0.781              1.432              0.900
 Vibration    15          0.788              1.414              0.873
 Vibration    16          0.819              1.336              0.762
 Vibration    17          0.927              1.095              0.503
 Vibration    18          0.938              1.072              0.483
 Vibration    19          0.949              1.050              0.465
 Vibration    20          0.973              1.003              0.427

 Optimization completed.
    -- Stationary point found.

 1\1\GINC-NODE362\Freq\RB3LYP\6-31G(d)\C11H8O1\VSC10255\17-Dec-2020\0\\
 #N Geom=AllCheck Guess=TCheck SCRF=Check GenChk RB3LYP/6-31G(d) Freq\\
 CID_57723936_JID_2251_neutraal\\0,1\C,0.6816663168,-0.1303973576,0.522
 3356877\C,0.3401445809,-1.4922741362,0.1240146196\C,0.0880829024,-2.60
 36964659,-0.269706893\O,-0.2132394438,-3.8150555153,-0.6909184397\C,0.
 8040026614,-4.4874092389,-1.4846456611\C,0.9684401322,-3.8231384788,-2
 .8749033884\C,1.6867716346,-2.5564863466,-2.8765862569\C,2.3007379623,
 -1.5093565874,-2.8823098505\C,2.9761254096,-0.3216395866,-2.8656522354

 Normal termination of Gaussian 16 at Thu Dec 17 20:17:54 2020.

 ----------------------------------------------------------------------
 # B3LYP/6-311++G(d,p) empiricaldispersion=gd3bj scf=xqc pop=npa geom=c
 heck
 ----------------------------------------------------------------------

 --------------------------------------
 CID_57723936_JID_2251_Energie_neutraal
 --------------------------------------
 Structure from the checkpoint file:  "JID_2251.chk"
 Charge =  0 Multiplicity = 1

 SCF Done:  E(RB3LYP) =  -499.083791366     A.U. after   16 cycles
 Normal termination of Gaussian 16 at Thu Dec 17 20:19:23 2020.

 ----------------------------------------------------------------------
 # B3LYP/6-311++G(d,p) empiricaldispersion=gd3bj scf=xqc pop=npa geom=c
 heck
 ----------------------------------------------------------------------

 ------------------------------------
 CID_57723936_JID_2251_Energie_kation
 ------------------------------------
 Structure from the checkpoint file:  "JID_2251.chk"
 Charge =  1 Multiplicity = 2

 SCF Done:  E(UB3LYP) =  -498.783986794     A.U. after   26 cycles
 Normal termination of Gaussian 16 at Thu Dec 17 20:22:27 2020.
 Gaussian 16:  ES64L-G16RevA.03 25-Dec-2016

 -----------------------------------
 CID_57723936_JID_2251_Energie_anion
 -----------------------------------
 Structure from the checkpoint file:  "JID_2251.chk"
 Charge = -1 Multiplicity = 2

                         Standard orientation:
 ---------------------------------------------------------------------
 Center     Atomic      Atomic             Coordinates (Angstroms)
 Number     Number       Type             X           Y           Z
 ---------------------------------------------------------------------
      1          6           0        1.388204    2.755071    0.265205
      2          6           0        0.128968    2.108898   -0.090869
      3          6           0       -0.873414    1.515669   -0.402514
      4          8           0       -1.976421    0.889190   -0.758186
      5          6           0       -2.070817   -0.509702   -0.369556
      6          6           0       -1.072145   -1.387345   -1.165489
      7          6           0        0.318630   -1.279637   -0.747691
      8          6           0        1.475911   -1.204553   -0.389177
      9          6           0        2.776170   -1.090784    0.015151
     10          6           0        3.929973   -0.983651    0.374831
     11          6           0       -1.958507   -0.688577    1.073934
     12          6           0       -1.861055   -0.849428    2.264749
     13          1           0        1.694719    3.482338   -0.496597
     14          1           0        2.186961    2.007375    0.349378
     15          1           0        1.322270    3.284653    1.223691
     16          1           0       -3.077843   -0.775948   -0.703890
     17          1           0       -1.406011   -2.428673   -1.062802
     18          1           0       -1.177570   -1.119333   -2.224382
     19          1           0        4.944417   -0.895792    0.690090
     20          1           0       -1.767082   -0.983904    3.318555
 ---------------------------------------------------------------------

 SCF Done:  E(UB3LYP) =  -499.076332948     A.U. after   33 cycles
 SCF Done:  E(UB3LYP) =  -499.076332948     a.u. after    1 cycles

 The electronic state is 2-A.
 Alpha  occ. eigenvalues --  -19.07245 -10.15527 -10.09822 -10.09262 -10.08370
 Alpha  occ. eigenvalues --  -10.07278 -10.07174 -10.06664 -10.05983 -10.05496
 Alpha  occ. eigenvalues --  -10.05462 -10.04750  -0.98198  -0.71596  -0.67571
 Alpha  occ. eigenvalues --   -0.66437  -0.64713  -0.61851  -0.59072  -0.56210
 Alpha  occ. eigenvalues --   -0.49002  -0.47759  -0.42040  -0.40869  -0.39769
 Alpha  occ. eigenvalues --   -0.37671  -0.35429  -0.33435  -0.32291  -0.32083
 Alpha  occ. eigenvalues --   -0.31817  -0.28549  -0.26854  -0.22716  -0.22384
 Alpha  occ. eigenvalues --   -0.18506  -0.17576  -0.15348  -0.13335  -0.13132
 Alpha  occ. eigenvalues --   -0.11554   0.04765
 Alpha virt. eigenvalues --    0.07392   0.08005   0.08382   0.08641   0.09069
 Alpha virt. eigenvalues --    0.10246   0.10514   0.11007   0.11703   0.12509
 Alpha virt. eigenvalues --    0.13106   0.13965   0.15181   0.15710   0.16024

  Beta  occ. eigenvalues --  -19.07230 -10.15456 -10.09824 -10.09249 -10.08367
  Beta  occ. eigenvalues --  -10.07264 -10.07144 -10.06637 -10.05852 -10.05401
  Beta  occ. eigenvalues --  -10.05353 -10.04737  -0.98160  -0.71413  -0.67356
  Beta  occ. eigenvalues --   -0.66376  -0.64567  -0.61718  -0.58994  -0.56084
  Beta  occ. eigenvalues --   -0.48652  -0.47677  -0.41924  -0.40694  -0.39604
  Beta  occ. eigenvalues --   -0.37554  -0.35401  -0.33331  -0.32256  -0.32060
  Beta  occ. eigenvalues --   -0.31708  -0.28453  -0.26739  -0.22302  -0.22026
  Beta  occ. eigenvalues --   -0.18406  -0.17489  -0.15085  -0.13170  -0.12820
  Beta  occ. eigenvalues --   -0.11280
  Beta virt. eigenvalues --    0.07222   0.08020   0.08529   0.08697   0.09265
  Beta virt. eigenvalues --    0.09626   0.10524   0.11093   0.11438   0.12031
  Beta virt. eigenvalues --    0.12552   0.13325   0.14128   0.15368   0.15754

 Mulliken charges and spin densities:
               1          2
     1  C   -0.562721  -0.278334
     2  C    0.161971   0.095312
     3  C    0.303531  -0.266683
     4  O   -0.195673  -0.028533
     5  C    0.147334   0.493932
     6  C   -0.446467  -0.535399
     7  C    0.362956  -0.041047
     8  C    0.062070  -0.032251
     9  C    0.265614   0.000594
    10  C   -0.632725   0.083929
    11  C    2.875148  -2.389255
    12  C   -1.471935   0.573632
    13  H    0.104210   0.029515
    14  H    0.138812   0.037615
    15  H    0.083857   0.049712
    16  H   -1.577093   1.876123
    17  H   -0.346320   0.529456
    18  H   -0.154032   0.379816
    19  H    0.102720   0.050528
    20  H   -0.221258   0.371338
 Sum of Mulliken charges =  -1.00000   1.00000

 Dipole moment (field-independent basis, Debye):
    X=              5.0874    Y=              3.8908    Z=              2.2113  Tot=              6.7757
 Quadrupole moment (field-independent basis, Debye-Ang):
   XX=           -124.6561   YY=            -99.4200   ZZ=            -90.1827
   XY=             -4.7950   XZ=             -6.4888   YZ=             -2.5800

 Summary of Natural Population Analysis:

                                       Natural Population
                Natural  -----------------------------------------------
    Atom  No    Charge         Core      Valence    Rydberg      Total
 -----------------------------------------------------------------------
      C    1   -0.31605      0.99963     2.31167    0.00475     3.31605
      C    2   -0.06378      0.99915     2.05935    0.00528     3.06378
      C    3    0.14936      0.99892     1.84082    0.01091     2.85064
      O    4   -0.26104      0.99985     3.25134    0.00985     4.26104
      C    5    0.03807      0.99944     1.94335    0.01914     2.96193
      C    6   -0.23513      0.99956     2.22466    0.01091     3.23513
      C    7    0.04515      0.99933     1.94313    0.01239     2.95485
      C    8   -0.01207      0.99919     2.00313    0.00975     3.01207
      C    9   -0.05368      0.99945     2.04530    0.00893     3.05368
      C   10   -0.07714      0.99930     2.07500    0.00284     3.07714
      C   11   -0.00869      0.99935     2.00039    0.00895     3.00869
      C   12   -0.09721      0.99927     2.09451    0.00344     3.09721
      H   13    0.10288      0.00000     0.39575    0.00137     0.39712
      H   14    0.11716      0.00000     0.38130    0.00154     0.38284
      H   15    0.10158      0.00000     0.39695    0.00147     0.39842
      H   16    0.12003      0.00000     0.36334    0.01663     0.37997
      H   17    0.12630      0.00000     0.36957    0.00413     0.37370
      H   18    0.12087      0.00000     0.37712    0.00202     0.37913
      H   19    0.10089      0.00000     0.39734    0.00177     0.39911
      H   20    0.10913      0.00000     0.38985    0.00103     0.39087
 =======================================================================
   * Total *    0.00663     11.99243    28.86385    0.13709    40.99337

 Normal termination of Gaussian 16 at Thu Dec 17 20:26:10 2020.
