 Gaussian 16, Revision A.03,

 -----------------------------------------------------------
 # opt freq B3LYP/6-31G(d) empiricaldispersion=gd3bj scf=xqc
 -----------------------------------------------------------

 -------------------------------
 CID_106281459_JID_6508_neutraal
 -------------------------------
 Symbolic Z-matrix:
 Charge =  0 Multiplicity = 1

 SCF Done:  E(RB3LYP) =  -1192.05669112     A.U. after   15 cycles
 SCF Done:  E(RB3LYP) =  -1192.05661065     A.U. after   13 cycles
 SCF Done:  E(RB3LYP) =  -1192.06111195     A.U. after   13 cycles
 SCF Done:  E(RB3LYP) =  -1192.06190366     A.U. after   13 cycles
 SCF Done:  E(RB3LYP) =  -1192.06302426     A.U. after   13 cycles
 SCF Done:  E(RB3LYP) =  -1192.06384655     A.U. after   12 cycles
 SCF Done:  E(RB3LYP) =  -1192.06400030     A.U. after   12 cycles
 SCF Done:  E(RB3LYP) =  -1192.06404289     A.U. after   11 cycles
 SCF Done:  E(RB3LYP) =  -1192.06409907     A.U. after   10 cycles
 SCF Done:  E(RB3LYP) =  -1192.06412782     A.U. after   11 cycles
 SCF Done:  E(RB3LYP) =  -1192.06415008     A.U. after    9 cycles
 SCF Done:  E(RB3LYP) =  -1192.06415115     A.U. after    9 cycles
 SCF Done:  E(RB3LYP) =  -1192.06415173     A.U. after    8 cycles
 SCF Done:  E(RB3LYP) =  -1192.06415207     A.U. after    8 cycles
 SCF Done:  E(RB3LYP) =  -1192.06415219     A.U. after    8 cycles
 SCF Done:  E(RB3LYP) =  -1192.06415225     A.U. after    8 cycles
 Optimization completed.
    -- Stationary point found.
 Normal termination of Gaussian 16 at Thu Dec 10 23:22:47 2020.

 --------------------------------------------------------------------
 #N Geom=AllCheck Guess=TCheck SCRF=Check GenChk RB3LYP/6-31G(d) Freq
 --------------------------------------------------------------------

 Structure from the checkpoint file:  "JID_6508.chk"
 -------------------------------
 CID_106281459_JID_6508_neutraal
 -------------------------------
 Charge =  0 Multiplicity = 1

 SCF Done:  E(RB3LYP) =  -1192.06415225     A.U. after    1 cycles

  Exact polarizability: 145.442   4.015 121.582   2.154   4.285  90.755
 Approx polarizability: 189.324   1.322 191.955  -2.899   7.451 164.619

                      1                      2                      3
                      A                      A                      A
 Frequencies --     26.2280                37.8906                42.9960
 Red. masses --      6.1404                 5.9903                 5.2825
 Frc consts  --      0.0025                 0.0051                 0.0058
 IR Inten    --      1.3421                 0.5746                 0.3406

                      4                      5                      6
                      A                      A                      A
 Frequencies --     65.4106                99.3992               107.4791
 Red. masses --      6.8589                 5.9820                 9.7264
 Frc consts  --      0.0173                 0.0348                 0.0662
 IR Inten    --      3.2623                 0.5255                 4.1216

                      7                      8                      9
                      A                      A                      A
 Frequencies --    141.6743               170.3286               212.4739
 Red. masses --      5.8450                 5.0725                 3.6721
 Frc consts  --      0.0691                 0.0867                 0.0977
 IR Inten    --      0.4235                 2.6261                 0.8646

                     10                     11                     12
                      A                      A                      A
 Frequencies --    221.4955               226.2378               255.6204
 Red. masses --      2.3785                 4.4443                 1.6577
 Frc consts  --      0.0688                 0.1340                 0.0638
 IR Inten    --      2.3145                 3.1292                 0.3719

                     13                     14                     15
                      A                      A                      A
 Frequencies --    299.0118               304.9694               341.8235
 Red. masses --      3.3397                 3.1723                 3.8472
 Frc consts  --      0.1759                 0.1738                 0.2649
 IR Inten    --      7.4817                 1.6642                 7.5028

                     16                     17                     18
                      A                      A                      A
 Frequencies --    377.5699               434.1340               457.8904
 Red. masses --      3.4983                 5.0127                 4.9749
 Frc consts  --      0.2938                 0.5566                 0.6146
 IR Inten    --      7.4460                 0.9114                42.9417

                     19                     20                     21
                      A                      A                      A
 Frequencies --    469.5003               518.3352               540.8345
 Red. masses --      3.4672                 3.7322                 3.0542
 Frc consts  --      0.4503                 0.5908                 0.5263
 IR Inten    --     11.1804                 3.3307                46.6964

                     22                     23                     24
                      A                      A                      A
 Frequencies --    544.4615               575.9475               628.5149
 Red. masses --      3.5957                 2.0546                 2.5856
 Frc consts  --      0.6280                 0.4016                 0.6018
 IR Inten    --     18.3336               110.0859                26.6349

                     25                     26                     27
                      A                      A                      A
 Frequencies --    657.5614               681.0026               700.1906
 Red. masses --      3.0896                 2.4808                 2.9665
 Frc consts  --      0.7871                 0.6779                 0.8569
 IR Inten    --      7.2544                 4.9574                50.0673

                     28                     29                     30
                      A                      A                      A
 Frequencies --    716.7734               757.2888               785.0660
 Red. masses --      2.5109                 2.0754                 1.9050
 Frc consts  --      0.7600                 0.7013                 0.6918
 IR Inten    --     71.5795                67.4907                61.8652

                     31                     32                     33
                      A                      A                      A
 Frequencies --    819.3696               887.0988               889.8218
 Red. masses --      2.7558                 1.9905                 1.3802
 Frc consts  --      1.0901                 0.9229                 0.6439
 IR Inten    --     23.6377                95.2254                19.8210

                     34                     35                     36
                      A                      A                      A
 Frequencies --    948.7371               963.3086               966.4835
 Red. masses --      2.8801                 2.3518                 1.9068
 Frc consts  --      1.5274                 1.2858                 1.0494
 IR Inten    --     90.6581                20.5889                 5.6925

                     37                     38                     39
                      A                      A                      A
 Frequencies --    989.5703              1038.4200              1072.0967
 Red. masses --      8.2488                 2.9043                 2.7318
 Frc consts  --      4.7592                 1.8452                 1.8499
 IR Inten    --     18.2324                26.7160                26.2391

                     40                     41                     42
                      A                      A                      A
 Frequencies --   1076.4071              1098.3051              1112.5090
 Red. masses --      2.4549                 3.3853                 4.5074
 Frc consts  --      1.6759                 2.4060                 3.2869
 IR Inten    --      9.1198               123.2606                74.0084

                     43                     44                     45
                      A                      A                      A
 Frequencies --   1139.2964              1155.3559              1164.6257
 Red. masses --      2.8032                 2.1493                 1.4346
 Frc consts  --      2.1438                 1.6904                 1.1465
 IR Inten    --     35.5834                45.6179               100.7014

                     46                     47                     48
                      A                      A                      A
 Frequencies --   1216.2659              1217.3372              1239.4572
 Red. masses --      1.7085                 2.4230                 1.2137
 Frc consts  --      1.4891                 2.1156                 1.0986
 IR Inten    --    126.9281                18.6131                 2.4288

                     49                     50                     51
                      A                      A                      A
 Frequencies --   1273.2280              1294.1325              1312.9403
 Red. masses --      1.5649                 3.3421                 3.3522
 Frc consts  --      1.4947                 3.2978                 3.4047
 IR Inten    --     16.8690               133.6922                25.7495

                     52                     53                     54
                      A                      A                      A
 Frequencies --   1331.4181              1348.8482              1352.8798
 Red. masses --      1.4386                 1.4343                 1.4841
 Frc consts  --      1.5025                 1.5375                 1.6004
 IR Inten    --      9.2803                53.1896                25.1680

                     55                     56                     57
                      A                      A                      A
 Frequencies --   1372.9364              1427.5483              1441.6662
 Red. masses --      2.0124                 3.2123                 2.0224
 Frc consts  --      2.2350                 3.8570                 2.4765
 IR Inten    --     32.1191                 4.2349                48.4682

                     58                     59                     60
                      A                      A                      A
 Frequencies --   1444.2484              1456.3716              1477.4724
 Red. masses --      1.4304                 1.2609                 1.0921
 Frc consts  --      1.7579                 1.5757                 1.4045
 IR Inten    --     25.7520                57.7544                12.4643

                     61                     62                     63
                      A                      A                      A
 Frequencies --   1494.2700              1495.3691              1520.2953
 Red. masses --      3.0335                 1.1912                 1.0804
 Frc consts  --      3.9907                 1.5694                 1.4712
 IR Inten    --     21.7407                10.5578                 5.7996

                     64                     65                     66
                      A                      A                      A
 Frequencies --   1527.3535              1589.0180              1839.0311
 Red. masses --      1.0448                 3.5834                 9.5685
 Frc consts  --      1.4360                 5.3309                19.0665
 IR Inten    --      6.4441                36.4224               245.1875

                     67                     68                     69
                      A                      A                      A
 Frequencies --   3066.8719              3080.7584              3094.4233
 Red. masses --      1.0689                 1.0387                 1.0817
 Frc consts  --      5.9236                 5.8082                 6.1028
 IR Inten    --      6.3931                 8.4294                 5.3158

                     70                     71                     72
                      A                      A                      A
 Frequencies --   3107.2889              3138.5291              3152.2344
 Red. masses --      1.0595                 1.0946                 1.1010
 Frc consts  --      6.0269                 6.3527                 6.4455
 IR Inten    --      2.2686                 0.3021                12.2550

                     73                     74                     75
                      A                      A                      A
 Frequencies --   3168.4202              3180.1630              3279.9839
 Red. masses --      1.1067                 1.1045                 1.0971
 Frc consts  --      6.5459                 6.5816                 6.9540
 IR Inten    --      0.4730                 5.4327                 8.4857

                     76                     77                     78
                      A                      A                      A
 Frequencies --   3528.6231              3577.1576              3682.6355
 Red. masses --      1.0754                 1.0842                 1.0640
 Frc consts  --      7.8894                 8.1739                 8.5014
 IR Inten    --     33.3063               211.9688                51.2714

 - Thermochemistry -
 -------------------
 Temperature   298.150 Kelvin.  Pressure   1.00000 Atm.
 Atom     1 has atomic number  6 and mass  12.00000

 Molecular mass:   248.05793 amu.
 Principal axes and moments of inertia in atomic units:
                           1         2         3
     Eigenvalues --  2132.689755566.686646915.27483
           X            0.99994   0.01055   0.00161
           Y           -0.01057   0.99987   0.01194
           Z           -0.00148  -0.01196   0.99993
 This molecule is an asymmetric top.
 Rotational symmetry number  1.
 Warning -- assumption of classical behavior for rotation
           may cause significant error
 Rotational temperatures (Kelvin)      0.04061     0.01556     0.01253
 Rotational constants (GHZ):           0.84623     0.32420     0.26098
 Zero-point vibrational energy     570910.0 (Joules/Mol)
                                  136.45076 (Kcal/Mol)
 Warning -- explicit consideration of  23 degrees of freedom as
           vibrations may cause significant error
 Vibrational temperatures:     37.74    54.52    61.86    94.11   143.01
          (Kelvin)            154.64   203.84   245.06   305.70   318.68
                              325.51   367.78   430.21   438.78   491.81
                              543.24   624.62   658.80   675.51   745.77
                              778.14   783.36   828.66   904.29   946.08
                              979.81  1007.42  1031.28  1089.57  1129.53
                             1178.89  1276.34  1280.26  1365.02  1385.99
                             1390.55  1423.77  1494.05  1542.51  1548.71
                             1580.22  1600.65  1639.19  1662.30  1675.64
                             1749.94  1751.48  1783.30  1831.89  1861.97
                             1889.03  1915.61  1940.69  1946.49  1975.35
                             2053.92  2074.24  2077.95  2095.39  2125.75
                             2149.92  2151.50  2187.37  2197.52  2286.24
                             2645.96  4412.54  4432.52  4452.18  4470.70
                             4515.64  4535.36  4558.65  4575.55  4719.17
                             5076.90  5146.73  5298.49

 Zero-point correction=                           0.217448 (Hartree/Particle)
 Thermal correction to Energy=                    0.233074
 Thermal correction to Enthalpy=                  0.234018
 Thermal correction to Gibbs Free Energy=         0.172611
 Sum of electronic and zero-point Energies=          -1191.846704
 Sum of electronic and thermal Energies=             -1191.831078
 Sum of electronic and thermal Enthalpies=           -1191.830134
 Sum of electronic and thermal Free Energies=        -1191.891541

                     E (Thermal)             CV                S
                      KCal/Mol        Cal/Mol-Kelvin    Cal/Mol-Kelvin
 Total                  146.256             57.490            129.242
 Electronic               0.000              0.000              0.000
 Translational            0.889              2.981             42.426
 Rotational               0.889              2.981             32.773
 Vibrational            144.479             51.528             54.043
 Vibration     1          0.593              1.985              6.096
 Vibration     2          0.594              1.982              5.366
 Vibration     3          0.595              1.980              5.116
 Vibration     4          0.597              1.971              4.287
 Vibration     5          0.604              1.950              3.466
 Vibration     6          0.606              1.943              3.314
 Vibration     7          0.615              1.912              2.781
 Vibration     8          0.625              1.879              2.432
 Vibration     9          0.644              1.822              2.022
 Vibration    10          0.648              1.808              1.947
 Vibration    11          0.650              1.801              1.909
 Vibration    12          0.666              1.753              1.691
 Vibration    13          0.692              1.676              1.422
 Vibration    14          0.696              1.664              1.389
 Vibration    15          0.721              1.592              1.204
 Vibration    16          0.748              1.518              1.049
 Vibration    17          0.795              1.396              0.845
 Vibration    18          0.816              1.343              0.772
 Vibration    19          0.827              1.318              0.739
 Vibration    20          0.873              1.209              0.614
 Vibration    21          0.896              1.160              0.563
 Vibration    22          0.900              1.152              0.556
 Vibration    23          0.932              1.083              0.493

 Optimization completed.
    -- Stationary point found.
 Normal termination of Gaussian 16 at Thu Dec 10 23:31:58 2020.

 ----------------------------------------------------------------------
 # B3LYP/6-311++G(d,p) empiricaldispersion=gd3bj scf=xqc pop=npa geom=c
 heck
 ----------------------------------------------------------------------

 ---------------------------------------
 CID_106281459_JID_6508_Energie_neutraal
 ---------------------------------------
 Structure from the checkpoint file:  "JID_6508.chk"
 Charge =  0 Multiplicity = 1

 SCF Done:  E(RB3LYP) =  -1192.33383433     A.U. after   15 cycles
 Normal termination of Gaussian 16 at Thu Dec 10 23:35:31 2020.

 ----------------------------------------------------------------------
 # B3LYP/6-311++G(d,p) empiricaldispersion=gd3bj scf=xqc pop=npa geom=c
 heck
 ----------------------------------------------------------------------

 -------------------------------------
 CID_106281459_JID_6508_Energie_kation
 -------------------------------------
 Structure from the checkpoint file:  "JID_6508.chk"
 Charge =  1 Multiplicity = 2

 SCF Done:  E(UB3LYP) =  -1191.98847658     A.U. after   28 cycles
 Normal termination of Gaussian 16 at Thu Dec 10 23:45:07 2020.
 Gaussian 16:  ES64L-G16RevA.03 25-Dec-2016

 ----------------------------------------------------------------------
 # B3LYP/6-311++G(d,p) empiricaldispersion=gd3bj scf=xqc pop=npa geom=c
 heck
 ----------------------------------------------------------------------

 ------------------------------------
 CID_106281459_JID_6508_Energie_anion
 ------------------------------------
 Structure from the checkpoint file:  "JID_6508.chk"
 Charge = -1 Multiplicity = 2

                         Standard orientation:
 ---------------------------------------------------------------------
 Center     Atomic      Atomic             Coordinates (Angstroms)
 Number     Number       Type             X           Y           Z
 ---------------------------------------------------------------------
      1          6           0        0.480030    2.402822   -0.193992
      2          6           0        0.760836    0.914256   -0.392658
      3          6           0        2.212825    0.592137   -0.140941
      4          7           0        3.127946    1.429389    0.334435
      5          6           0        4.250507    0.656358    0.390671
      6          7           0        4.092451   -0.597789   -0.011671
      7          7           0        2.781698   -0.617469   -0.353022
      8          7           0       -0.146611    0.131256    0.486473
      9         16           0       -0.540683   -1.457086    0.093739
     10          8           0        0.393664   -1.998101   -0.911140
     11          8           0       -0.755804   -2.137719    1.373541
     12          6           0       -2.130551   -1.289523   -0.752124
     13          6           0       -3.151572   -0.532937    0.087823
     14          6           0       -3.009363    0.965623   -0.081971
     15          8           0       -2.622469    1.515414   -1.091105
     16          8           0       -3.420282    1.633671    1.013445
     17          1           0        0.674271    2.695909    0.841898
     18          1           0       -0.558388    2.613032   -0.453646
     19          1           0        1.145279    2.993179   -0.828475
     20          1           0        0.500827    0.633177   -1.417849
     21          1           0        5.205732    1.026379    0.736264
     22          1           0        2.319188   -1.464049   -0.670225
     23          1           0        0.107357    0.162430    1.472564
     24          1           0       -1.941764   -0.780249   -1.699610
     25          1           0       -2.434276   -2.320735   -0.949979
     26          1           0       -4.160542   -0.798196   -0.253001
     27          1           0       -3.091865   -0.807938    1.143688
     28          1           0       -3.340416    2.584198    0.806265
 ---------------------------------------------------------------------

 SCF Done:  E(UB3LYP) =  -1192.33065581     A.U. after   30 cycles

 The electronic state is 2-A.
 Alpha  occ. eigenvalues --  -88.98241 -19.07207 -19.04373 -19.03813 -19.01766
 Alpha  occ. eigenvalues --  -14.30600 -14.26514 -14.25905 -14.22514 -10.20961
 Alpha  occ. eigenvalues --  -10.16089 -10.15500 -10.13840 -10.12498 -10.10134
 Alpha  occ. eigenvalues --  -10.07606  -8.04491  -6.00792  -6.00748  -6.00514
 Alpha  occ. eigenvalues --   -1.04181  -1.01394  -0.99612  -0.93341  -0.92528
 Alpha  occ. eigenvalues --   -0.85518  -0.81469  -0.75620  -0.72834  -0.68283
 Alpha  occ. eigenvalues --   -0.62766  -0.57628  -0.55378  -0.54413  -0.52052
 Alpha  occ. eigenvalues --   -0.50247  -0.48043  -0.44832  -0.42574  -0.41686
 Alpha  occ. eigenvalues --   -0.40828  -0.39410  -0.38693  -0.38258  -0.37320
 Alpha  occ. eigenvalues --   -0.36145  -0.35235  -0.33907  -0.32237  -0.31680
 Alpha  occ. eigenvalues --   -0.30310  -0.29994  -0.29157  -0.28487  -0.27590
 Alpha  occ. eigenvalues --   -0.25470  -0.24702  -0.23592  -0.23145  -0.22571
 Alpha  occ. eigenvalues --   -0.22093  -0.20642  -0.20283  -0.19064  -0.18312
 Alpha  occ. eigenvalues --    0.03953
 Alpha virt. eigenvalues --    0.06458   0.06807   0.07404   0.08301   0.08565
 Alpha virt. eigenvalues --    0.09484   0.09635   0.10072   0.10607   0.11200
 Alpha virt. eigenvalues --    0.11657   0.12223   0.12718   0.13197   0.13658

  Beta  occ. eigenvalues --  -88.98233 -19.07138 -19.04368 -19.03803 -19.01735
  Beta  occ. eigenvalues --  -14.30569 -14.26459 -14.25879 -14.22502 -10.20899
  Beta  occ. eigenvalues --  -10.16066 -10.15493 -10.13845 -10.12456 -10.10083
  Beta  occ. eigenvalues --  -10.07590  -8.04482  -6.00780  -6.00741  -6.00508
  Beta  occ. eigenvalues --   -1.04154  -1.01271  -0.99571  -0.93321  -0.92436
  Beta  occ. eigenvalues --   -0.85448  -0.81429  -0.75567  -0.72756  -0.68234
  Beta  occ. eigenvalues --   -0.62627  -0.57578  -0.55323  -0.54357  -0.52009
  Beta  occ. eigenvalues --   -0.50107  -0.48006  -0.44795  -0.42525  -0.41599
  Beta  occ. eigenvalues --   -0.40764  -0.39345  -0.38664  -0.38163  -0.37173
  Beta  occ. eigenvalues --   -0.36101  -0.35209  -0.33840  -0.32194  -0.31582
  Beta  occ. eigenvalues --   -0.30274  -0.29909  -0.29073  -0.28448  -0.27558
  Beta  occ. eigenvalues --   -0.25437  -0.24680  -0.23568  -0.23038  -0.22505
  Beta  occ. eigenvalues --   -0.21977  -0.20586  -0.20252  -0.19010  -0.18198
  Beta virt. eigenvalues --    0.06534   0.07309   0.07642   0.07985   0.08490
  Beta virt. eigenvalues --    0.08875   0.09859   0.10090   0.10708   0.10826
  Beta virt. eigenvalues --    0.11329   0.11938   0.12432   0.12779   0.13287

 Mulliken charges and spin densities:
               1          2
     1  C   -0.250801  -0.454876
     2  C   -0.368280  -0.027457
     3  C   -0.054986  -0.098887
     4  N   -0.126339   0.043442
     5  C   -0.065407   0.069466
     6  N    0.037308  -0.006644
     7  N   -0.240065   0.018960
     8  N   -0.221217   0.116478
     9  S    0.827639  -0.600706
    10  O   -0.182059   0.023859
    11  O   -0.174981  -0.004833
    12  C   -0.657134   0.082694
    13  C    0.951602  -1.132253
    14  C    0.686640  -0.867329
    15  O   -0.281428   0.062661
    16  O   -0.185313   0.103551
    17  H    0.072867   0.105616
    18  H   -0.040517   0.229963
    19  H    0.010774   0.153202
    20  H    0.181846   0.067013
    21  H    0.125336   0.027834
    22  H    0.358063   0.010246
    23  H    0.160444   0.171863
    24  H    0.167043   0.095346
    25  H   -0.430598   0.702639
    26  H   -1.039659   1.274961
    27  H    0.199018   0.068669
    28  H   -0.459794   0.764523
 Sum of Mulliken charges =  -1.00000   1.00000

 Dipole moment (field-independent basis, Debye):
    X=              8.0523    Y=             -0.3682    Z=             -0.3008  Tot=              8.0664
 Quadrupole moment (field-independent basis, Debye-Ang):
   XX=           -185.8708   YY=           -151.5533   ZZ=           -126.9159
   XY=              5.7537   XZ=             -2.0291   YZ=             -2.3860

 Summary of Natural Population Analysis:

                                       Natural Population
                Natural  -----------------------------------------------
    Atom  No    Charge         Core      Valence    Rydberg      Total
 -----------------------------------------------------------------------
      C    1   -0.28697      0.99964     2.27981    0.00752     3.28697
      C    2   -0.03587      0.99956     2.02295    0.01337     3.03587
      C    3    0.18656      0.99961     1.79767    0.01617     2.81344
      N    4   -0.26505      0.99970     2.75650    0.00885     3.76505
      C    5    0.07950      0.99971     1.90111    0.01968     2.92050
      N    6   -0.15597      0.99974     2.64371    0.01251     3.65597
      N    7   -0.17592      0.99963     2.66549    0.01080     3.67592
      N    8   -0.43366      0.99975     2.92110    0.01281     3.93366
      S    9    1.09884      4.99927     1.80424    0.09765     6.90116
      O   10   -0.48104      0.99990     3.47561    0.00553     4.48104
      O   11   -0.46109      0.99991     3.45594    0.00524     4.46109
      C   12   -0.28418      0.99958     2.26963    0.01497     3.28418
      C   13   -0.25210      0.99956     2.24119    0.01134     3.25210
      C   14    0.41916      0.99972     1.55549    0.02562     2.58084
      O   15   -0.31691      0.99987     3.31022    0.00682     4.31691
      O   16   -0.33934      0.99987     3.33265    0.00682     4.33934
      H   17    0.10402      0.00000     0.39475    0.00123     0.39598
      H   18    0.11634      0.00000     0.38246    0.00120     0.38366
      H   19    0.10613      0.00000     0.39293    0.00094     0.39387
      H   20    0.11356      0.00000     0.38496    0.00148     0.38644
      H   21    0.09119      0.00000     0.40804    0.00077     0.40881
      H   22    0.22076      0.00000     0.27692    0.00232     0.27924
      H   23    0.20244      0.00000     0.29556    0.00201     0.29756
      H   24    0.12586      0.00000     0.37275    0.00139     0.37414
      H   25    0.12452      0.00000     0.37339    0.00209     0.37548
      H   26    0.13228      0.00000     0.35864    0.00908     0.36772
      H   27    0.12072      0.00000     0.37765    0.00163     0.37928
      H   28    0.24621      0.00000     0.23526    0.01853     0.25379
 =======================================================================
   * Total *   -0.00000     19.99503    44.68661    0.31836    65.00000

 Normal termination of Gaussian 16 at Thu Dec 10 23:55:25 2020.
