 Gaussian 16, Revision A.03,

 -----------------------------------------------------------
 # opt freq B3LYP/6-31G(d) empiricaldispersion=gd3bj scf=xqc
 -----------------------------------------------------------

 -------------------------------
 CID_62850712_JID_10532_neutraal
 -------------------------------
 Symbolic Z-matrix:
 Charge =  0 Multiplicity = 1

 SCF Done:  E(RB3LYP) =  -1213.30840001     A.U. after   15 cycles
 SCF Done:  E(RB3LYP) =  -1213.30731955     A.U. after   14 cycles
 SCF Done:  E(RB3LYP) =  -1213.31739601     A.U. after   13 cycles
 SCF Done:  E(RB3LYP) =  -1213.31891361     A.U. after   14 cycles
 SCF Done:  E(RB3LYP) =  -1213.31827945     A.U. after   13 cycles
 SCF Done:  E(RB3LYP) =  -1213.31943525     A.U. after   13 cycles
 SCF Done:  E(RB3LYP) =  -1213.31947483     A.U. after   13 cycles
 SCF Done:  E(RB3LYP) =  -1213.31924169     A.U. after   13 cycles
 SCF Done:  E(RB3LYP) =  -1213.31977018     A.U. after   12 cycles
 SCF Done:  E(RB3LYP) =  -1213.31988100     A.U. after   12 cycles
 SCF Done:  E(RB3LYP) =  -1213.31989169     A.U. after   10 cycles
 SCF Done:  E(RB3LYP) =  -1213.31989457     A.U. after    9 cycles
 SCF Done:  E(RB3LYP) =  -1213.31989619     A.U. after    8 cycles
 SCF Done:  E(RB3LYP) =  -1213.31989690     A.U. after    8 cycles
 SCF Done:  E(RB3LYP) =  -1213.31989694     A.U. after    7 cycles
 Optimization completed.
    -- Stationary point found.
 Normal termination of Gaussian 16 at Sun Dec 13 20:49:59 2020.

 --------------------------------------------------------------------
 #N Geom=AllCheck Guess=TCheck SCRF=Check GenChk RB3LYP/6-31G(d) Freq
 --------------------------------------------------------------------

 Structure from the checkpoint file:  "JID_10532.chk"
 -------------------------------
 CID_62850712_JID_10532_neutraal
 -------------------------------
 Charge =  0 Multiplicity = 1

 SCF Done:  E(RB3LYP) =  -1213.31989694     A.U. after    1 cycles

  Exact polarizability: 202.576  34.559 152.025 -14.640  19.502 175.708
 Approx polarizability: 343.847  74.719 249.649 -35.726  60.436 358.586

                      1                      2                      3
                      A                      A                      A
 Frequencies --     27.8766                48.3644                68.4013
 Red. masses --      5.8763                 5.4221                 5.9306
 Frc consts  --      0.0027                 0.0075                 0.0163
 IR Inten    --      3.1742                 0.3992                 3.9509

                      4                      5                      6
                      A                      A                      A
 Frequencies --     82.5298                92.9042               115.9195
 Red. masses --      5.9159                 4.7998                 5.5636
 Frc consts  --      0.0237                 0.0244                 0.0440
 IR Inten    --      0.6298                 0.1393                 2.1450

                      7                      8                      9
                      A                      A                      A
 Frequencies --    164.3572               176.9735               204.0275
 Red. masses --      4.1858                 4.8955                 4.6736
 Frc consts  --      0.0666                 0.0903                 0.1146
 IR Inten    --      3.7048                 1.0324                 0.9392

                     10                     11                     12
                      A                      A                      A
 Frequencies --    208.7953               224.3123               285.9586
 Red. masses --      6.4727                 6.2389                 5.4328
 Frc consts  --      0.1663                 0.1850                 0.2617
 IR Inten    --      2.3457                 2.8150                 1.4048

                     13                     14                     15
                      A                      A                      A
 Frequencies --    333.1076               380.3294               385.6687
 Red. masses --      3.1690                 4.9232                 3.7023
 Frc consts  --      0.2072                 0.4196                 0.3244
 IR Inten    --      0.5349                 1.2478                 4.1198

                     16                     17                     18
                      A                      A                      A
 Frequencies --    408.4069               437.5951               459.1152
 Red. masses --      2.4866                 2.9859                 2.7476
 Frc consts  --      0.2444                 0.3369                 0.3412
 IR Inten    --      8.2253                 9.8159                10.8390

                     19                     20                     21
                      A                      A                      A
 Frequencies --    460.7096               489.2998               491.2203
 Red. masses --      2.3944                 6.2609                 3.5599
 Frc consts  --      0.2994                 0.8832                 0.5061
 IR Inten    --     19.7239                 3.2440                 7.2318

                     22                     23                     24
                      A                      A                      A
 Frequencies --    524.3739               579.5316               583.1711
 Red. masses --      4.2050                 6.2344                 4.9644
 Frc consts  --      0.6812                 1.2337                 0.9947
 IR Inten    --      8.5694                 0.4356                 4.3361

                     25                     26                     27
                      A                      A                      A
 Frequencies --    589.9462               611.5644               631.0165
 Red. masses --      4.3957                 3.5195                 3.3790
 Frc consts  --      0.9014                 0.7756                 0.7927
 IR Inten    --      1.5413                18.9048                66.9060

                     28                     29                     30
                      A                      A                      A
 Frequencies --    670.2230               686.3222               694.3589
 Red. masses --      6.7011                 5.0854                 3.2009
 Frc consts  --      1.7735                 1.4113                 0.9093
 IR Inten    --      6.1150                33.3843                49.7636

                     31                     32                     33
                      A                      A                      A
 Frequencies --    722.2813               738.5086               753.4105
 Red. masses --      2.2291                 4.1414                 2.0356
 Frc consts  --      0.6852                 1.3308                 0.6808
 IR Inten    --     16.8442                 5.9170                23.1124

                     34                     35                     36
                      A                      A                      A
 Frequencies --    765.5472               772.0567               798.1010
 Red. masses --      2.3045                 2.5532                 5.8237
 Frc consts  --      0.7957                 0.8967                 2.1856
 IR Inten    --     44.5085                95.0087                 5.7081

                     37                     38                     39
                      A                      A                      A
 Frequencies --    828.1301               849.5806               891.7079
 Red. masses --      1.6991                 1.4557                 2.1949
 Frc consts  --      0.6866                 0.6191                 1.0283
 IR Inten    --     14.9908                 5.6947                 5.6987

                     40                     41                     42
                      A                      A                      A
 Frequencies --    921.1739               930.0192               931.9848
 Red. masses --      1.2282                 2.1415                 3.0365
 Frc consts  --      0.6140                 1.0913                 1.5540
 IR Inten    --     40.5723                14.6176                 0.7421

                     43                     44                     45
                      A                      A                      A
 Frequencies --    939.0357               942.5137               955.8239
 Red. masses --      1.4383                 1.3693                 1.7326
 Frc consts  --      0.7472                 0.7167                 0.9326
 IR Inten    --      2.1344                 2.1223                 4.2217

                     46                     47                     48
                      A                      A                      A
 Frequencies --    985.0415               988.2141              1022.9349
 Red. masses --      1.2694                 1.2909                 6.1191
 Frc consts  --      0.7257                 0.7428                 3.7725
 IR Inten    --      0.3764                 0.3845                 0.6693

                     49                     50                     51
                      A                      A                      A
 Frequencies --   1027.7468              1066.3767              1100.6711
 Red. masses --      2.2309                 7.1194                 1.8635
 Frc consts  --      1.3884                 4.7700                 1.3302
 IR Inten    --      1.0380                11.2585                32.9085

                     52                     53                     54
                      A                      A                      A
 Frequencies --   1117.4454              1124.4265              1161.6206
 Red. masses --      4.3162                 2.1337                 1.3629
 Frc consts  --      3.1755                 1.5894                 1.0835
 IR Inten    --     22.6015                 1.2876                 6.4029

                     55                     56                     57
                      A                      A                      A
 Frequencies --   1167.8950              1174.7849              1180.3691
 Red. masses --      1.3612                 1.2345                 1.2298
 Frc consts  --      1.0939                 1.0038                 1.0095
 IR Inten    --      3.7961                 8.7200                 1.2303

                     58                     59                     60
                      A                      A                      A
 Frequencies --   1200.4066              1210.6947              1257.1178
 Red. masses --      1.3289                 1.1911                 2.1045
 Frc consts  --      1.1283                 1.0286                 1.9595
 IR Inten    --     32.2645                21.4248                16.2925

                     61                     62                     63
                      A                      A                      A
 Frequencies --   1276.0160              1295.5353              1306.8645
 Red. masses --      1.5731                 5.2981                 1.9761
 Frc consts  --      1.5091                 5.2393                 1.9885
 IR Inten    --      8.4695                 9.4986                 3.9185

                     64                     65                     66
                      A                      A                      A
 Frequencies --   1343.8276              1367.4725              1372.2081
 Red. masses --      1.6741                 2.9955                 2.4556
 Frc consts  --      1.7812                 3.3004                 2.7243
 IR Inten    --      0.2617                 2.8068                 4.3356

                     67                     68                     69
                      A                      A                      A
 Frequencies --   1388.9484              1418.7419              1421.4760
 Red. masses --      4.5962                 8.9516                 2.5614
 Frc consts  --      5.2242                10.6159                 3.0493
 IR Inten    --     28.6238                10.5548               101.4752

                     70                     71                     72
                      A                      A                      A
 Frequencies --   1487.6506              1491.3131              1505.7824
 Red. masses --      2.8241                 2.4792                 1.1914
 Frc consts  --      3.6824                 3.2487                 1.5916
 IR Inten    --     11.5283                 0.6319                 8.1183

                     73                     74                     75
                      A                      A                      A
 Frequencies --   1535.9560              1543.2534              1584.8999
 Red. masses --      2.3690                 4.4142                 5.7100
 Frc consts  --      3.2928                 6.1941                 8.4507
 IR Inten    --      2.4651                32.5010                 0.4569

                     76                     77                     78
                      A                      A                      A
 Frequencies --   1640.4497              1648.9629              1664.4450
 Red. masses --      5.1026                 1.3891                 5.4425
 Frc consts  --      8.0904                 2.2253                 8.8836
 IR Inten    --     13.6244                63.8772                 6.2549

                     79                     80                     81
                      A                      A                      A
 Frequencies --   1695.8703              1722.4464              3093.1352
 Red. masses --      5.9537                 4.1414                 1.0592
 Frc consts  --     10.0883                 7.2392                 5.9708
 IR Inten    --     12.2904               141.2938                15.9529

                     82                     83                     84
                      A                      A                      A
 Frequencies --   3155.6717              3181.5755              3199.2407
 Red. masses --      1.1081                 1.0872                 1.0924
 Frc consts  --      6.5014                 6.4841                 6.5875
 IR Inten    --      2.1187                 4.9353                17.3274

                     85                     86                     87
                      A                      A                      A
 Frequencies --   3207.2908              3214.9206              3220.0430
 Red. masses --      1.0903                 1.0887                 1.0934
 Frc consts  --      6.6082                 6.6297                 6.6797
 IR Inten    --      0.3928                 5.7183                 5.9998

                     88                     89                     90
                      A                      A                      A
 Frequencies --   3232.0441              3249.5068              3265.6255
 Red. masses --      1.0915                 1.0948                 1.0956
 Frc consts  --      6.7179                 6.8113                 6.8841
 IR Inten    --      4.2258                 0.7020                 1.4509

                     91                     92                     93
                      A                      A                      A
 Frequencies --   3487.6826              3536.6014              3644.5870
 Red. masses --      1.0756                 1.0471                 1.0987
 Frc consts  --      7.7089                 7.7160                 8.5984
 IR Inten    --     25.5352                17.3749                11.8043

 - Thermochemistry -
 -------------------
 Temperature   298.150 Kelvin.  Pressure   1.00000 Atm.
 Atom     1 has atomic number  6 and mass  12.00000

 Molecular mass:   283.08917 amu.
 Principal axes and moments of inertia in atomic units:
                           1         2         3
     Eigenvalues --  4120.690555255.182476339.77719
           X            0.99940   0.03474   0.00027
           Y           -0.03474   0.99932  -0.01229
           Z           -0.00069   0.01227   0.99992
 This molecule is an asymmetric top.
 Rotational symmetry number  1.
 Warning -- assumption of classical behavior for rotation
           may cause significant error
 Rotational temperatures (Kelvin)      0.02102     0.01648     0.01366
 Rotational constants (GHZ):           0.43797     0.34342     0.28467
 Zero-point vibrational energy     676141.6 (Joules/Mol)
                                  161.60172 (Kcal/Mol)
 Warning -- explicit consideration of  26 degrees of freedom as
           vibrations may cause significant error
 Vibrational temperatures:     40.11    69.59    98.41   118.74   133.67
          (Kelvin)            166.78   236.47   254.63   293.55   300.41
                              322.74   411.43   479.27   547.21   554.89
                              587.61   629.60   660.56   662.86   703.99
                              706.76   754.46   833.82   839.05   848.80
                              879.90   907.89   964.30   987.46   999.03
                             1039.20  1062.55  1083.99  1101.45  1110.82
                             1148.29  1191.49  1222.36  1282.97  1325.36
                             1338.09  1340.92  1351.06  1356.07  1375.22
                             1417.26  1421.82  1471.78  1478.70  1534.28
                             1583.62  1607.75  1617.80  1671.31  1680.34
                             1690.25  1698.29  1727.12  1741.92  1808.71
                             1835.90  1863.99  1880.29  1933.47  1967.49
                             1974.30  1998.39  2041.25  2045.19  2140.40
                             2145.67  2166.49  2209.90  2220.40  2280.32
                             2360.24  2372.49  2394.77  2439.98  2478.22
                             4450.33  4540.31  4577.58  4602.99  4614.58
                             4625.55  4632.92  4650.19  4675.32  4698.51
                             5018.00  5088.38  5243.75

 Zero-point correction=                           0.257529 (Hartree/Particle)
 Thermal correction to Energy=                    0.273841
 Thermal correction to Enthalpy=                  0.274785
 Thermal correction to Gibbs Free Energy=         0.213068
 Sum of electronic and zero-point Energies=          -1213.062368
 Sum of electronic and thermal Energies=             -1213.046056
 Sum of electronic and thermal Enthalpies=           -1213.045112
 Sum of electronic and thermal Free Energies=        -1213.106829

                     E (Thermal)             CV                S
                      KCal/Mol        Cal/Mol-Kelvin    Cal/Mol-Kelvin
 Total                  171.838             64.850            129.895
 Electronic               0.000              0.000              0.000
 Translational            0.889              2.981             42.820
 Rotational               0.889              2.981             33.284
 Vibrational            170.060             58.889             53.791
 Vibration     1          0.593              1.984              5.975
 Vibration     2          0.595              1.978              4.883
 Vibration     3          0.598              1.969              4.199
 Vibration     4          0.600              1.961              3.830
 Vibration     5          0.602              1.954              3.598
 Vibration     6          0.608              1.936              3.167
 Vibration     7          0.623              1.886              2.499
 Vibration     8          0.628              1.871              2.360
 Vibration     9          0.640              1.834              2.096
 Vibration    10          0.642              1.827              2.054
 Vibration    11          0.649              1.804              1.924
 Vibration    12          0.684              1.700              1.498
 Vibration    13          0.715              1.609              1.245
 Vibration    14          0.750              1.512              1.038
 Vibration    15          0.754              1.501              1.017
 Vibration    16          0.773              1.452              0.932
 Vibration    17          0.798              1.388              0.834
 Vibration    18          0.817              1.341              0.769
 Vibration    19          0.819              1.337              0.764
 Vibration    20          0.845              1.274              0.685
 Vibration    21          0.847              1.270              0.680
 Vibration    22          0.879              1.196              0.600
 Vibration    23          0.936              1.076              0.486
 Vibration    24          0.940              1.068              0.480
 Vibration    25          0.947              1.053              0.467
 Vibration    26          0.971              1.007              0.430

 Optimization completed.
    -- Stationary point found.
 Normal termination of Gaussian 16 at Sun Dec 13 21:10:26 2020.

 ----------------------------------------------------------------------
 # B3LYP/6-311++G(d,p) empiricaldispersion=gd3bj scf=xqc pop=npa geom=c
 heck
 ----------------------------------------------------------------------

 ---------------------------------------
 CID_62850712_JID_10532_Energie_neutraal
 ---------------------------------------
 Structure from the checkpoint file:  "JID_10532.chk"
 Charge =  0 Multiplicity = 1

 SCF Done:  E(RB3LYP) =  -1213.56400813     A.U. after   16 cycles
 Normal termination of Gaussian 16 at Sun Dec 13 21:17:31 2020.

 ----------------------------------------------------------------------
 # B3LYP/6-311++G(d,p) empiricaldispersion=gd3bj scf=xqc pop=npa geom=c
 heck
 ----------------------------------------------------------------------

 -------------------------------------
 CID_62850712_JID_10532_Energie_kation
 -------------------------------------
 Structure from the checkpoint file:  "JID_10532.chk"
 Charge =  1 Multiplicity = 2

 SCF Done:  E(UB3LYP) =  -1213.27196928     A.U. after   30 cycles
 Normal termination of Gaussian 16 at Sun Dec 13 21:35:19 2020.
 Gaussian 16:  ES64L-G16RevA.03 25-Dec-2016

 ----------------------------------------------------------------------
 # B3LYP/6-311++G(d,p) empiricaldispersion=gd3bj scf=xqc pop=npa geom=c
 heck
 ----------------------------------------------------------------------

 ------------------------------------
 CID_62850712_JID_10532_Energie_anion
 ------------------------------------
 Structure from the checkpoint file:  "JID_10532.chk"
 Charge = -1 Multiplicity = 2

                         Standard orientation:
 ---------------------------------------------------------------------
 Center     Atomic      Atomic             Coordinates (Angstroms)
 Number     Number       Type             X           Y           Z
 ---------------------------------------------------------------------
      1          6           0       -1.021415   -2.431199    1.729370
      2          6           0       -0.883677   -2.671935    0.387688
      3          6           0        0.186212   -2.054376   -0.303132
      4          7           0        0.519647   -2.055012   -1.596664
      5          7           0        1.602300   -1.241505   -1.737487
      6          6           0        1.936617   -0.746851   -0.555560
      7          7           0        1.060522   -1.233754    0.403602
      8          6           0        0.926064   -0.986496    1.747380
      9          6           0       -0.103939   -1.578107    2.415212
     10         16           0        3.118734    0.505438   -0.243117
     11          6           0        2.089818    1.976398   -0.793317
     12          6           0        0.716165    1.940623   -0.193050
     13          6           0       -0.326437    1.309830   -0.877764
     14          6           0       -1.579669    1.128460   -0.281127
     15          6           0       -1.791826    1.621432    1.013762
     16          6           0       -0.766614    2.279315    1.693062
     17          6           0        0.482866    2.432376    1.097974
     18          6           0       -2.663451    0.400879   -1.013229
     19          7           0       -2.514384   -0.544656   -1.864881
     20          7           0       -3.954729    0.783860   -0.651087
     21          1           0       -1.840394   -2.880587    2.281068
     22          1           0       -1.572237   -3.290086   -0.175068
     23          1           0        1.651508   -0.311401    2.180519
     24          1           0       -0.224478   -1.383387    3.474551
     25          1           0        2.667604    2.846134   -0.468012
     26          1           0        2.059480    1.954526   -1.884111
     27          1           0       -0.154514    0.931849   -1.880812
     28          1           0       -2.753895    1.464934    1.490035
     29          1           0       -0.939317    2.657930    2.696560
     30          1           0        1.290050    2.920050    1.638925
     31          1           0       -1.537393   -0.825310   -1.964344
     32          1           0       -4.093130    1.778816   -0.518804
     33          1           0       -4.650788    0.364895   -1.258633
 ---------------------------------------------------------------------

 SCF Done:  E(UB3LYP) =  -1213.57652949     A.U. after   32 cycles

 The electronic state is 2-A.
 Alpha  occ. eigenvalues --  -88.73889 -14.26164 -14.20605 -14.20523 -14.19025
 Alpha  occ. eigenvalues --  -14.14341 -10.12381 -10.11641 -10.10860 -10.09477
 Alpha  occ. eigenvalues --  -10.08104 -10.06347 -10.05921 -10.05590 -10.05589
 Alpha  occ. eigenvalues --  -10.05462 -10.05365 -10.05129 -10.05041 -10.04438
 Alpha  occ. eigenvalues --   -7.82482  -5.78891  -5.78524  -5.77837  -0.94090
 Alpha  occ. eigenvalues --   -0.82647  -0.82071  -0.74649  -0.72667  -0.72018
 Alpha  occ. eigenvalues --   -0.68563  -0.66622  -0.63704  -0.63240  -0.61061
 Alpha  occ. eigenvalues --   -0.55284  -0.53233  -0.51708  -0.50507  -0.48168
 Alpha  occ. eigenvalues --   -0.46727  -0.45305  -0.42320  -0.39638  -0.38483
 Alpha  occ. eigenvalues --   -0.37893  -0.36227  -0.35654  -0.35449  -0.34402
 Alpha  occ. eigenvalues --   -0.33247  -0.33020  -0.31681  -0.30930  -0.30301
 Alpha  occ. eigenvalues --   -0.28941  -0.26972  -0.26773  -0.25969  -0.24520
 Alpha  occ. eigenvalues --   -0.24148  -0.23502  -0.22994  -0.22015  -0.19930
 Alpha  occ. eigenvalues --   -0.19163  -0.15250  -0.14653  -0.14153  -0.13951
 Alpha  occ. eigenvalues --   -0.13245  -0.12796  -0.12086  -0.09606   0.03911
 Alpha virt. eigenvalues --    0.07066   0.07494   0.08158   0.08465   0.08802
 Alpha virt. eigenvalues --    0.09518   0.10238   0.10986   0.11591   0.11632
 Alpha virt. eigenvalues --    0.11928   0.12134   0.13197   0.13401   0.13720

  Beta  occ. eigenvalues --  -88.73870 -14.26016 -14.20605 -14.20463 -14.18964
  Beta  occ. eigenvalues --  -14.14201 -10.12414 -10.11641 -10.10899 -10.09443
  Beta  occ. eigenvalues --  -10.07794 -10.06273 -10.05957 -10.05624 -10.05621
  Beta  occ. eigenvalues --  -10.05295 -10.05241 -10.04958 -10.04919 -10.04213
  Beta  occ. eigenvalues --   -7.82462  -5.78858  -5.78494  -5.77824  -0.93920
  Beta  occ. eigenvalues --   -0.82559  -0.81809  -0.74458  -0.72507  -0.71836
  Beta  occ. eigenvalues --   -0.68314  -0.66409  -0.63338  -0.63022  -0.60810
  Beta  occ. eigenvalues --   -0.55146  -0.52873  -0.51436  -0.50380  -0.48016
  Beta  occ. eigenvalues --   -0.46572  -0.45178  -0.42246  -0.39491  -0.38391
  Beta  occ. eigenvalues --   -0.37672  -0.36019  -0.35542  -0.35093  -0.34258
  Beta  occ. eigenvalues --   -0.33059  -0.32914  -0.31610  -0.30806  -0.30162
  Beta  occ. eigenvalues --   -0.28820  -0.26657  -0.26590  -0.25687  -0.24395
  Beta  occ. eigenvalues --   -0.23656  -0.23280  -0.22784  -0.21630  -0.19543
  Beta  occ. eigenvalues --   -0.18552  -0.14758  -0.14187  -0.13847  -0.13683
  Beta  occ. eigenvalues --   -0.12959  -0.12530  -0.11311  -0.08724
  Beta virt. eigenvalues --    0.07432   0.07956   0.08200   0.08636   0.08830
  Beta virt. eigenvalues --    0.09259   0.09446   0.10260   0.10956   0.11604
  Beta virt. eigenvalues --    0.11690   0.11967   0.12119   0.13328   0.13400

 Mulliken charges and spin densities:
               1          2
     1  C   -0.444653   0.104407
     2  C   -0.410441   0.150268
     3  C   -0.081606  -0.046596
     4  N   -0.037524   0.026329
     5  N   -0.037750   0.023083
     6  C   -0.016607  -0.013479
     7  N    0.455786   0.014348
     8  C   -0.104480   0.228926
     9  C   -0.311615   0.026670
    10  S    0.121409   0.065270
    11  C   -1.039671  -0.000783
    12  C    0.801554  -0.000276
    13  C   -0.974017  -0.057880
    14  C    1.217908   0.125561
    15  C    0.066366   0.160070
    16  C   -0.621395  -0.041186
    17  C   -0.512097   0.203896
    18  C   -0.715785  -0.036052
    19  N   -0.359644   0.059008
    20  N   -0.284849   0.003390
    21  H    0.123312  -0.002400
    22  H    0.152880  -0.002159
    23  H    0.116234  -0.014570
    24  H    0.131003   0.011348
    25  H    0.197150  -0.002674
    26  H    0.214154   0.005464
    27  H    0.217052   0.012971
    28  H    0.173946   0.003667
    29  H    0.132525   0.002191
    30  H    0.132073  -0.012742
    31  H    0.228972   0.001243
    32  H    0.212053   0.004393
    33  H    0.257757  -0.001706
 Sum of Mulliken charges =  -1.00000   1.00000

 Dipole moment (field-independent basis, Debye):
    X=             -0.6456    Y=              4.6168    Z=              4.0554  Tot=              6.1789
 Quadrupole moment (field-independent basis, Debye-Ang):
   XX=           -150.4320   YY=           -147.0696   ZZ=           -147.8819
   XY=              1.4121   XZ=              0.1636   YZ=             -8.0853

 Summary of Natural Population Analysis:

                                       Natural Population
                Natural  -----------------------------------------------
    Atom  No    Charge         Core      Valence    Rydberg      Total
 -----------------------------------------------------------------------
      C    1   -0.07349      0.99958     2.06426    0.00964     3.07349
      C    2   -0.07739      0.99952     2.06935    0.00852     3.07739
      C    3    0.16696      0.99958     1.81647    0.01700     2.83304
      N    4   -0.17435      0.99970     2.66055    0.01410     3.67435
      N    5   -0.14257      0.99967     2.62835    0.01456     3.64257
      C    6    0.06325      0.99955     1.91481    0.02239     2.93675
      N    7   -0.18206      0.99956     2.66923    0.01327     3.68206
      C    8    0.07569      0.99956     1.91420    0.01054     2.92431
      C    9   -0.13499      0.99957     2.12651    0.00890     3.13499
      S   10    0.10609      4.99955     2.87493    0.01943     7.89391
      C   11   -0.23048      0.99954     2.22235    0.00858     3.23048
      C   12   -0.02730      0.99949     2.01506    0.01275     3.02730
      C   13   -0.09611      0.99949     2.08599    0.01063     3.09611
      C   14   -0.03131      0.99945     2.02001    0.01184     3.03131
      C   15   -0.07376      0.99954     2.06377    0.01045     3.07376
      C   16   -0.10723      0.99957     2.09925    0.00841     3.10723
      C   17   -0.06799      0.99951     2.06030    0.00818     3.06799
      C   18    0.20842      0.99962     1.77177    0.02019     2.79158
      N   19   -0.34232      0.99970     2.83346    0.00916     3.84232
      N   20   -0.40701      0.99972     2.89933    0.00797     3.90701
      H   21    0.09454      0.00000     0.40468    0.00078     0.40546
      H   22    0.10540      0.00000     0.39326    0.00133     0.39460
      H   23    0.10311      0.00000     0.39533    0.00156     0.39689
      H   24    0.09940      0.00000     0.39985    0.00075     0.40060
      H   25    0.10136      0.00000     0.39771    0.00093     0.39864
      H   26    0.10583      0.00000     0.39304    0.00113     0.39417
      H   27    0.10794      0.00000     0.39059    0.00146     0.39206
      H   28    0.10082      0.00000     0.39821    0.00098     0.39918
      H   29    0.09297      0.00000     0.40570    0.00133     0.40703
      H   30    0.09248      0.00000     0.40634    0.00118     0.40752
      H   31    0.17662      0.00000     0.32125    0.00213     0.32338
      H   32    0.18157      0.00000     0.31714    0.00129     0.31843
      H   33    0.18590      0.00000     0.31253    0.00157     0.31410
 =======================================================================
   * Total *   -0.00000     23.99147    49.74561    0.26291    74.00000

 Normal termination of Gaussian 16 at Sun Dec 13 21:54:27 2020.
