 Gaussian 16, Revision A.03,

 -----------------------------------------------------------
 # opt freq B3LYP/6-31G(d) empiricaldispersion=gd3bj scf=xqc
 -----------------------------------------------------------

 -------------------------------
 CID_63104060_JID_10911_neutraal
 -------------------------------
 Symbolic Z-matrix:
 Charge =  0 Multiplicity = 1

 SCF Done:  E(RB3LYP) =  -918.869836918     A.U. after   15 cycles
 SCF Done:  E(RB3LYP) =  -918.881547504     A.U. after   13 cycles
 SCF Done:  E(RB3LYP) =  -918.883468907     A.U. after   12 cycles
 SCF Done:  E(RB3LYP) =  -918.884099309     A.U. after   12 cycles
 SCF Done:  E(RB3LYP) =  -918.884291672     A.U. after   12 cycles
 SCF Done:  E(RB3LYP) =  -918.884514443     A.U. after   12 cycles
 SCF Done:  E(RB3LYP) =  -918.884550241     A.U. after   12 cycles
 SCF Done:  E(RB3LYP) =  -918.884598385     A.U. after   11 cycles
 SCF Done:  E(RB3LYP) =  -918.884612277     A.U. after   10 cycles
 SCF Done:  E(RB3LYP) =  -918.884623858     A.U. after   10 cycles
 SCF Done:  E(RB3LYP) =  -918.884685574     A.U. after    9 cycles
 SCF Done:  E(RB3LYP) =  -918.884685912     A.U. after    9 cycles
 SCF Done:  E(RB3LYP) =  -918.884685978     A.U. after    7 cycles
 SCF Done:  E(RB3LYP) =  -918.884685841     A.U. after    8 cycles
 Optimization completed.
    -- Stationary point found.
 Normal termination of Gaussian 16 at Sat Dec 12 16:59:09 2020.

 --------------------------------------------------------------------
 #N Geom=AllCheck Guess=TCheck SCRF=Check GenChk RB3LYP/6-31G(d) Freq
 --------------------------------------------------------------------

 Structure from the checkpoint file:  "JID_10911.chk"
 -------------------------------
 CID_63104060_JID_10911_neutraal
 -------------------------------
 Charge =  0 Multiplicity = 1

 SCF Done:  E(RB3LYP) =  -918.884685841     A.U. after    1 cycles

  Exact polarizability: 164.427 -22.787 180.097  -8.527   4.630 161.107
 Approx polarizability: 232.669 -53.589 250.744 -16.853   9.729 288.738

                      1                      2                      3
                      A                      A                      A
 Frequencies --     18.4738                24.0576                50.4397
 Red. masses --      4.6412                 5.1618                 3.7843
 Frc consts  --      0.0009                 0.0018                 0.0057
 IR Inten    --      0.7182                 0.2266                 1.4028

                      4                      5                      6
                      A                      A                      A
 Frequencies --     58.0407                77.0545                88.4454
 Red. masses --      3.5433                 3.8369                 2.5672
 Frc consts  --      0.0070                 0.0134                 0.0118
 IR Inten    --      3.5350                 0.3563                 7.6654

                      7                      8                      9
                      A                      A                      A
 Frequencies --    118.7441               128.4656               146.4395
 Red. masses --      3.3476                 3.1498                 2.5452
 Frc consts  --      0.0278                 0.0306                 0.0322
 IR Inten    --      0.6927                 4.7093                 0.8284

                     10                     11                     12
                      A                      A                      A
 Frequencies --    164.8480               185.2324               209.9461
 Red. masses --      3.2727                 2.8206                 4.6947
 Frc consts  --      0.0524                 0.0570                 0.1219
 IR Inten    --      1.3780                 1.0231                 0.3153

                     13                     14                     15
                      A                      A                      A
 Frequencies --    239.9306               248.3382               263.0847
 Red. masses --      1.2661                 1.5362                 3.4501
 Frc consts  --      0.0429                 0.0558                 0.1407
 IR Inten    --      0.2318                 1.3215                 2.5978

                     16                     17                     18
                      A                      A                      A
 Frequencies --    275.7561               319.5547               339.1094
 Red. masses --      2.0929                 3.6357                 3.3160
 Frc consts  --      0.0938                 0.2187                 0.2247
 IR Inten    --      1.3276                 8.0528                 2.2838

                     19                     20                     21
                      A                      A                      A
 Frequencies --    354.5141               384.9715               426.0981
 Red. masses --      4.3984                 5.1238                 2.5999
 Frc consts  --      0.3257                 0.4474                 0.2781
 IR Inten    --      0.4371                 2.8756                 2.1281

                     22                     23                     24
                      A                      A                      A
 Frequencies --    427.2294               458.7314               497.2649
 Red. masses --      2.3476                 4.6263                 3.4179
 Frc consts  --      0.2525                 0.5736                 0.4979
 IR Inten    --      3.2451                 2.9302                 7.3786

                     25                     26                     27
                      A                      A                      A
 Frequencies --    524.7410               540.5321               577.9228
 Red. masses --      3.5968                 3.5509                 3.5163
 Frc consts  --      0.5835                 0.6113                 0.6919
 IR Inten    --      8.6983                 5.8996                 5.3151

                     28                     29                     30
                      A                      A                      A
 Frequencies --    609.9359               615.1575               661.7948
 Red. masses --      5.7342                 3.5219                 4.1481
 Frc consts  --      1.2569                 0.7852                 1.0704
 IR Inten    --      2.4855                13.3078                19.2307

                     31                     32                     33
                      A                      A                      A
 Frequencies --    678.0455               723.0192               728.1152
 Red. masses --      5.9478                 4.4834                 4.8230
 Frc consts  --      1.6111                 1.3809                 1.5065
 IR Inten    --      6.2882                 5.9481                15.1679

                     34                     35                     36
                      A                      A                      A
 Frequencies --    750.3623               800.3382               823.3804
 Red. masses --      4.1808                 2.4085                 1.7420
 Frc consts  --      1.3869                 0.9089                 0.6958
 IR Inten    --     28.5848                59.8415                34.0293

                     37                     38                     39
                      A                      A                      A
 Frequencies --    824.0041               837.5549               862.6433
 Red. masses --      1.8391                 5.0097                 2.7431
 Frc consts  --      0.7357                 2.0706                 1.2027
 IR Inten    --     33.0185                 8.1285                 1.5981

                     40                     41                     42
                      A                      A                      A
 Frequencies --    869.4565               914.8779               917.4810
 Red. masses --      1.3844                 1.5058                 1.3038
 Frc consts  --      0.6166                 0.7426                 0.6466
 IR Inten    --     26.3272                 1.6060                 0.4505

                     43                     44                     45
                      A                      A                      A
 Frequencies --    920.2116               957.0491               974.3467
 Red. masses --      3.2009                 1.5033                 7.3178
 Frc consts  --      1.5970                 0.8113                 4.0931
 IR Inten    --     18.4081                 2.8308                37.8145

                     46                     47                     48
                      A                      A                      A
 Frequencies --    980.6890               993.8549              1014.6321
 Red. masses --      1.4686                 2.8858                 1.7532
 Frc consts  --      0.8322                 1.6794                 1.0634
 IR Inten    --      2.7263                 4.3668                 8.4475

                     49                     50                     51
                      A                      A                      A
 Frequencies --   1027.5921              1077.3917              1087.0542
 Red. masses --      2.9905                 4.4774                 2.2291
 Frc consts  --      1.8605                 3.0622                 1.5520
 IR Inten    --      3.3574               108.9328                 5.6384

                     52                     53                     54
                      A                      A                      A
 Frequencies --   1097.1508              1128.9081              1132.5757
 Red. masses --      2.6630                 2.5548                 1.9160
 Frc consts  --      1.8887                 1.9184                 1.4481
 IR Inten    --      4.4092                13.5420                 5.1267

                     55                     56                     57
                      A                      A                      A
 Frequencies --   1148.1943              1150.5163              1155.7711
 Red. masses --      2.3805                 2.0326                 1.5864
 Frc consts  --      1.8491                 1.5852                 1.2485
 IR Inten    --     30.8968                18.4678                12.8658

                     58                     59                     60
                      A                      A                      A
 Frequencies --   1169.6801              1177.4659              1188.2713
 Red. masses --      1.4351                 1.7841                 1.6316
 Frc consts  --      1.1568                 1.4573                 1.3574
 IR Inten    --      8.4237                11.7084                 4.5534

                     61                     62                     63
                      A                      A                      A
 Frequencies --   1209.4838              1215.5351              1227.9057
 Red. masses --      1.2147                 1.5551                 1.8877
 Frc consts  --      1.0469                 1.3538                 1.6769
 IR Inten    --      1.4275                 4.0567                11.7093

                     64                     65                     66
                      A                      A                      A
 Frequencies --   1237.4040              1260.3013              1287.1825
 Red. masses --      1.8420                 1.4222                 1.4132
 Frc consts  --      1.6617                 1.3310                 1.3795
 IR Inten    --     19.6766                18.0892                 3.1310

                     67                     68                     69
                      A                      A                      A
 Frequencies --   1292.8065              1304.3660              1307.9515
 Red. masses --      4.1022                 1.4673                 1.5684
 Frc consts  --      4.0396                 1.4709                 1.5809
 IR Inten    --    250.1659                10.9066               102.8094

                     70                     71                     72
                      A                      A                      A
 Frequencies --   1337.9034              1353.4165              1368.7674
 Red. masses --      2.1697                 1.3418                 1.6997
 Frc consts  --      2.2882                 1.4481                 1.8762
 IR Inten    --     39.0952                 9.5701                10.1536

                     73                     74                     75
                      A                      A                      A
 Frequencies --   1375.5397              1399.9305              1410.2528
 Red. masses --      1.3660                 1.5961                 1.4421
 Frc consts  --      1.5228                 1.8430                 1.6898
 IR Inten    --     12.0711                28.6525                 0.9696

                     76                     77                     78
                      A                      A                      A
 Frequencies --   1432.0530              1442.2563              1448.8089
 Red. masses --      2.7537                 1.3007                 1.3721
 Frc consts  --      3.3273                 1.5941                 1.6969
 IR Inten    --     26.0618                 3.0156                 2.8693

                     79                     80                     81
                      A                      A                      A
 Frequencies --   1472.3648              1480.6422              1492.7871
 Red. masses --      2.2836                 1.2124                 3.1454
 Frc consts  --      2.9168                 1.5660                 4.1297
 IR Inten    --     73.2617                 7.5677                74.1980

                     82                     83                     84
                      A                      A                      A
 Frequencies --   1500.9958              1511.5632              1515.6272
 Red. masses --      1.0963                 1.1212                 1.1174
 Frc consts  --      1.4553                 1.5094                 1.5123
 IR Inten    --      4.9864                 4.8002                23.9783

                     85                     86                     87
                      A                      A                      A
 Frequencies --   1520.6540              1527.3377              1529.4957
 Red. masses --      1.0988                 1.0529                 1.0444
 Frc consts  --      1.4970                 1.4472                 1.4395
 IR Inten    --      7.1597                 3.1438                 4.9423

                     88                     89                     90
                      A                      A                      A
 Frequencies --   1542.2569              1549.0382              1551.6880
 Red. masses --      2.7535                 1.0677                 1.1176
 Frc consts  --      3.8587                 1.5095                 1.5854
 IR Inten    --    209.3779                15.1550                 9.1908

                     91                     92                     93
                      A                      A                      A
 Frequencies --   1574.5482              1669.1601              1683.3926
 Red. masses --      1.1606                 6.9802                 7.7101
 Frc consts  --      1.6953                11.4581                12.8731
 IR Inten    --      0.4941                 5.6116                 0.4228

                     94                     95                     96
                      A                      A                      A
 Frequencies --   1801.0897              2993.3883              3000.6276
 Red. masses --     11.4381                 1.0524                 1.0717
 Frc consts  --     21.8612                 5.5560                 5.6853
 IR Inten    --    283.8183                59.7532                57.6745

                     97                     98                     99
                      A                      A                      A
 Frequencies --   3028.5594              3036.2147              3041.4349
 Red. masses --      1.0667                 1.0844                 1.0725
 Frc consts  --      5.7645                 5.8897                 5.8452
 IR Inten    --    125.7428                16.2904                11.8532

                    100                    101                    102
                      A                      A                      A
 Frequencies --   3042.3535              3053.1327              3064.5073
 Red. masses --      1.0418                 1.0751                 1.0640
 Frc consts  --      5.6811                 5.9046                 5.8874
 IR Inten    --     23.4193                28.6337                45.7927

                    103                    104                    105
                      A                      A                      A
 Frequencies --   3076.8837              3092.2939              3107.3710
 Red. masses --      1.0829                 1.0920                 1.1018
 Frc consts  --      6.0401                 6.1521                 6.2680
 IR Inten    --     49.8389                22.9418                40.9199

                    106                    107                    108
                      A                      A                      A
 Frequencies --   3116.1776              3120.9294              3122.3117
 Red. masses --      1.1019                 1.1046                 1.1017
 Frc consts  --      6.3041                 6.3393                 6.3282
 IR Inten    --     23.9559                53.8401                37.5851

                    109                    110                    111
                      A                      A                      A
 Frequencies --   3124.6470              3134.2607              3183.4258
 Red. masses --      1.1007                 1.0946                 1.0888
 Frc consts  --      6.3318                 6.3353                 6.5009
 IR Inten    --      8.5978                12.5869                10.6742

                    112                    113                    114
                      A                      A                      A
 Frequencies --   3225.6407              3229.0692              3480.1348
 Red. masses --      1.0932                 1.0914                 1.0736
 Frc consts  --      6.7015                 6.7051                 7.6609
 IR Inten    --      6.6673                 0.3559                 0.4416

 - Thermochemistry -
 -------------------
 Temperature   298.150 Kelvin.  Pressure   1.00000 Atm.
 Atom     1 has atomic number  6 and mass  12.00000

 Molecular mass:   276.14739 amu.
 Principal axes and moments of inertia in atomic units:
                           1         2         3
     Eigenvalues --  4709.238785888.102127894.21378
           X            0.99682   0.07674  -0.02126
           Y           -0.07688   0.99702  -0.00590
           Z            0.02074   0.00751   0.99976
 This molecule is an asymmetric top.
 Rotational symmetry number  1.
 Warning -- assumption of classical behavior for rotation
           may cause significant error
 Rotational temperatures (Kelvin)      0.01839     0.01471     0.01097
 Rotational constants (GHZ):           0.38323     0.30651     0.22862
 Zero-point vibrational energy     892733.3 (Joules/Mol)
                                  213.36839 (Kcal/Mol)
 Warning -- explicit consideration of  29 degrees of freedom as
           vibrations may cause significant error
 Vibrational temperatures:     26.58    34.61    72.57    83.51   110.86
          (Kelvin)            127.25   170.85   184.83   210.69   237.18
                              266.51   302.07   345.21   357.30   378.52
                              396.75   459.77   487.90   510.07   553.89
                              613.06   614.69   660.01   715.45   754.99
                              777.71   831.50   877.56   885.07   952.18
                              975.56  1040.26  1047.60  1079.60  1151.51
                             1184.66  1185.56  1205.05  1241.15  1250.95
                             1316.31  1320.05  1323.98  1376.98  1401.87
                             1410.99  1429.94  1459.83  1478.48  1550.13
                             1564.03  1578.56  1624.25  1629.52  1652.00
                             1655.34  1662.90  1682.91  1694.11  1709.66
                             1740.18  1748.88  1766.68  1780.35  1813.29
                             1851.97  1860.06  1876.69  1881.85  1924.94
                             1947.26  1969.35  1979.09  2014.19  2029.04
                             2060.40  2075.09  2084.51  2118.40  2130.31
                             2147.79  2159.60  2174.80  2180.65  2187.88
                             2197.50  2200.60  2218.96  2228.72  2232.53
                             2265.42  2401.55  2422.03  2591.37  4306.82
                             4317.23  4357.42  4368.44  4375.95  4377.27
                             4392.78  4409.14  4426.95  4449.12  4470.81
                             4483.48  4490.32  4492.31  4495.67  4509.50
                             4580.24  4640.98  4645.91  5007.14

 Zero-point correction=                           0.340024 (Hartree/Particle)
 Thermal correction to Energy=                    0.358745
 Thermal correction to Enthalpy=                  0.359689
 Thermal correction to Gibbs Free Energy=         0.291251
 Sum of electronic and zero-point Energies=           -918.544662
 Sum of electronic and thermal Energies=              -918.525941
 Sum of electronic and thermal Enthalpies=            -918.524997
 Sum of electronic and thermal Free Energies=         -918.593435

                     E (Thermal)             CV                S
                      KCal/Mol        Cal/Mol-Kelvin    Cal/Mol-Kelvin
 Total                  225.116             70.980            144.040
 Electronic               0.000              0.000              0.000
 Translational            0.889              2.981             42.746
 Rotational               0.889              2.981             33.748
 Vibrational            223.338             65.018             67.547
 Vibration     1          0.593              1.986              6.792
 Vibration     2          0.593              1.985              6.267
 Vibration     3          0.595              1.977              4.800
 Vibration     4          0.596              1.974              4.523
 Vibration     5          0.599              1.964              3.965
 Vibration     6          0.601              1.957              3.694
 Vibration     7          0.609              1.934              3.121
 Vibration     8          0.611              1.925              2.969
 Vibration     9          0.617              1.907              2.718
 Vibration    10          0.623              1.886              2.493
 Vibration    11          0.631              1.860              2.275
 Vibration    12          0.642              1.826              2.044
 Vibration    13          0.657              1.779              1.803
 Vibration    14          0.662              1.766              1.742
 Vibration    15          0.670              1.740              1.641
 Vibration    16          0.677              1.718              1.560
 Vibration    17          0.705              1.636              1.312
 Vibration    18          0.719              1.597              1.216
 Vibration    19          0.730              1.566              1.146
 Vibration    20          0.754              1.502              1.020
 Vibration    21          0.788              1.413              0.871
 Vibration    22          0.789              1.411              0.868
 Vibration    23          0.817              1.342              0.770
 Vibration    24          0.853              1.256              0.665
 Vibration    25          0.880              1.195              0.599
 Vibration    26          0.896              1.160              0.564
 Vibration    27          0.934              1.079              0.489
 Vibration    28          0.969              1.011              0.433
 Vibration    29          0.975              1.000              0.424

 Optimization completed.
    -- Stationary point found.
 Normal termination of Gaussian 16 at Sat Dec 12 17:21:14 2020.

 ----------------------------------------------------------------------
 # B3LYP/6-311++G(d,p) empiricaldispersion=gd3bj scf=xqc pop=npa geom=c
 heck
 ----------------------------------------------------------------------

 ---------------------------------------
 CID_63104060_JID_10911_Energie_neutraal
 ---------------------------------------
 Structure from the checkpoint file:  "JID_10911.chk"
 Charge =  0 Multiplicity = 1

 SCF Done:  E(RB3LYP) =  -919.139171520     A.U. after   16 cycles
 Normal termination of Gaussian 16 at Sat Dec 12 17:31:49 2020.

 ----------------------------------------------------------------------
 # B3LYP/6-311++G(d,p) empiricaldispersion=gd3bj scf=xqc pop=npa geom=c
 heck
 ----------------------------------------------------------------------

 -------------------------------------
 CID_63104060_JID_10911_Energie_kation
 -------------------------------------
 Structure from the checkpoint file:  "JID_10911.chk"
 Charge =  1 Multiplicity = 2

 SCF Done:  E(UB3LYP) =  -918.857699269     A.U. after   33 cycles
 SCF Done:  E(UB3LYP) =  -918.857699269     a.u. after    2 cycles
 Normal termination of Gaussian 16 at Sat Dec 12 18:29:28 2020.
 Gaussian 16:  ES64L-G16RevA.03 25-Dec-2016

 ----------------------------------------------------------------------
 # B3LYP/6-311++G(d,p) empiricaldispersion=gd3bj scf=xqc pop=npa geom=c
 heck
 ----------------------------------------------------------------------

 ------------------------------------
 CID_63104060_JID_10911_Energie_anion
 ------------------------------------
 Structure from the checkpoint file:  "JID_10911.chk"
 Charge = -1 Multiplicity = 2

                         Standard orientation:
 ---------------------------------------------------------------------
 Center     Atomic      Atomic             Coordinates (Angstroms)
 Number     Number       Type             X           Y           Z
 ---------------------------------------------------------------------
      1          6           0       -3.159389   -2.592312    1.607262
      2          6           0       -2.249073   -1.709492    0.761384
      3          6           0       -2.262793   -2.001761   -0.747768
      4          6           0       -1.876974   -0.668688   -1.383679
      5          8           0       -1.441270   -0.481669   -2.510938
      6          7           0       -2.117042    0.307234   -0.450044
      7          6           0       -2.600098   -0.206882    0.822377
      8          6           0       -1.769360    1.690698   -0.679294
      9          6           0       -0.604720    2.179697    0.213160
     10          6           0        0.469370    1.113572    0.389155
     11          6           0        1.089185    0.539240   -0.743715
     12          6           0        2.041269   -0.429709   -0.519755
     13          6           0        2.399688   -0.840149    0.764952
     14          6           0        1.816704   -0.291891    1.887142
     15          6           0        0.841285    0.701079    1.669710
     16          8           0        3.379871   -1.801089    0.687722
     17          6           0        3.495012   -2.118081   -0.705530
     18          8           0        2.786420   -1.120598   -1.445969
     19          7           0       -0.144306    3.456200   -0.336879
     20          6           0        0.839767    4.138924    0.497963
     21          1           0       -2.861307   -3.644350    1.540330
     22          1           0       -4.200754   -2.516334    1.270974
     23          1           0       -3.125043   -2.302295    2.664206
     24          1           0       -1.213743   -1.808369    1.112612
     25          1           0       -1.573198   -2.788648   -1.061802
     26          1           0       -3.267612   -2.280372   -1.095087
     27          1           0       -3.685019   -0.045943    0.925338
     28          1           0       -2.104930    0.292195    1.661552
     29          1           0       -1.486417    1.755486   -1.733731
     30          1           0       -2.633974    2.346487   -0.526069
     31          1           0       -1.002127    2.405758    1.211524
     32          1           0        0.792425    0.799336   -1.753415
     33          1           0        2.101673   -0.607060    2.884756
     34          1           0        0.357793    1.156377    2.530103
     35          1           0        4.549314   -2.105857   -0.994037
     36          1           0        3.045501   -3.103251   -0.893928
     37          1           0        0.256910    3.286586   -1.258536
     38          1           0        1.737051    3.540631    0.727131
     39          1           0        1.152804    5.061926    0.000048
     40          1           0        0.370674    4.415043    1.449803
 ---------------------------------------------------------------------

 SCF Done:  E(UB3LYP) =  -919.128122998     A.U. after   33 cycles
 SCF Done:  E(UB3LYP) =  -919.128122998     a.u. after    1 cycles

 The electronic state is 2-A.
 Alpha  occ. eigenvalues --  -19.08370 -19.08331 -18.99554 -14.24796 -14.21930
 Alpha  occ. eigenvalues --  -10.20611 -10.17469 -10.14890 -10.14819 -10.11957
 Alpha  occ. eigenvalues --  -10.11608 -10.11326 -10.10192 -10.09244 -10.09228
 Alpha  occ. eigenvalues --  -10.09155 -10.09047 -10.08586 -10.08410 -10.07050
 Alpha  occ. eigenvalues --   -1.04611  -0.95472  -0.94635  -0.86057  -0.82818
 Alpha  occ. eigenvalues --   -0.77521  -0.72721  -0.68891  -0.67093  -0.65271
 Alpha  occ. eigenvalues --   -0.62996  -0.60751  -0.59113  -0.57102  -0.54890
 Alpha  occ. eigenvalues --   -0.53876  -0.51099  -0.49592  -0.45310  -0.44567
 Alpha  occ. eigenvalues --   -0.43981  -0.43326  -0.41648  -0.41271  -0.40195
 Alpha  occ. eigenvalues --   -0.38108  -0.37448  -0.36333  -0.35810  -0.35152
 Alpha  occ. eigenvalues --   -0.34586  -0.33414  -0.32941  -0.32567  -0.32293
 Alpha  occ. eigenvalues --   -0.31083  -0.30977  -0.30377  -0.29913  -0.29080
 Alpha  occ. eigenvalues --   -0.28675  -0.28369  -0.27462  -0.27387  -0.26509
 Alpha  occ. eigenvalues --   -0.25874  -0.24674  -0.23928  -0.22739  -0.16643
 Alpha  occ. eigenvalues --   -0.16412  -0.15488  -0.14816  -0.12611   0.03948
 Alpha virt. eigenvalues --    0.05737   0.06159   0.06871   0.07187   0.07425
 Alpha virt. eigenvalues --    0.08096   0.08290   0.08609   0.09003   0.09524
 Alpha virt. eigenvalues --    0.09759   0.10114   0.10778   0.11114   0.11444

  Beta  occ. eigenvalues --  -19.08368 -19.08331 -18.99552 -14.24795 -14.21927
  Beta  occ. eigenvalues --  -10.20586 -10.17468 -10.14887 -10.14818 -10.11947
  Beta  occ. eigenvalues --  -10.11605 -10.11300 -10.10175 -10.09230 -10.09227
  Beta  occ. eigenvalues --  -10.09147 -10.09040 -10.08568 -10.08399 -10.07011
  Beta  occ. eigenvalues --   -1.04606  -0.95469  -0.94631  -0.86048  -0.82807
  Beta  occ. eigenvalues --   -0.77504  -0.72702  -0.68870  -0.67065  -0.65247
  Beta  occ. eigenvalues --   -0.62963  -0.60707  -0.59073  -0.57065  -0.54868
  Beta  occ. eigenvalues --   -0.53853  -0.51072  -0.49541  -0.45286  -0.44544
  Beta  occ. eigenvalues --   -0.43959  -0.43298  -0.41611  -0.41241  -0.40160
  Beta  occ. eigenvalues --   -0.38085  -0.37420  -0.36315  -0.35789  -0.35126
  Beta  occ. eigenvalues --   -0.34557  -0.33390  -0.32919  -0.32541  -0.32268
  Beta  occ. eigenvalues --   -0.31061  -0.30946  -0.30371  -0.29888  -0.29055
  Beta  occ. eigenvalues --   -0.28661  -0.28352  -0.27441  -0.27353  -0.26489
  Beta  occ. eigenvalues --   -0.25849  -0.24641  -0.23901  -0.22716  -0.16617
  Beta  occ. eigenvalues --   -0.16399  -0.15478  -0.14804  -0.12597
  Beta virt. eigenvalues --    0.05967   0.06525   0.06656   0.07091   0.07689
  Beta virt. eigenvalues --    0.07929   0.08345   0.08660   0.08832   0.09176
  Beta virt. eigenvalues --    0.09790   0.10192   0.10252   0.11082   0.11238

 Mulliken charges and spin densities:
               1          2
     1  C    1.077078  -1.796861
     2  C   -1.980039   2.285092
     3  C    0.578272  -1.238293
     4  C   -0.291843   0.311626
     5  O   -0.347007   0.004066
     6  N    0.243339   0.033049
     7  C    0.979483  -1.225375
     8  C   -0.419389   0.132209
     9  C    0.331693  -1.476014
    10  C    0.876686   0.334106
    11  C   -1.149578   0.815065
    12  C   -0.380597   0.022345
    13  C    1.287958  -1.284933
    14  C   -0.683813   0.219183
    15  C   -0.222888  -0.090773
    16  O   -0.156284   0.037955
    17  C    0.826613  -0.893332
    18  O   -0.115006   0.022775
    19  N    0.027114   0.043460
    20  C    0.099955  -0.456276
    21  H   -0.333406   0.482579
    22  H   -0.097462   0.232588
    23  H   -0.348031   0.506098
    24  H    0.273807  -0.071351
    25  H    0.085831   0.097350
    26  H    0.066220   0.121259
    27  H   -0.263904   0.458612
    28  H   -0.038869   0.185914
    29  H    0.171786   0.024665
    30  H    0.059583   0.115577
    31  H    0.073040   0.149142
    32  H    0.119439   0.111016
    33  H   -0.542218   0.743960
    34  H   -0.648940   0.848513
    35  H   -0.157935   0.344328
    36  H   -0.214719   0.405886
    37  H    0.241980   0.000761
    38  H    0.105019   0.031507
    39  H    0.006639   0.127849
    40  H   -0.139610   0.284671
 Sum of Mulliken charges =  -1.00000   1.00000

 Dipole moment (field-independent basis, Debye):
    X=              1.9711    Y=              2.3715    Z=             -4.2729  Tot=              5.2694
 Quadrupole moment (field-independent basis, Debye-Ang):
   XX=           -179.3612   YY=           -176.5651   ZZ=           -179.8644
   XY=             -0.9605   XZ=              5.4427   YZ=             -1.9849

 Summary of Natural Population Analysis:

                                       Natural Population
                Natural  -----------------------------------------------
    Atom  No    Charge         Core      Valence    Rydberg      Total
 -----------------------------------------------------------------------
      C    1   -0.28311      0.99965     2.27772    0.00575     3.28311
      C    2   -0.11741      0.99961     2.10808    0.00972     3.11741
      C    3   -0.22634      0.99958     2.21827    0.00849     3.22634
      C    4    0.35283      0.99963     1.62452    0.02301     2.64717
      O    5   -0.32798      0.99987     3.32287    0.00524     4.32798
      N    6   -0.25543      0.99963     2.74578    0.01002     3.75543
      C    7   -0.07404      0.99960     2.06407    0.01037     3.07404
      C    8   -0.08543      0.99959     2.07304    0.01280     3.08543
      C    9   -0.02027      0.99955     2.00588    0.01485     3.02027
      C   10   -0.03075      0.99950     2.01901    0.01224     3.03075
      C   11   -0.12559      0.99946     2.11603    0.01010     3.12559
      C   12    0.13466      0.99933     1.85239    0.01362     2.86534
      C   13    0.12950      0.99933     1.85728    0.01389     2.87050
      C   14   -0.11888      0.99952     2.10916    0.01021     3.11888
      C   15   -0.10278      0.99951     2.09218    0.01109     3.10278
      O   16   -0.27134      0.99987     3.26383    0.00764     4.27134
      C   17    0.15716      0.99963     1.82980    0.01341     2.84284
      O   18   -0.26973      0.99987     3.26270    0.00716     4.26973
      N   19   -0.33287      0.99974     2.82265    0.01047     3.83287
      C   20   -0.17889      0.99966     2.17250    0.00673     3.17889
      H   21    0.10221      0.00000     0.39660    0.00119     0.39779
      H   22    0.09615      0.00000     0.40268    0.00117     0.40385
      H   23    0.10433      0.00000     0.39422    0.00146     0.39567
      H   24    0.10162      0.00000     0.39540    0.00298     0.39838
      H   25    0.11223      0.00000     0.38673    0.00104     0.38777
      H   26    0.10608      0.00000     0.39288    0.00104     0.39392
      H   27    0.08985      0.00000     0.40890    0.00125     0.41015
      H   28    0.10189      0.00000     0.39620    0.00191     0.39811
      H   29    0.11017      0.00000     0.38847    0.00136     0.38983
      H   30    0.10058      0.00000     0.39825    0.00117     0.39942
      H   31    0.09714      0.00000     0.40041    0.00245     0.40286
      H   32    0.11488      0.00000     0.38336    0.00175     0.38512
      H   33    0.11024      0.00000     0.38833    0.00142     0.38976
      H   34    0.10545      0.00000     0.39232    0.00222     0.39455
      H   35    0.07951      0.00000     0.41815    0.00233     0.42049
      H   36    0.07449      0.00000     0.42295    0.00256     0.42551
      H   37    0.16904      0.00000     0.32822    0.00274     0.33096
      H   38    0.08564      0.00000     0.41283    0.00153     0.41436
      H   39    0.09190      0.00000     0.40724    0.00085     0.40810
      H   40    0.09326      0.00000     0.40538    0.00136     0.40674
 =======================================================================
   * Total *    0.00000     19.99212    53.75730    0.25058    74.00000

 Normal termination of Gaussian 16 at Sat Dec 12 19:00:27 2020.
