 Gaussian 16, Revision A.03,

 -----------------------------------------------------------
 # opt freq B3LYP/6-31G(d) empiricaldispersion=gd3bj scf=xqc
 -----------------------------------------------------------

 ------------------------------
 CID_143301484_JID_290_neutraal
 ------------------------------
 Symbolic Z-matrix:
 Charge =  0 Multiplicity = 1

 SCF Done:  E(RB3LYP) =  -456.269364205     A.U. after   16 cycles
 SCF Done:  E(RB3LYP) =  -456.285799922     A.U. after   15 cycles
 SCF Done:  E(RB3LYP) =  -456.287662236     A.U. after   13 cycles
 SCF Done:  E(RB3LYP) =  -456.288582231     A.U. after   15 cycles
 SCF Done:  E(RB3LYP) =  -456.289895604     A.U. after   13 cycles
 SCF Done:  E(RB3LYP) =  -456.291040017     A.U. after   14 cycles
 SCF Done:  E(RB3LYP) =  -456.291461156     A.U. after   12 cycles
 SCF Done:  E(RB3LYP) =  -456.291776069     A.U. after   12 cycles
 SCF Done:  E(RB3LYP) =  -456.292184901     A.U. after   13 cycles
 SCF Done:  E(RB3LYP) =  -456.292928571     A.U. after   14 cycles
 SCF Done:  E(RB3LYP) =  -456.293796406     A.U. after   15 cycles
 SCF Done:  E(RB3LYP) =  -456.294197533     A.U. after   12 cycles
 SCF Done:  E(RB3LYP) =  -456.294266891     A.U. after   12 cycles
 SCF Done:  E(RB3LYP) =  -456.294278627     A.U. after   11 cycles
 SCF Done:  E(RB3LYP) =  -456.294280569     A.U. after   10 cycles
 SCF Done:  E(RB3LYP) =  -456.294280752     A.U. after    8 cycles
 Optimization completed.
    -- Stationary point found.
 Normal termination of Gaussian 16 at Tue Dec  8 10:23:33 2020.

 --------------------------------------------------------------------
 #N Geom=AllCheck Guess=TCheck SCRF=Check GenChk RB3LYP/6-31G(d) Freq
 --------------------------------------------------------------------

 Structure from the checkpoint file:  "JID_290.chk"
 ------------------------------
 CID_143301484_JID_290_neutraal
 ------------------------------
 Charge =  0 Multiplicity = 1

 SCF Done:  E(RB3LYP) =  -456.294280752     A.U. after    1 cycles

  Exact polarizability: 124.700 -10.960  80.832  -2.456   8.418  54.974
 Approx polarizability: 215.546 -29.446 128.380  -8.561  19.462  81.983

                      1                      2                      3
                      A                      A                      A
 Frequencies --     58.8179                87.1618               129.9779
 Red. masses --      5.9686                 7.6049                 3.4118
 Frc consts  --      0.0122                 0.0340                 0.0340
 IR Inten    --      0.7949                 1.5540                 0.3643

                      4                      5                      6
                      A                      A                      A
 Frequencies --    213.4274               238.7801               247.0308
 Red. masses --      5.2774                 1.0668                 2.9824
 Frc consts  --      0.1416                 0.0358                 0.1072
 IR Inten    --      5.0801                 0.2035                 0.2502

                      7                      8                      9
                      A                      A                      A
 Frequencies --    325.5167               396.7766               435.7791
 Red. masses --      2.2205                 5.0287                 7.9673
 Frc consts  --      0.1386                 0.4664                 0.8914
 IR Inten    --      0.5913                 7.5906                 1.1895

                     10                     11                     12
                      A                      A                      A
 Frequencies --    515.7474               544.1584               602.8875
 Red. masses --      2.5760                12.0310                 5.4827
 Frc consts  --      0.4037                 2.0989                 1.1741
 IR Inten    --      4.0298                16.5800                 5.8837

                     13                     14                     15
                      A                      A                      A
 Frequencies --    628.3311               644.5312               734.2582
 Red. masses --      7.4638                 3.6683                 4.3434
 Frc consts  --      1.7362                 0.8978                 1.3797
 IR Inten    --     23.4508                 8.6469                27.6738

                     16                     17                     18
                      A                      A                      A
 Frequencies --    830.7871               864.6655               892.7627
 Red. masses --      2.8306                 1.5278                 1.9047
 Frc consts  --      1.1511                 0.6730                 0.8944
 IR Inten    --     21.5592                15.7998                11.5721

                     19                     20                     21
                      A                      A                      A
 Frequencies --    935.9322               966.8445               983.3264
 Red. masses --      2.7624                 1.5974                 1.8182
 Frc consts  --      1.4257                 0.8798                 1.0358
 IR Inten    --      3.5434                 1.4795                12.2329

                     22                     23                     24
                      A                      A                      A
 Frequencies --   1036.7957              1074.1427              1116.5046
 Red. masses --      1.9051                 1.9732                 3.8359
 Frc consts  --      1.2066                 1.3414                 2.8173
 IR Inten    --     15.0039                 0.9637                 3.3976

                     25                     26                     27
                      A                      A                      A
 Frequencies --   1134.3244              1147.5524              1274.0469
 Red. masses --      2.4175                 1.6584                 1.1153
 Frc consts  --      1.8327                 1.2867                 1.0666
 IR Inten    --      3.3233                11.3835                 2.4687

                     28                     29                     30
                      A                      A                      A
 Frequencies --   1323.0583              1347.0393              1361.4007
 Red. masses --      1.5274                 1.4633                 1.4670
 Frc consts  --      1.5753                 1.5644                 1.6020
 IR Inten    --      6.4525                 3.0195                 1.2174

                     31                     32                     33
                      A                      A                      A
 Frequencies --   1401.8021              1416.8134              1436.3909
 Red. masses --      1.5071                 1.3940                 1.2392
 Frc consts  --      1.7449                 1.6487                 1.5063
 IR Inten    --     13.9855                13.0250                 7.9455

                     34                     35                     36
                      A                      A                      A
 Frequencies --   1503.9752              1515.3536              1527.1543
 Red. masses --      1.1261                 3.8236                 1.0778
 Frc consts  --      1.5007                 5.1730                 1.4810
 IR Inten    --      1.1611                 2.9242                 8.0845

                     37                     38                     39
                      A                      A                      A
 Frequencies --   1530.0566              1650.9361              1731.0349
 Red. masses --      1.2088                 8.4805                 6.8683
 Frc consts  --      1.6673                13.6187                12.1258
 IR Inten    --      8.7536               224.2361                82.2709

                     40                     41                     42
                      A                      A                      A
 Frequencies --   2365.8473              3014.3100              3045.7544
 Red. masses --     12.6970                 1.0704                 1.0837
 Frc consts  --     41.8722                 5.7304                 5.9230
 IR Inten    --   1420.1831                30.0205                28.6744

                     43                     44                     45
                      A                      A                      A
 Frequencies --   3055.8266              3087.2287              3122.8041
 Red. masses --      1.0351                 1.0936                 1.1029
 Frc consts  --      5.6950                 6.1410                 6.3368
 IR Inten    --     17.9288                29.7598                22.4178

                     46                     47                     48
                      A                      A                      A
 Frequencies --   3130.2071              3136.5059              3220.5783
 Red. masses --      1.0891                 1.1029                 1.0929
 Frc consts  --      6.2870                 6.3926                 6.6786
 IR Inten    --     54.0029                16.2268                 7.3261

 - Thermochemistry -
 -------------------
 Temperature   298.150 Kelvin.  Pressure   1.00000 Atm.
 Atom     1 has atomic number  6 and mass  12.00000

 Molecular mass:   136.06366 amu.
 Principal axes and moments of inertia in atomic units:
                           1         2         3
     Eigenvalues --   623.690792072.795842418.85274
           X            0.99999  -0.00220   0.00266
           Y            0.00221   0.99999  -0.00295
           Z           -0.00266   0.00296   0.99999
 This molecule is an asymmetric top.
 Rotational symmetry number  1.
 Warning -- assumption of classical behavior for rotation
           may cause significant error
 Rotational temperatures (Kelvin)      0.13887     0.04179     0.03581
 Rotational constants (GHZ):           2.89365     0.87068     0.74611
 Zero-point vibrational energy     376733.6 (Joules/Mol)
                                   90.04150 (Kcal/Mol)
 Warning -- explicit consideration of  12 degrees of freedom as
           vibrations may cause significant error
 Vibrational temperatures:     84.63   125.41   187.01   307.07   343.55
          (Kelvin)            355.42   468.35   570.87   626.99   742.05
                              782.92   867.42   904.03   927.34  1056.43
                             1195.32  1244.06  1284.49  1346.60  1391.07
                             1414.79  1491.72  1545.45  1606.40  1632.04
                             1651.07  1833.07  1903.59  1938.09  1958.75
                             2016.88  2038.48  2066.65  2163.88  2180.26
                             2197.23  2201.41  2375.33  2490.57  3403.93
                             4336.92  4382.16  4396.65  4441.83  4493.02
                             4503.67  4512.73  4633.69

 Zero-point correction=                           0.143490 (Hartree/Particle)
 Thermal correction to Energy=                    0.152560
 Thermal correction to Enthalpy=                  0.153504
 Thermal correction to Gibbs Free Energy=         0.108838
 Sum of electronic and zero-point Energies=           -456.150790
 Sum of electronic and thermal Energies=              -456.141721
 Sum of electronic and thermal Enthalpies=            -456.140777
 Sum of electronic and thermal Free Energies=         -456.185443

                     E (Thermal)             CV                S
                      KCal/Mol        Cal/Mol-Kelvin    Cal/Mol-Kelvin
 Total                   95.733             33.281             94.007
 Electronic               0.000              0.000              0.000
 Translational            0.889              2.981             40.636
 Rotational               0.889              2.981             29.526
 Vibrational             93.955             27.319             23.844
 Vibration     1          0.596              1.974              4.496
 Vibration     2          0.601              1.958              3.723
 Vibration     3          0.612              1.923              2.946
 Vibration     4          0.644              1.820              2.014
 Vibration     5          0.657              1.781              1.812
 Vibration     6          0.661              1.768              1.752
 Vibration     7          0.710              1.624              1.282
 Vibration     8          0.763              1.477              0.975
 Vibration     9          0.796              1.392              0.840
 Vibration    10          0.871              1.215              0.620
 Vibration    11          0.899              1.152              0.556
 Vibration    12          0.961              1.026              0.445

 Optimization completed.
    -- Stationary point found.
 Normal termination of Gaussian 16 at Tue Dec  8 10:26:38 2020.

 ----------------------------------------------------------------------
 # B3LYP/6-311++G(d,p) empiricaldispersion=gd3bj scf=xqc pop=npa geom=c
 heck
 ----------------------------------------------------------------------

 --------------------------------------
 CID_143301484_JID_290_Energie_neutraal
 --------------------------------------
 Structure from the checkpoint file:  "JID_290.chk"
 Charge =  0 Multiplicity = 1

 SCF Done:  E(RB3LYP) =  -456.421729855     A.U. after   15 cycles
 Normal termination of Gaussian 16 at Tue Dec  8 10:27:40 2020.

 ----------------------------------------------------------------------
 # B3LYP/6-311++G(d,p) empiricaldispersion=gd3bj scf=xqc pop=npa geom=c
 heck
 ----------------------------------------------------------------------

 ------------------------------------
 CID_143301484_JID_290_Energie_kation
 ------------------------------------
 Structure from the checkpoint file:  "JID_290.chk"
 Charge =  1 Multiplicity = 2

 SCF Done:  E(UB3LYP) =  -456.102961566     A.U. after   24 cycles
 Normal termination of Gaussian 16 at Tue Dec  8 10:30:29 2020.
 Gaussian 16:  ES64L-G16RevA.03 25-Dec-2016

 ----------------------------------------------------------------------
 # B3LYP/6-311++G(d,p) empiricaldispersion=gd3bj scf=xqc pop=npa geom=c
 heck
 ----------------------------------------------------------------------

 -----------------------------------
 CID_143301484_JID_290_Energie_anion
 -----------------------------------
 Structure from the checkpoint file:  "JID_290.chk"
 Charge = -1 Multiplicity = 2

                         Standard orientation:
 ---------------------------------------------------------------------
 Center     Atomic      Atomic             Coordinates (Angstroms)
 Number     Number       Type             X           Y           Z
 ---------------------------------------------------------------------
      1          6           0        0.186739    1.696580   -1.017888
      2          6           0        0.265640    0.869849    0.278546
      3          6           0        1.680066    0.857437    0.885764
      4          7           0        2.653970   -0.007171    0.214129
      5          6           0        2.181635   -1.091057   -0.282389
      6          6           0        0.772716   -1.487806   -0.279381
      7          6           0       -0.160609   -0.559719    0.009283
      8          7           0       -1.512614   -0.864445   -0.041015
      9          6           0       -2.571641   -0.294843    0.121456
     10          8           0       -3.663087    0.125959    0.245718
     11          1           0        0.428640    2.745047   -0.812826
     12          1           0       -0.815548    1.659442   -1.458038
     13          1           0        0.899727    1.317771   -1.756713
     14          1           0       -0.417444    1.308602    1.017531
     15          1           0        2.079675    1.877204    0.901712
     16          1           0        1.625161    0.522079    1.933129
     17          1           0        2.894353   -1.779353   -0.742524
     18          1           0        0.493366   -2.499802   -0.552162
 ---------------------------------------------------------------------

 SCF Done:  E(UB3LYP) =  -456.429683861     A.U. after   26 cycles

 The electronic state is 2-A.
 Alpha  occ. eigenvalues --  -19.02682 -14.20126 -14.11177 -10.15348 -10.04359
 Alpha  occ. eigenvalues --  -10.04010 -10.03878 -10.02988 -10.02549  -9.99683
 Alpha  occ. eigenvalues --   -0.96661  -0.81811  -0.75256  -0.65468  -0.61234
 Alpha  occ. eigenvalues --   -0.54893  -0.49783  -0.46528  -0.40281  -0.37201
 Alpha  occ. eigenvalues --   -0.33796  -0.33148  -0.32729  -0.31507  -0.29958
 Alpha  occ. eigenvalues --   -0.27829  -0.26894  -0.24781  -0.23007  -0.22217
 Alpha  occ. eigenvalues --   -0.20882  -0.19963  -0.15635  -0.15295  -0.08175
 Alpha  occ. eigenvalues --   -0.07505   0.05362
 Alpha virt. eigenvalues --    0.09151   0.10603   0.11083   0.11400   0.13134
 Alpha virt. eigenvalues --    0.13244   0.13898   0.14891   0.14968   0.15332
 Alpha virt. eigenvalues --    0.17441   0.18053   0.18405   0.19202   0.19262

  Beta  occ. eigenvalues --  -19.02518 -14.20256 -14.10696 -10.15119 -10.04025
  Beta  occ. eigenvalues --  -10.03905 -10.03823 -10.02947 -10.02422  -9.99611
  Beta  occ. eigenvalues --   -0.96343  -0.81610  -0.74591  -0.64996  -0.60769
  Beta  occ. eigenvalues --   -0.54681  -0.49155  -0.46376  -0.39891  -0.36926
  Beta  occ. eigenvalues --   -0.33563  -0.32491  -0.32232  -0.31142  -0.29706
  Beta  occ. eigenvalues --   -0.27537  -0.26745  -0.24413  -0.22507  -0.22025
  Beta  occ. eigenvalues --   -0.20618  -0.19209  -0.15256  -0.14234  -0.07630
  Beta  occ. eigenvalues --   -0.05519
  Beta virt. eigenvalues --    0.08962   0.10604   0.11013   0.11309   0.12096
  Beta virt. eigenvalues --    0.13090   0.13197   0.13937   0.14851   0.15112
  Beta virt. eigenvalues --    0.15363   0.17362   0.18077   0.18446   0.19179

 Mulliken charges and spin densities:
               1          2
     1  C   -0.398785  -0.218999
     2  C    0.246078   0.346716
     3  C   -0.308748  -0.256392
     4  N   -0.166073   0.230057
     5  C   -0.494501   0.120693
     6  C    0.142877   0.102684
     7  C   -0.417422   0.056978
     8  N   -0.069981  -0.049172
     9  C    0.308380   0.113545
    10  O   -0.349277   0.041924
    11  H   -0.011619   0.115207
    12  H    0.088637   0.036376
    13  H    0.139644   0.018086
    14  H   -0.039224   0.208266
    15  H    0.137008   0.000935
    16  H   -0.022133   0.138309
    17  H    0.095065  -0.006946
    18  H    0.120074   0.001733
 Sum of Mulliken charges =  -1.00000   1.00000

 Dipole moment (field-independent basis, Debye):
    X=             -1.9791    Y=              0.6968    Z=             -0.7551  Tot=              2.2299
 Quadrupole moment (field-independent basis, Debye-Ang):
   XX=           -104.6459   YY=            -72.4614   ZZ=            -68.5715
   XY=              1.8113   XZ=             -0.0824   YZ=              1.0972

 Summary of Natural Population Analysis:

                                       Natural Population
                Natural  -----------------------------------------------
    Atom  No    Charge         Core      Valence    Rydberg      Total
 -----------------------------------------------------------------------
      C    1   -0.28136      0.99965     2.27490    0.00681     3.28136
      C    2   -0.13469      0.99958     2.12471    0.01041     3.13469
      C    3   -0.10051      0.99961     2.08522    0.01568     3.10051
      N    4   -0.18804      0.99971     2.67440    0.01393     3.68804
      C    5    0.05451      0.99963     1.93017    0.01569     2.94549
      C    6   -0.14505      0.99947     2.13475    0.01083     3.14505
      C    7    0.17266      0.99939     1.81311    0.01485     2.82734
      N    8   -0.28758      0.99949     2.77944    0.00865     3.78758
      C    9    0.44580      0.99961     1.53618    0.01840     2.55420
      O   10   -0.26674      0.99987     3.25953    0.00734     4.26674
      H   11    0.09149      0.00000     0.40711    0.00140     0.40851
      H   12    0.09382      0.00000     0.40526    0.00092     0.40618
      H   13    0.10274      0.00000     0.39651    0.00075     0.39726
      H   14    0.09809      0.00000     0.39980    0.00211     0.40191
      H   15    0.08543      0.00000     0.41276    0.00181     0.41457
      H   16    0.09348      0.00000     0.40485    0.00167     0.40652
      H   17    0.07104      0.00000     0.42702    0.00195     0.42896
      H   18    0.09492      0.00000     0.40402    0.00106     0.40508
 =======================================================================
   * Total *    0.00000      9.99600    25.86972    0.13429    36.00000

 Normal termination of Gaussian 16 at Tue Dec  8 10:33:52 2020.
