 Gaussian 16, Revision A.03,

 -----------------------------------------------------------
 # opt freq B3LYP/6-31G(d) empiricaldispersion=gd3bj scf=xqc
 -----------------------------------------------------------

 -------------------------------
 CID_102866222_JID_4673_neutraal
 -------------------------------
 Symbolic Z-matrix:
 Charge =  0 Multiplicity = 1

 SCF Done:  E(RB3LYP) =  -637.034970492     A.U. after   14 cycles
 SCF Done:  E(RB3LYP) =  -637.043438377     A.U. after   12 cycles
 SCF Done:  E(RB3LYP) =  -637.041410758     A.U. after   12 cycles
 SCF Done:  E(RB3LYP) =  -637.043889865     A.U. after   12 cycles
 SCF Done:  E(RB3LYP) =  -637.044625881     A.U. after   12 cycles
 SCF Done:  E(RB3LYP) =  -637.044705810     A.U. after   12 cycles
 SCF Done:  E(RB3LYP) =  -637.045207881     A.U. after   12 cycles
 SCF Done:  E(RB3LYP) =  -637.045427707     A.U. after   10 cycles
 SCF Done:  E(RB3LYP) =  -637.045435650     A.U. after   10 cycles
 SCF Done:  E(RB3LYP) =  -637.045450840     A.U. after    9 cycles
 SCF Done:  E(RB3LYP) =  -637.045459097     A.U. after    8 cycles
 SCF Done:  E(RB3LYP) =  -637.045459812     A.U. after    8 cycles
 SCF Done:  E(RB3LYP) =  -637.045460010     A.U. after    7 cycles
 SCF Done:  E(RB3LYP) =  -637.045460122     A.U. after    7 cycles
 SCF Done:  E(RB3LYP) =  -637.045460160     A.U. after    7 cycles
 Optimization completed.
    -- Stationary point found.
 Normal termination of Gaussian 16 at Thu Dec 10 10:26:18 2020.

 --------------------------------------------------------------------
 #N Geom=AllCheck Guess=TCheck SCRF=Check GenChk RB3LYP/6-31G(d) Freq
 --------------------------------------------------------------------

 Structure from the checkpoint file:  "JID_4673.chk"
 -------------------------------
 CID_102866222_JID_4673_neutraal
 -------------------------------
 Charge =  0 Multiplicity = 1

 SCF Done:  E(RB3LYP) =  -637.045460160     A.U. after    1 cycles

  Exact polarizability: 141.746  -3.910 132.268  -0.043   3.448 104.842
 Approx polarizability: 177.572   1.765 188.339   1.690  11.649 155.979

                      1                      2                      3
                      A                      A                      A
 Frequencies --     51.2092                56.7627                68.8506
 Red. masses --      3.6030                 3.2986                 4.1382
 Frc consts  --      0.0056                 0.0063                 0.0116
 IR Inten    --      1.5572                 0.3856                 0.6317

                      4                      5                      6
                      A                      A                      A
 Frequencies --     80.7313                91.9840               102.3280
 Red. masses --      3.8256                 3.4149                 2.6566
 Frc consts  --      0.0147                 0.0170                 0.0164
 IR Inten    --      1.1310                 0.4630                 4.2741

                      7                      8                      9
                      A                      A                      A
 Frequencies --    140.0787               175.2383               200.6161
 Red. masses --      2.8563                 3.0976                 1.4452
 Frc consts  --      0.0330                 0.0560                 0.0343
 IR Inten    --      1.6453                11.9311                 0.7315

                     10                     11                     12
                      A                      A                      A
 Frequencies --    205.9023               228.7433               233.2129
 Red. masses --      1.9922                 1.8117                 2.0814
 Frc consts  --      0.0498                 0.0559                 0.0667
 IR Inten    --      0.5722                24.0239                23.3837

                     13                     14                     15
                      A                      A                      A
 Frequencies --    246.0812               277.1413               294.7316
 Red. masses --      1.3556                 1.5085                 1.6902
 Frc consts  --      0.0484                 0.0683                 0.0865
 IR Inten    --      1.7730                31.0173                31.9393

                     16                     17                     18
                      A                      A                      A
 Frequencies --    339.7591               345.7259               364.4019
 Red. masses --      2.5946                 2.8099                 2.9018
 Frc consts  --      0.1765                 0.1979                 0.2270
 IR Inten    --      1.2983                 4.6196                 2.0495

                     19                     20                     21
                      A                      A                      A
 Frequencies --    421.2026               465.8331               493.1736
 Red. masses --      3.2372                 3.3651                 2.6070
 Frc consts  --      0.3384                 0.4302                 0.3736
 IR Inten    --      5.0007                 3.2952                 9.7820

                     22                     23                     24
                      A                      A                      A
 Frequencies --    543.5495               566.8837               669.8882
 Red. masses --      3.6174                 2.7913                 2.1945
 Frc consts  --      0.6297                 0.5285                 0.5802
 IR Inten    --     12.1931                 1.1920                 6.9955

                     25                     26                     27
                      A                      A                      A
 Frequencies --    748.7855               761.9603               773.2017
 Red. masses --      2.7088                 2.7393                 1.6948
 Frc consts  --      0.8948                 0.9370                 0.5970
 IR Inten    --      2.0228                 3.7257                 1.7279

                     28                     29                     30
                      A                      A                      A
 Frequencies --    796.4542               809.1852               894.1290
 Red. masses --      1.7949                 1.2534                 1.9822
 Frc consts  --      0.6708                 0.4835                 0.9337
 IR Inten    --      2.6970                 1.7126                 2.0048

                     31                     32                     33
                      A                      A                      A
 Frequencies --    911.1243               918.7307               933.3259
 Red. masses --      2.2546                 2.2183                 2.5211
 Frc consts  --      1.1028                 1.1032                 1.2939
 IR Inten    --      2.3273                 1.2745                 0.9832

                     34                     35                     36
                      A                      A                      A
 Frequencies --    949.2522               952.7808               968.0166
 Red. masses --      2.0835                 1.2346                 2.8079
 Frc consts  --      1.1061                 0.6603                 1.5502
 IR Inten    --     38.7007                 4.0801                 4.8283

                     37                     38                     39
                      A                      A                      A
 Frequencies --    975.5335               987.1128              1046.9048
 Red. masses --      1.2166                 1.4001                 2.4330
 Frc consts  --      0.6822                 0.8038                 1.5711
 IR Inten    --      1.5020                 0.2165                 2.1636

                     40                     41                     42
                      A                      A                      A
 Frequencies --   1058.7721              1080.5562              1100.8231
 Red. masses --      2.2842                 2.0079                 2.9868
 Frc consts  --      1.5087                 1.3813                 2.1325
 IR Inten    --     66.6847                15.4039                14.1564

                     43                     44                     45
                      A                      A                      A
 Frequencies --   1123.1652              1137.0568              1144.2685
 Red. masses --      2.1253                 2.5465                 1.9372
 Frc consts  --      1.5797                 1.9398                 1.4945
 IR Inten    --     40.5170                 1.2165                14.0998

                     46                     47                     48
                      A                      A                      A
 Frequencies --   1157.6739              1198.8660              1206.1601
 Red. masses --      1.7830                 1.7072                 1.4107
 Frc consts  --      1.4079                 1.4457                 1.2092
 IR Inten    --      7.1271                 8.9730                 1.4996

                     49                     50                     51
                      A                      A                      A
 Frequencies --   1230.0734              1251.9022              1256.5615
 Red. masses --      1.5583                 1.4189                 1.1459
 Frc consts  --      1.3892                 1.3102                 1.0660
 IR Inten    --      2.7166                10.4155                12.1129

                     52                     53                     54
                      A                      A                      A
 Frequencies --   1264.4738              1271.3877              1272.5714
 Red. masses --      1.3079                 1.3091                 1.7477
 Frc consts  --      1.2321                 1.2467                 1.6676
 IR Inten    --      0.7647                 1.4981                22.2818

                     55                     56                     57
                      A                      A                      A
 Frequencies --   1302.8450              1310.4817              1320.6231
 Red. masses --      1.5814                 1.4915                 1.8528
 Frc consts  --      1.5815                 1.5092                 1.9039
 IR Inten    --    125.1922                 1.3209                21.8257

                     58                     59                     60
                      A                      A                      A
 Frequencies --   1346.4481              1359.3881              1367.1968
 Red. masses --      1.3082                 1.2636                 1.3250
 Frc consts  --      1.3974                 1.3758                 1.4592
 IR Inten    --     20.7057                 1.5836                 2.4473

                     61                     62                     63
                      A                      A                      A
 Frequencies --   1380.3201              1413.8796              1431.9766
 Red. masses --      1.2911                 1.4456                 1.3165
 Frc consts  --      1.4493                 1.7026                 1.5906
 IR Inten    --      3.3405                23.6879                 5.5431

                     64                     65                     66
                      A                      A                      A
 Frequencies --   1439.4220              1449.6586              1464.1340
 Red. masses --      1.3622                 1.3749                 1.5262
 Frc consts  --      1.6629                 1.7024                 1.9276
 IR Inten    --     14.7384                33.4933                71.5215

                     67                     68                     69
                      A                      A                      A
 Frequencies --   1471.7438              1505.3840              1517.4050
 Red. masses --      1.5602                 1.0973                 1.0869
 Frc consts  --      1.9911                 1.4652                 1.4745
 IR Inten    --     41.8498                 4.7511                 1.9172

                     70                     71                     72
                      A                      A                      A
 Frequencies --   1518.8069              1521.9388              1527.5869
 Red. masses --      1.0824                 1.0533                 1.0640
 Frc consts  --      1.4711                 1.4375                 1.4629
 IR Inten    --      1.6163                 0.5738                 4.5100

                     73                     74                     75
                      A                      A                      A
 Frequencies --   1532.1905              1545.0190              1550.1156
 Red. masses --      1.0513                 1.1350                 1.0794
 Frc consts  --      1.4542                 1.5963                 1.5281
 IR Inten    --      1.7115                10.4736                 9.7060

                     76                     77                     78
                      A                      A                      A
 Frequencies --   1551.9496              1554.6156              1729.6802
 Red. masses --      1.0870                 1.0578                10.0118
 Frc consts  --      1.5425                 1.5063                17.6480
 IR Inten    --      6.9526                10.0723               254.5003

                     79                     80                     81
                      A                      A                      A
 Frequencies --   2985.7704              3022.1994              3050.6201
 Red. masses --      1.0610                 1.1012                 1.0383
 Frc consts  --      5.5728                 5.9262                 5.6930
 IR Inten    --     64.9523                61.5444                28.9320

                     82                     83                     84
                      A                      A                      A
 Frequencies --   3053.8741              3060.5052              3070.9799
 Red. masses --      1.0376                 1.0730                 1.0639
 Frc consts  --      5.7015                 5.9214                 5.9114
 IR Inten    --     23.2795                12.7679                23.5575

                     85                     86                     87
                      A                      A                      A
 Frequencies --   3077.1179              3080.5193              3081.2168
 Red. masses --      1.0582                 1.0588                 1.0852
 Frc consts  --      5.9033                 5.9198                 6.0701
 IR Inten    --     47.8205                53.4912                 3.7710

                     88                     89                     90
                      A                      A                      A
 Frequencies --   3084.7300              3107.0719              3107.6317
 Red. masses --      1.0645                 1.0900                 1.1013
 Frc consts  --      5.9683                 6.2000                 6.2665
 IR Inten    --     12.3118                 2.8801                32.3214

                     91                     92                     93
                      A                      A                      A
 Frequencies --   3112.9084              3116.6878              3122.0415
 Red. masses --      1.1014                 1.1013                 1.1050
 Frc consts  --      6.2884                 6.3031                 6.3459
 IR Inten    --     27.1277                40.3637                10.3711

                     94                     95                     96
                      A                      A                      A
 Frequencies --   3129.6256              3135.0432              3149.5152
 Red. masses --      1.1015                 1.1052                 1.1058
 Frc consts  --      6.3565                 6.4000                 6.4627
 IR Inten    --     33.2306                36.6282                50.7209

                     97                     98                     99
                      A                      A                      A
 Frequencies --   3151.2760              3218.0039              3761.9670
 Red. masses --      1.0989                 1.0865                 1.0665
 Frc consts  --      6.4298                 6.6293                 8.8931
 IR Inten    --     13.0655                 7.0760                18.5638

 - Thermochemistry -
 -------------------
 Temperature   298.150 Kelvin.  Pressure   1.00000 Atm.
 Atom     1 has atomic number  6 and mass  12.00000

 Molecular mass:   199.15723 amu.
 Principal axes and moments of inertia in atomic units:
                           1         2         3
     Eigenvalues --  2441.568203290.182074971.85783
           X            0.99827  -0.05884   0.00102
           Y            0.05885   0.99823  -0.00814
           Z           -0.00054   0.00819   0.99997
 This molecule is an asymmetric top.
 Rotational symmetry number  1.
 Warning -- assumption of classical behavior for rotation
           may cause significant error
 Rotational temperatures (Kelvin)      0.03547     0.02632     0.01742
 Rotational constants (GHZ):           0.73917     0.54852     0.36299
 Zero-point vibrational energy     829233.1 (Joules/Mol)
                                  198.19147 (Kcal/Mol)
 Warning -- explicit consideration of  23 degrees of freedom as
           vibrations may cause significant error
 Vibrational temperatures:     73.68    81.67    99.06   116.15   132.34
          (Kelvin)            147.23   201.54   252.13   288.64   296.25
                              329.11   335.54   354.06   398.74   424.05
                              488.84   497.42   524.29   606.02   670.23
                              709.57   782.05   815.62   963.82  1077.34
                             1096.29  1112.46  1145.92  1164.24  1286.45
                             1310.90  1321.85  1342.85  1365.76  1370.84
                             1392.76  1403.58  1420.24  1506.26  1523.34
                             1554.68  1583.84  1615.98  1635.97  1646.35
                             1665.63  1724.90  1735.40  1769.80  1801.21
                             1807.91  1819.30  1829.24  1830.95  1874.50
                             1885.49  1900.08  1937.24  1955.86  1967.09
                             1985.97  2034.26  2060.29  2071.01  2085.74
                             2106.56  2117.51  2165.91  2183.21  2185.22
                             2189.73  2197.86  2204.48  2222.94  2230.27
                             2232.91  2236.75  2488.62  4295.86  4348.27
                             4389.16  4393.84  4403.38  4418.46  4427.29
                             4432.18  4433.18  4438.24  4470.38  4471.19
                             4478.78  4484.22  4491.92  4502.83  4510.63
                             4531.45  4533.98  4629.99  5412.63

 Zero-point correction=                           0.315838 (Hartree/Particle)
 Thermal correction to Energy=                    0.331792
 Thermal correction to Enthalpy=                  0.332737
 Thermal correction to Gibbs Free Energy=         0.272541
 Sum of electronic and zero-point Energies=           -636.729622
 Sum of electronic and thermal Energies=              -636.713668
 Sum of electronic and thermal Enthalpies=            -636.712724
 Sum of electronic and thermal Free Energies=         -636.772920

                     E (Thermal)             CV                S
                      KCal/Mol        Cal/Mol-Kelvin    Cal/Mol-Kelvin
 Total                  208.203             59.086            126.693
 Electronic               0.000              0.000              0.000
 Translational            0.889              2.981             41.772
 Rotational               0.889              2.981             32.057
 Vibrational            206.425             53.124             52.864
 Vibration     1          0.595              1.977              4.770
 Vibration     2          0.596              1.975              4.567
 Vibration     3          0.598              1.969              4.186
 Vibration     4          0.600              1.962              3.873
 Vibration     5          0.602              1.955              3.617
 Vibration     6          0.604              1.947              3.409
 Vibration     7          0.615              1.913              2.803
 Vibration     8          0.627              1.873              2.379
 Vibration     9          0.638              1.839              2.127
 Vibration    10          0.640              1.831              2.080
 Vibration    11          0.651              1.797              1.889
 Vibration    12          0.654              1.790              1.854
 Vibration    13          0.661              1.769              1.758
 Vibration    14          0.678              1.716              1.551
 Vibration    15          0.689              1.684              1.447
 Vibration    16          0.720              1.596              1.213
 Vibration    17          0.724              1.584              1.186
 Vibration    18          0.738              1.546              1.103
 Vibration    19          0.784              1.424              0.888
 Vibration    20          0.823              1.326              0.749
 Vibration    21          0.849              1.265              0.675
 Vibration    22          0.899              1.154              0.558
 Vibration    23          0.923              1.103              0.510

                           ! Non-Optimized Parameters !
 Normal termination of Gaussian 16 at Thu Dec 10 10:38:02 2020.

 ----------------------------------------------------------------------
 # B3LYP/6-311++G(d,p) empiricaldispersion=gd3bj scf=xqc pop=npa geom=c
 heck
 ----------------------------------------------------------------------

 ---------------------------------------
 CID_102866222_JID_4673_Energie_neutraal
 ---------------------------------------
 Structure from the checkpoint file:  "JID_4673.chk"
 Charge =  0 Multiplicity = 1

 SCF Done:  E(RB3LYP) =  -637.237208556     A.U. after   14 cycles
 Normal termination of Gaussian 16 at Thu Dec 10 10:43:32 2020.

 ----------------------------------------------------------------------
 # B3LYP/6-311++G(d,p) empiricaldispersion=gd3bj scf=xqc pop=npa geom=c
 heck
 ----------------------------------------------------------------------

 -------------------------------------
 CID_102866222_JID_4673_Energie_kation
 -------------------------------------
 Structure from the checkpoint file:  "JID_4673.chk"
 Charge =  1 Multiplicity = 2

 SCF Done:  E(UB3LYP) =  -636.935689052     A.U. after   23 cycles
 Normal termination of Gaussian 16 at Thu Dec 10 10:56:58 2020.
 Gaussian 16:  ES64L-G16RevA.03 25-Dec-2016

 ----------------------------------------------------------------------
 # B3LYP/6-311++G(d,p) empiricaldispersion=gd3bj scf=xqc pop=npa geom=c
 heck
 ----------------------------------------------------------------------

 ------------------------------------
 CID_102866222_JID_4673_Energie_anion
 ------------------------------------
 Structure from the checkpoint file:  "JID_4673.chk"
 Charge = -1 Multiplicity = 2

                         Standard orientation:
 ---------------------------------------------------------------------
 Center     Atomic      Atomic             Coordinates (Angstroms)
 Number     Number       Type             X           Y           Z
 ---------------------------------------------------------------------
      1          6           0        2.475794   -0.974755   -1.084066
      2          6           0        1.660221   -1.881142   -0.144733
      3          6           0        2.255263   -1.961428    1.272300
      4          6           0        0.137814   -1.648151   -0.147147
      5          8           0       -0.592983   -2.563883   -0.526299
      6          7           0       -0.420263   -0.472295    0.305861
      7          6           0        0.320471    0.736799    0.633141
      8          6           0        0.338704    1.789456   -0.485892
      9          6           0        1.241072    2.965742   -0.141167
     10          8           0        2.565103    2.465454    0.035182
     11          6           0       -1.881214   -0.444765    0.304011
     12          6           0       -2.661988    0.686329    1.016295
     13          6           0       -3.740845    0.545925   -0.093738
     14          6           0       -2.675297   -0.138299   -0.991550
     15          1           0        2.625884    0.037371   -0.700918
     16          1           0        1.998183   -0.902094   -2.067849
     17          1           0        3.468376   -1.416116   -1.232595
     18          1           0        1.709501   -2.891111   -0.562339
     19          1           0        2.303831   -0.989761    1.773321
     20          1           0        1.668239   -2.637840    1.902660
     21          1           0        3.278099   -2.352026    1.219737
     22          1           0       -0.107435    1.175756    1.542135
     23          1           0        1.344125    0.473364    0.877966
     24          1           0        0.688749    1.324649   -1.413883
     25          1           0       -0.671632    2.167965   -0.677481
     26          1           0        1.205057    3.711936   -0.949503
     27          1           0        0.882178    3.455963    0.779250
     28          1           0        3.142464    3.205497    0.273638
     29          1           0       -2.214148   -1.413175    0.682844
     30          1           0       -2.954148    0.518633    2.057568
     31          1           0       -2.166954    1.658909    0.946241
     32          1           0       -4.198683    1.468338   -0.461406
     33          1           0       -4.535583   -0.148126    0.196223
     34          1           0       -2.151891    0.587241   -1.622306
     35          1           0       -2.969308   -0.996143   -1.600113
 ---------------------------------------------------------------------

 SCF Done:  E(UB3LYP) =  -637.227933109     A.U. after   33 cycles
 SCF Done:  E(UB3LYP) =  -637.227933109     a.u. after    1 cycles

 The electronic state is 2-A.
 Alpha  occ. eigenvalues --  -19.01342 -18.98719 -14.24356 -10.17081 -10.11065
 Alpha  occ. eigenvalues --  -10.10759 -10.10436 -10.09327 -10.07860 -10.07829
 Alpha  occ. eigenvalues --  -10.07751 -10.07196 -10.06951 -10.06849  -0.94039
 Alpha  occ. eigenvalues --   -0.91381  -0.83798  -0.74935  -0.70674  -0.67920
 Alpha  occ. eigenvalues --   -0.60124  -0.59209  -0.57740  -0.56687  -0.52347
 Alpha  occ. eigenvalues --   -0.49623  -0.47266  -0.45556  -0.41513  -0.40849
 Alpha  occ. eigenvalues --   -0.39133  -0.37842  -0.36733  -0.35442  -0.34324
 Alpha  occ. eigenvalues --   -0.33639  -0.32699  -0.31275  -0.30952  -0.30201
 Alpha  occ. eigenvalues --   -0.29552  -0.28946  -0.27657  -0.27095  -0.26631
 Alpha  occ. eigenvalues --   -0.25442  -0.25235  -0.24797  -0.23578  -0.22709
 Alpha  occ. eigenvalues --   -0.22536  -0.22068  -0.17127  -0.15530  -0.14226
 Alpha  occ. eigenvalues --    0.04309
 Alpha virt. eigenvalues --    0.06560   0.06791   0.07615   0.08356   0.08868
 Alpha virt. eigenvalues --    0.09046   0.09951   0.10072   0.10578   0.11321
 Alpha virt. eigenvalues --    0.11649   0.11870   0.12219   0.12675   0.13103

  Beta  occ. eigenvalues --  -19.01289 -18.98718 -14.24351 -10.17081 -10.11063
  Beta  occ. eigenvalues --  -10.10705 -10.10424 -10.09326 -10.07853 -10.07812
  Beta  occ. eigenvalues --  -10.07729 -10.07191 -10.06944 -10.06838  -0.94036
  Beta  occ. eigenvalues --   -0.91269  -0.83787  -0.74921  -0.70668  -0.67869
  Beta  occ. eigenvalues --   -0.60110  -0.59140  -0.57716  -0.56649  -0.52323
  Beta  occ. eigenvalues --   -0.49532  -0.47230  -0.45521  -0.41355  -0.40817
  Beta  occ. eigenvalues --   -0.39114  -0.37831  -0.36719  -0.35421  -0.34290
  Beta  occ. eigenvalues --   -0.33622  -0.32679  -0.31252  -0.30914  -0.30188
  Beta  occ. eigenvalues --   -0.29531  -0.28926  -0.27642  -0.27060  -0.26610
  Beta  occ. eigenvalues --   -0.25421  -0.25211  -0.24785  -0.23537  -0.22686
  Beta  occ. eigenvalues --   -0.22485  -0.22048  -0.17066  -0.15525  -0.14214
  Beta virt. eigenvalues --    0.06498   0.06910   0.07761   0.08106   0.08828
  Beta virt. eigenvalues --    0.09091   0.09337   0.10240   0.10370   0.10825
  Beta virt. eigenvalues --    0.11605   0.11820   0.11924   0.12614   0.12783

 Mulliken charges and spin densities:
               1          2
     1  C   -0.475954  -0.078766
     2  C   -0.467836   0.460850
     3  C   -0.192853  -0.300396
     4  C    0.101996  -0.287500
     5  O   -0.308435  -0.000416
     6  N    0.367065   0.018478
     7  C    0.200382  -0.958069
     8  C   -2.179732   2.198793
     9  C    2.880743  -3.413238
    10  O   -0.388399   0.117026
    11  C   -0.822179   0.695301
    12  C    0.463044  -0.651729
    13  C    0.018148  -0.447514
    14  C    0.080097  -0.203489
    15  H    0.274772  -0.051328
    16  H    0.068174   0.065497
    17  H    0.084096   0.061885
    18  H    0.214474   0.004516
    19  H   -0.060266   0.215686
    20  H    0.088943   0.055441
    21  H    0.054112   0.085935
    22  H   -0.036983   0.240133
    23  H    0.607033  -0.500577
    24  H    0.172844   0.047355
    25  H    0.082032   0.052364
    26  H   -0.729884   0.901179
    27  H   -0.688157   0.849187
    28  H   -0.356166   0.648864
    29  H    0.142107   0.097654
    30  H   -0.166574   0.313290
    31  H    0.053614   0.090537
    32  H   -0.364796   0.536223
    33  H    0.140723  -0.026930
    34  H    0.001627   0.141455
    35  H    0.142186   0.022302
 Sum of Mulliken charges =  -1.00000   1.00000

 Dipole moment (field-independent basis, Debye):
    X=             -2.1272    Y=             -8.8563    Z=             -0.5232  Tot=              9.1232
 Quadrupole moment (field-independent basis, Debye-Ang):
   XX=           -145.4697   YY=           -168.0333   ZZ=           -116.3899
   XY=            -18.0539   XZ=             -1.7162   YZ=             -4.6521

 Summary of Natural Population Analysis:

                                       Natural Population
                Natural  -----------------------------------------------
    Atom  No    Charge         Core      Valence    Rydberg      Total
 -----------------------------------------------------------------------
      C    1   -0.29015      0.99964     2.28532    0.00519     3.29015
      C    2   -0.14892      0.99957     2.14119    0.00816     3.14892
      C    3   -0.28191      0.99965     2.27766    0.00460     3.28191
      C    4    0.35236      0.99961     1.62490    0.02313     2.64764
      O    5   -0.33407      0.99988     3.32877    0.00542     4.33407
      N    6   -0.25225      0.99961     2.74237    0.01026     3.75225
      C    7   -0.09030      0.99959     2.07935    0.01137     3.09030
      C    8   -0.20659      0.99962     2.19700    0.00998     3.20659
      C    9   -0.00649      0.99960     1.99399    0.01290     3.00649
      O   10   -0.37897      0.99989     3.37182    0.00726     4.37897
      C   11   -0.00891      0.99956     1.99458    0.01477     3.00891
      C   12   -0.19204      0.99963     2.18444    0.00797     3.19204
      C   13   -0.19066      0.99965     2.18281    0.00820     3.19066
      C   14   -0.18946      0.99962     2.18191    0.00793     3.18946
      H   15    0.11339      0.00000     0.38509    0.00152     0.38661
      H   16    0.09971      0.00000     0.39933    0.00096     0.40029
      H   17    0.09688      0.00000     0.40226    0.00086     0.40312
      H   18    0.10571      0.00000     0.39223    0.00207     0.39429
      H   19    0.10009      0.00000     0.39894    0.00097     0.39991
      H   20    0.10031      0.00000     0.39876    0.00093     0.39969
      H   21    0.09771      0.00000     0.40133    0.00096     0.40229
      H   22    0.09806      0.00000     0.40055    0.00139     0.40194
      H   23    0.10897      0.00000     0.38862    0.00241     0.39103
      H   24    0.09856      0.00000     0.39983    0.00161     0.40144
      H   25    0.10049      0.00000     0.39756    0.00195     0.39951
      H   26    0.08205      0.00000     0.41483    0.00311     0.41795
      H   27    0.07892      0.00000     0.41651    0.00457     0.42108
      H   28    0.24039      0.00000     0.24280    0.01681     0.25961
      H   29    0.10678      0.00000     0.39196    0.00126     0.39322
      H   30    0.09726      0.00000     0.40174    0.00099     0.40274
      H   31    0.10237      0.00000     0.39586    0.00177     0.39763
      H   32    0.09910      0.00000     0.39973    0.00118     0.40090
      H   33    0.09358      0.00000     0.40547    0.00095     0.40642
      H   34    0.09817      0.00000     0.40041    0.00142     0.40183
      H   35    0.09988      0.00000     0.39924    0.00088     0.40012
 =======================================================================
   * Total *    0.00000     13.99512    40.81919    0.18569    55.00000

 Normal termination of Gaussian 16 at Thu Dec 10 11:16:38 2020.
