 Gaussian 16, Revision A.03,

 -----------------------------------------------------------
 # opt freq B3LYP/6-31G(d) empiricaldispersion=gd3bj scf=xqc
 -----------------------------------------------------------

 ------------------------------
 CID_140811167_JID_328_neutraal
 ------------------------------
 Symbolic Z-matrix:
 Charge =  0 Multiplicity = 1

 SCF Done:  E(RB3LYP) =  -452.436753212     A.U. after   14 cycles
 SCF Done:  E(RB3LYP) =  -452.446936109     A.U. after   13 cycles
 SCF Done:  E(RB3LYP) =  -452.447984369     A.U. after   12 cycles
 SCF Done:  E(RB3LYP) =  -452.448349890     A.U. after   11 cycles
 SCF Done:  E(RB3LYP) =  -452.448865688     A.U. after   13 cycles
 SCF Done:  E(RB3LYP) =  -452.449212711     A.U. after   12 cycles
 SCF Done:  E(RB3LYP) =  -452.449646683     A.U. after   12 cycles
 SCF Done:  E(RB3LYP) =  -452.449680816     A.U. after   10 cycles
 SCF Done:  E(RB3LYP) =  -452.449688691     A.U. after    9 cycles
 SCF Done:  E(RB3LYP) =  -452.449690967     A.U. after    9 cycles
 SCF Done:  E(RB3LYP) =  -452.449691988     A.U. after    8 cycles
 SCF Done:  E(RB3LYP) =  -452.449692555     A.U. after    8 cycles
 SCF Done:  E(RB3LYP) =  -452.449692761     A.U. after    8 cycles
 Optimization completed.
    -- Stationary point found.
 Normal termination of Gaussian 16 at Tue Dec  8 10:23:14 2020.

 --------------------------------------------------------------------
 #N Geom=AllCheck Guess=TCheck SCRF=Check GenChk RB3LYP/6-31G(d) Freq
 --------------------------------------------------------------------

 Structure from the checkpoint file:  "JID_328.chk"
 ------------------------------
 CID_140811167_JID_328_neutraal
 ------------------------------
 Charge =  0 Multiplicity = 1

 SCF Done:  E(RB3LYP) =  -452.449692761     A.U. after    1 cycles

  Exact polarizability:  99.033  -1.468 107.280   1.073   0.866  45.370
 Approx polarizability: 155.393  -4.610 182.716   1.724   8.769  70.450

                      1                      2                      3
                      A                      A                      A
 Frequencies --    124.0464               145.2444               254.2348
 Red. masses --      2.7767                 5.1431                 3.1909
 Frc consts  --      0.0252                 0.0639                 0.1215
 IR Inten    --      1.8283                 4.6203                13.9527

                      4                      5                      6
                      A                      A                      A
 Frequencies --    268.0401               280.6755               403.0304
 Red. masses --      2.9382                 2.5771                 1.2721
 Frc consts  --      0.1244                 0.1196                 0.1217
 IR Inten    --      8.4036                 3.0525                67.9134

                      7                      8                      9
                      A                      A                      A
 Frequencies --    414.0268               438.9775               481.9959
 Red. masses --      1.9951                 1.5563                 3.3441
 Frc consts  --      0.2015                 0.1767                 0.4577
 IR Inten    --    127.3118                 5.3905                 4.8203

                     10                     11                     12
                      A                      A                      A
 Frequencies --    514.6278               566.9638               599.8538
 Red. masses --      3.5168                 6.0684                 2.1438
 Frc consts  --      0.5488                 1.1493                 0.4545
 IR Inten    --     67.9677                 3.5897                81.7889

                     13                     14                     15
                      A                      A                      A
 Frequencies --    667.2471               681.4337               751.7318
 Red. masses --      3.4719                 2.8784                 4.2511
 Frc consts  --      0.9107                 0.7875                 1.4154
 IR Inten    --     47.6531                78.7909                73.6097

                     16                     17                     18
                      A                      A                      A
 Frequencies --    797.2217               888.0656               892.9550
 Red. masses --      4.2352                 3.1169                 2.3669
 Frc consts  --      1.5859                 1.4483                 1.1120
 IR Inten    --     17.0025                34.7620                13.6745

                     19                     20                     21
                      A                      A                      A
 Frequencies --    956.2248               968.0430               989.1147
 Red. masses --      4.1293                 3.4522                 1.6096
 Frc consts  --      2.2246                 1.9061                 0.9278
 IR Inten    --     12.2974                14.4068                11.0184

                     22                     23                     24
                      A                      A                      A
 Frequencies --   1009.6516              1082.9609              1111.0617
 Red. masses --      3.1718                 2.2988                 2.7891
 Frc consts  --      1.9050                 1.5884                 2.0286
 IR Inten    --     19.9645                27.2865                21.8196

                     25                     26                     27
                      A                      A                      A
 Frequencies --   1175.8549              1193.0735              1253.5117
 Red. masses --      1.0936                 1.7999                 1.7156
 Frc consts  --      0.8909                 1.5095                 1.5883
 IR Inten    --      1.5377                 3.7107                 4.0865

                     28                     29                     30
                      A                      A                      A
 Frequencies --   1265.8636              1290.2216              1316.6270
 Red. masses --      2.0175                 1.0900                 2.2627
 Frc consts  --      1.9047                 1.0691                 2.3111
 IR Inten    --      5.6059                 1.4854                 8.3959

                     31                     32                     33
                      A                      A                      A
 Frequencies --   1349.7795              1371.6657              1449.9683
 Red. masses --      1.3866                 1.8083                 2.8733
 Frc consts  --      1.4884                 2.0045                 3.5592
 IR Inten    --     15.8021                30.2401               159.1588

                     34                     35                     36
                      A                      A                      A
 Frequencies --   1466.3238              1541.5836              1555.4927
 Red. masses --      1.2193                 1.1475                 2.6011
 Frc consts  --      1.5446                 1.6067                 3.7080
 IR Inten    --     11.9077                32.5341                35.5214

                     37                     38                     39
                      A                      A                      A
 Frequencies --   1586.8643              1640.8733              1668.8756
 Red. masses --      5.4703                 2.8330                 1.7069
 Frc consts  --      8.1159                 4.4942                 2.8009
 IR Inten    --     45.3122               101.6754                39.5436

                     40                     41                     42
                      A                      A                      A
 Frequencies --   1717.6111              2908.4957              3035.9219
 Red. masses --      5.0776                 1.0752                 1.0644
 Frc consts  --      8.8258                 5.3590                 5.7802
 IR Inten    --    282.7511               151.8840                18.7762

                     43                     44                     45
                      A                      A                      A
 Frequencies --   3069.6227              3096.4075              3180.7788
 Red. masses --      1.0966                 1.0889                 1.0936
 Frc consts  --      6.0879                 6.1512                 6.5187
 IR Inten    --      9.2821                59.4185                30.7382

                     46                     47                     48
                      A                      A                      A
 Frequencies --   3544.2556              3596.4302              3654.3008
 Red. masses --      1.0469                 1.0767                 1.0991
 Frc consts  --      7.7482                 8.2052                 8.6475
 IR Inten    --     16.1673                15.0344                12.7131

 - Thermochemistry -
 -------------------
 Temperature   298.150 Kelvin.  Pressure   1.00000 Atm.
 Atom     1 has atomic number  6 and mass  12.00000

 Molecular mass:   136.07490 amu.
 Principal axes and moments of inertia in atomic units:
                           1         2         3
     Eigenvalues --   815.776211286.982752050.18660
           X            0.99997  -0.00745   0.00048
           Y            0.00746   0.99990  -0.01177
           Z           -0.00039   0.01177   0.99993
 This molecule is an asymmetric top.
 Rotational symmetry number  1.
 Warning -- assumption of classical behavior for rotation
           may cause significant error
 Rotational temperatures (Kelvin)      0.10617     0.06730     0.04225
 Rotational constants (GHZ):           2.21230     1.40230     0.88028
 Zero-point vibrational energy     384107.9 (Joules/Mol)
                                   91.80400 (Kcal/Mol)
 Warning -- explicit consideration of  12 degrees of freedom as
           vibrations may cause significant error
 Vibrational temperatures:    178.48   208.97   365.79   385.65   403.83
          (Kelvin)            579.87   595.69   631.59   693.48   740.43
                              815.73   863.06   960.02   980.43  1081.57
                             1147.02  1277.73  1284.76  1375.79  1392.80
                             1423.12  1452.66  1558.14  1598.57  1691.79
                             1716.57  1803.52  1821.30  1856.34  1894.33
                             1942.03  1973.52  2086.18  2109.71  2217.99
                             2238.01  2283.14  2360.85  2401.14  2471.26
                             4184.68  4368.01  4416.50  4455.04  4576.43
                             5099.39  5174.46  5257.72

 Zero-point correction=                           0.146299 (Hartree/Particle)
 Thermal correction to Energy=                    0.154399
 Thermal correction to Enthalpy=                  0.155343
 Thermal correction to Gibbs Free Energy=         0.113692
 Sum of electronic and zero-point Energies=           -452.303394
 Sum of electronic and thermal Energies=              -452.295294
 Sum of electronic and thermal Enthalpies=            -452.294349
 Sum of electronic and thermal Free Energies=         -452.336000

                     E (Thermal)             CV                S
                      KCal/Mol        Cal/Mol-Kelvin    Cal/Mol-Kelvin
 Total                   96.887             32.043             87.662
 Electronic               0.000              0.000              0.000
 Translational            0.889              2.981             40.636
 Rotational               0.889              2.981             29.155
 Vibrational             95.109             26.081             17.870
 Vibration     1          0.610              1.929              3.036
 Vibration     2          0.617              1.908              2.734
 Vibration     3          0.665              1.756              1.701
 Vibration     4          0.673              1.732              1.609
 Vibration     5          0.680              1.709              1.530
 Vibration     6          0.768              1.464              0.952
 Vibration     7          0.778              1.440              0.912
 Vibration     8          0.799              1.385              0.830
 Vibration     9          0.838              1.290              0.705
 Vibration    10          0.870              1.218              0.623
 Vibration    11          0.923              1.103              0.510
 Vibration    12          0.958              1.032              0.450

 Optimization completed.
    -- Stationary point found.
 Normal termination of Gaussian 16 at Tue Dec  8 10:26:29 2020.

 ----------------------------------------------------------------------
 # B3LYP/6-311++G(d,p) empiricaldispersion=gd3bj scf=xqc pop=npa geom=c
 heck
 ----------------------------------------------------------------------

 --------------------------------------
 CID_140811167_JID_328_Energie_neutraal
 --------------------------------------
 Structure from the checkpoint file:  "JID_328.chk"
 Charge =  0 Multiplicity = 1

 SCF Done:  E(RB3LYP) =  -452.581995781     A.U. after   15 cycles
 Normal termination of Gaussian 16 at Tue Dec  8 10:27:32 2020.

 ----------------------------------------------------------------------
 # B3LYP/6-311++G(d,p) empiricaldispersion=gd3bj scf=xqc pop=npa geom=c
 heck
 ----------------------------------------------------------------------

 ------------------------------------
 CID_140811167_JID_328_Energie_kation
 ------------------------------------
 Structure from the checkpoint file:  "JID_328.chk"
 Charge =  1 Multiplicity = 2

 SCF Done:  E(UB3LYP) =  -452.302040598     A.U. after   22 cycles
 Normal termination of Gaussian 16 at Tue Dec  8 10:30:12 2020.
 Gaussian 16:  ES64L-G16RevA.03 25-Dec-2016

 ----------------------------------------------------------------------
 # B3LYP/6-311++G(d,p) empiricaldispersion=gd3bj scf=xqc pop=npa geom=c
 heck
 ----------------------------------------------------------------------

 -----------------------------------
 CID_140811167_JID_328_Energie_anion
 -----------------------------------
 Structure from the checkpoint file:  "JID_328.chk"
 Charge = -1 Multiplicity = 2

                         Standard orientation:
 ---------------------------------------------------------------------
 Center     Atomic      Atomic             Coordinates (Angstroms)
 Number     Number       Type             X           Y           Z
 ---------------------------------------------------------------------
      1          6           0       -1.480555    1.326961    0.196330
      2          6           0       -0.241862    0.484672    0.109212
      3          6           0       -0.652810   -0.802801   -0.089290
      4          6           0       -2.120325   -0.776888   -0.126246
      5          7           0       -2.616408    0.401962    0.043270
      6          7           0        0.236319   -1.820215   -0.278403
      7          6           0        1.578227   -1.542181    0.284608
      8          7           0        2.057530   -0.211667   -0.034186
      9          6           0        1.182329    0.743915   -0.005314
     10          7           0        1.610068    2.058816   -0.099006
     11          1           0       -1.594025    1.858767    1.150589
     12          1           0       -1.562201    2.089276   -0.592401
     13          1           0       -2.759732   -1.646522   -0.269941
     14          1           0       -0.098966   -2.771679   -0.202480
     15          1           0        1.558988   -1.676784    1.385052
     16          1           0        2.268897   -2.280915   -0.131827
     17          1           0        1.000745    2.689751   -0.604609
     18          1           0        2.583704    2.133768   -0.371905
 ---------------------------------------------------------------------

 SCF Done:  E(UB3LYP) =  -452.582275620     A.U. after   31 cycles

 The electronic state is 2-A.
 Alpha  occ. eigenvalues --  -14.17603 -14.17549 -14.11992 -14.11513 -10.08218
 Alpha  occ. eigenvalues --  -10.07710 -10.03987 -10.03984 -10.03068  -9.98993
 Alpha  occ. eigenvalues --   -0.81869  -0.77989  -0.76443  -0.70032  -0.60718
 Alpha  occ. eigenvalues --   -0.55863  -0.51219  -0.46384  -0.42554  -0.39292
 Alpha  occ. eigenvalues --   -0.37605  -0.35315  -0.32425  -0.31330  -0.29675
 Alpha  occ. eigenvalues --   -0.28282  -0.25565  -0.22831  -0.22028  -0.21155
 Alpha  occ. eigenvalues --   -0.19578  -0.13811  -0.11015  -0.10186  -0.09674
 Alpha  occ. eigenvalues --   -0.04628   0.05845
 Alpha virt. eigenvalues --    0.08788   0.08971   0.10799   0.11718   0.12171
 Alpha virt. eigenvalues --    0.12942   0.13632   0.15006   0.16182   0.16556
 Alpha virt. eigenvalues --    0.17684   0.19392   0.19780   0.20050   0.20384

  Beta  occ. eigenvalues --  -14.17519 -14.17473 -14.11339 -14.11336 -10.08210
  Beta  occ. eigenvalues --  -10.07596 -10.04033 -10.03778 -10.02976  -9.98901
  Beta  occ. eigenvalues --   -0.81591  -0.77720  -0.75752  -0.69766  -0.60241
  Beta  occ. eigenvalues --   -0.55570  -0.50966  -0.45934  -0.42062  -0.39160
  Beta  occ. eigenvalues --   -0.37414  -0.35101  -0.32096  -0.31094  -0.29076
  Beta  occ. eigenvalues --   -0.27941  -0.25322  -0.22570  -0.21729  -0.20660
  Beta  occ. eigenvalues --   -0.18520  -0.11932  -0.10381  -0.09462  -0.09133
  Beta  occ. eigenvalues --   -0.03412
  Beta virt. eigenvalues --    0.08779   0.09310   0.10721   0.11612   0.11908
  Beta virt. eigenvalues --    0.12506   0.13058   0.13712   0.15163   0.16348
  Beta virt. eigenvalues --    0.16764   0.18066   0.19384   0.19966   0.20104

 Mulliken charges and spin densities:
               1          2
     1  C   -0.226887  -0.521902
     2  C    0.685787   0.032264
     3  C   -0.283954   0.215597
     4  C   -0.224608   0.053520
     5  N   -0.184085   0.300644
     6  N   -0.167989   0.048009
     7  C   -0.273339  -0.025345
     8  N   -0.256757   0.067643
     9  C   -0.376997   0.103317
    10  N   -0.334958   0.037460
    11  H    0.177343  -0.000556
    12  H   -0.076955   0.244273
    13  H    0.008664   0.071660
    14  H    0.132320   0.093823
    15  H    0.090866  -0.012718
    16  H    0.091969   0.049941
    17  H    0.028580   0.187531
    18  H    0.191000   0.054838
 Sum of Mulliken charges =  -1.00000   1.00000

 Dipole moment (field-independent basis, Debye):
    X=              1.8051    Y=             -1.7782    Z=              0.7266  Tot=              2.6360
 Quadrupole moment (field-independent basis, Debye-Ang):
   XX=            -95.9549   YY=            -70.3784   ZZ=            -70.7501
   XY=              3.1667   XZ=             -0.9245   YZ=             -1.4247

 Summary of Natural Population Analysis:

                                       Natural Population
                Natural  -----------------------------------------------
    Atom  No    Charge         Core      Valence    Rydberg      Total
 -----------------------------------------------------------------------
      C    1   -0.11595      0.99962     2.10279    0.01354     3.11595
      C    2   -0.09969      0.99940     2.09003    0.01026     3.09969
      C    3    0.12487      0.99941     1.86296    0.01277     2.87513
      C    4    0.01735      0.99960     1.96518    0.01788     2.98265
      N    5   -0.13239      0.99973     2.62012    0.01254     3.63239
      N    6   -0.30302      0.99966     2.79237    0.01099     3.80302
      C    7    0.01302      0.99965     1.97388    0.01344     2.98698
      N    8   -0.29175      0.99965     2.77968    0.01242     3.79175
      C    9    0.22976      0.99953     1.75265    0.01806     2.77024
      N   10   -0.40253      0.99971     2.89285    0.00996     3.90253
      H   11    0.10144      0.00000     0.39706    0.00150     0.39856
      H   12    0.10107      0.00000     0.39593    0.00300     0.39893
      H   13    0.07785      0.00000     0.42069    0.00146     0.42215
      H   14    0.17830      0.00000     0.31835    0.00335     0.32170
      H   15    0.05847      0.00000     0.43834    0.00319     0.44153
      H   16    0.07957      0.00000     0.41846    0.00197     0.42043
      H   17    0.18251      0.00000     0.31505    0.00244     0.31749
      H   18    0.18112      0.00000     0.31576    0.00313     0.31888
 =======================================================================
   * Total *    0.00000      9.99595    25.85215    0.15190    36.00000

 Normal termination of Gaussian 16 at Tue Dec  8 10:34:00 2020.
