 Gaussian 16, Revision A.03,

 -----------------------------------------------------------
 # opt freq B3LYP/6-31G(d) empiricaldispersion=gd3bj scf=xqc
 -----------------------------------------------------------

 -------------------------------
 CID_105762639_JID_6761_neutraal
 -------------------------------
 Symbolic Z-matrix:
 Charge =  0 Multiplicity = 1

 SCF Done:  E(RB3LYP) =  -782.655099413     A.U. after   15 cycles
 SCF Done:  E(RB3LYP) =  -782.659813815     A.U. after   13 cycles
 SCF Done:  E(RB3LYP) =  -782.660295048     A.U. after   12 cycles
 SCF Done:  E(RB3LYP) =  -782.660678529     A.U. after   12 cycles
 SCF Done:  E(RB3LYP) =  -782.660732707     A.U. after   11 cycles
 SCF Done:  E(RB3LYP) =  -782.660790675     A.U. after   10 cycles
 SCF Done:  E(RB3LYP) =  -782.660824571     A.U. after   10 cycles
 SCF Done:  E(RB3LYP) =  -782.660845717     A.U. after   10 cycles
 SCF Done:  E(RB3LYP) =  -782.660875411     A.U. after   11 cycles
 SCF Done:  E(RB3LYP) =  -782.660940655     A.U. after   12 cycles
 SCF Done:  E(RB3LYP) =  -782.668957294     A.U. after   10 cycles
 SCF Done:  E(RB3LYP) =  -782.668961468     A.U. after   10 cycles
 SCF Done:  E(RB3LYP) =  -782.668962264     A.U. after    9 cycles
 SCF Done:  E(RB3LYP) =  -782.668962405     A.U. after    7 cycles
 SCF Done:  E(RB3LYP) =  -782.668962401     A.U. after    7 cycles
 Optimization completed.
    -- Stationary point found.
 Normal termination of Gaussian 16 at Fri Dec 11 00:33:55 2020.

 --------------------------------------------------------------------
 #N Geom=AllCheck Guess=TCheck SCRF=Check GenChk RB3LYP/6-31G(d) Freq
 --------------------------------------------------------------------

 Structure from the checkpoint file:  "JID_6761.chk"
 -------------------------------
 CID_105762639_JID_6761_neutraal
 -------------------------------
 Charge =  0 Multiplicity = 1

 SCF Done:  E(RB3LYP) =  -782.668962401     A.U. after    1 cycles

  Exact polarizability: 157.959  -8.392 133.186  12.423  14.382  93.171
 Approx polarizability: 218.885 -19.143 215.309  22.001  38.547 142.371

                      1                      2                      3
                      A                      A                      A
 Frequencies --     18.7814                37.9602                69.0445
 Red. masses --      5.4112                 4.3005                 6.8349
 Frc consts  --      0.0011                 0.0037                 0.0192
 IR Inten    --      0.1424                 0.0110                 0.0550

                      4                      5                      6
                      A                      A                      A
 Frequencies --     79.2340                83.5941                88.6872
 Red. masses --      9.5356                 1.9719                 5.0256
 Frc consts  --      0.0353                 0.0081                 0.0233
 IR Inten    --      1.6147                 0.0649                 0.2856

                      7                      8                      9
                      A                      A                      A
 Frequencies --    135.7613               152.4316               189.2193
 Red. masses --      4.3596                 4.7055                 3.8617
 Frc consts  --      0.0473                 0.0644                 0.0815
 IR Inten    --      0.4267                 0.4454                 1.2543

                     10                     11                     12
                      A                      A                      A
 Frequencies --    224.1667               240.7994               249.4408
 Red. masses --      1.8597                 2.2674                 4.2969
 Frc consts  --      0.0551                 0.0775                 0.1575
 IR Inten    --      1.4141                 1.7912                 1.5113

                     13                     14                     15
                      A                      A                      A
 Frequencies --    289.5222               339.3001               343.7178
 Red. masses --      4.0114                 6.0299                 3.8352
 Frc consts  --      0.1981                 0.4090                 0.2670
 IR Inten    --      4.2707                 2.2184                 2.3669

                     16                     17                     18
                      A                      A                      A
 Frequencies --    426.7766               464.1825               503.3884
 Red. masses --      2.2375                 6.5956                 4.7349
 Frc consts  --      0.2401                 0.8373                 0.7069
 IR Inten    --      1.5831                 7.8572                17.9354

                     19                     20                     21
                      A                      A                      A
 Frequencies --    532.5637               574.0388               583.9207
 Red. masses --      1.4611                 1.8725                 3.5701
 Frc consts  --      0.2442                 0.3635                 0.7172
 IR Inten    --     59.8943                28.8525                11.7933

                     22                     23                     24
                      A                      A                      A
 Frequencies --    628.9803               638.0471               649.0746
 Red. masses --      3.7011                 3.8148                 1.8437
 Frc consts  --      0.8627                 0.9150                 0.4577
 IR Inten    --     10.9471                17.3776                71.6259

                     25                     26                     27
                      A                      A                      A
 Frequencies --    672.5000               706.0192               760.5890
 Red. masses --      4.0671                 4.0087                 6.1632
 Frc consts  --      1.0837                 1.1773                 2.1007
 IR Inten    --      7.9769                62.8309                14.7273

                     28                     29                     30
                      A                      A                      A
 Frequencies --    769.0310               779.7473               812.7362
 Red. masses --      4.1367                 1.5711                 1.3876
 Frc consts  --      1.4414                 0.5628                 0.5400
 IR Inten    --     70.9059                 5.2350                 0.6939

                     31                     32                     33
                      A                      A                      A
 Frequencies --    836.8417               843.3172               873.0314
 Red. masses --      2.2846                 1.5675                 1.5533
 Frc consts  --      0.9426                 0.6568                 0.6975
 IR Inten    --      4.9821                 0.5698                12.2777

                     34                     35                     36
                      A                      A                      A
 Frequencies --    889.8387               946.7159               978.3320
 Red. masses --      1.4346                 4.6546                 1.4706
 Frc consts  --      0.6693                 2.4580                 0.8293
 IR Inten    --     12.8524                14.3508                 9.9544

                     37                     38                     39
                      A                      A                      A
 Frequencies --    979.2680              1002.4246              1058.7764
 Red. masses --      2.0321                 6.7716                 2.1155
 Frc consts  --      1.1482                 4.0091                 1.3973
 IR Inten    --      2.3139                34.7012                10.4283

                     40                     41                     42
                      A                      A                      A
 Frequencies --   1070.3828              1085.7555              1115.2816
 Red. masses --      1.7634                 1.6401                 1.9446
 Frc consts  --      1.1904                 1.1392                 1.4251
 IR Inten    --      0.2560                 6.0418                 0.6124

                     43                     44                     45
                      A                      A                      A
 Frequencies --   1136.8509              1152.9083              1172.0590
 Red. masses --      1.6595                 1.2870                 3.3884
 Frc consts  --      1.2637                 1.0079                 2.7425
 IR Inten    --      4.2142                 5.6757               334.9729

                     46                     47                     48
                      A                      A                      A
 Frequencies --   1202.3389              1207.4954              1213.9759
 Red. masses --      1.7601                 1.6974                 1.8598
 Frc consts  --      1.4991                 1.4581                 1.6148
 IR Inten    --     36.8008                 3.5163                 9.3116

                     49                     50                     51
                      A                      A                      A
 Frequencies --   1223.3014              1267.4309              1285.6379
 Red. masses --      3.1071                 1.7819                 1.8485
 Frc consts  --      2.7395                 1.6865                 1.8001
 IR Inten    --     44.8975                18.3659                 1.5603

                     52                     53                     54
                      A                      A                      A
 Frequencies --   1307.9524              1360.5440              1375.6319
 Red. masses --      1.2349                 1.3984                 2.6816
 Frc consts  --      1.2447                 1.5251                 2.9898
 IR Inten    --      0.2138                25.1372               170.2350

                     55                     56                     57
                      A                      A                      A
 Frequencies --   1402.0336              1422.0982              1424.9004
 Red. masses --      1.5967                 4.5989                 3.3906
 Frc consts  --      1.8493                 5.4798                 4.0560
 IR Inten    --     45.1540                41.1728                45.7326

                     58                     59                     60
                      A                      A                      A
 Frequencies --   1438.7411              1443.2905              1472.4583
 Red. masses --      1.4819                 1.3644                 1.9549
 Frc consts  --      1.8074                 1.6745                 2.4973
 IR Inten    --      3.1217                 2.2840                72.3161

                     61                     62                     63
                      A                      A                      A
 Frequencies --   1511.6195              1524.0941              1528.9896
 Red. masses --      1.2984                 1.1136                 1.0424
 Frc consts  --      1.7480                 1.5241                 1.4358
 IR Inten    --      6.1105                 1.0516                 5.9513

                     64                     65                     66
                      A                      A                      A
 Frequencies --   1539.0856              1560.9908              1634.5217
 Red. masses --      1.0800                 7.2725                 6.1673
 Frc consts  --      1.5072                10.4408                 9.7079
 IR Inten    --      1.6091               120.1932                81.3038

                     67                     68                     69
                      A                      A                      A
 Frequencies --   1771.4916              1830.0973              3046.8147
 Red. masses --      8.6028                 9.8016                 1.0362
 Frc consts  --     15.9063                19.3417                 5.6676
 IR Inten    --    340.8871               352.5888                28.1049

                     70                     71                     72
                      A                      A                      A
 Frequencies --   3053.7811              3087.3907              3114.5590
 Red. masses --      1.0610                 1.1006                 1.1017
 Frc consts  --      5.8295                 6.1813                 6.2966
 IR Inten    --     24.8550                 0.9586                36.0316

                     73                     74                     75
                      A                      A                      A
 Frequencies --   3119.5069              3120.3049              3140.9264
 Red. masses --      1.0880                 1.1024                 1.0885
 Frc consts  --      6.2378                 6.3241                 6.3272
 IR Inten    --     13.7427                35.8071                29.1263

                     76                     77                     78
                      A                      A                      A
 Frequencies --   3145.7354              3230.4818              3309.4817
 Red. masses --      1.0571                 1.1169                 1.0992
 Frc consts  --      6.1630                 6.8678                 7.0932
 IR Inten    --      8.6265                11.5426                 2.5829

                     79                     80                     81
                      A                      A                      A
 Frequencies --   3336.7137              3588.9608              3696.6123
 Red. masses --      1.0961                 1.0758                 1.0641
 Frc consts  --      7.1902                 8.1646                 8.5669
 IR Inten    --      0.5676                38.0096                73.8956

 - Thermochemistry -
 -------------------
 Temperature   298.150 Kelvin.  Pressure   1.00000 Atm.
 Atom     1 has atomic number  6 and mass  12.00000

 Molecular mass:   223.08446 amu.
 Principal axes and moments of inertia in atomic units:
                           1         2         3
     Eigenvalues --  2573.118815274.296576737.64638
           X            0.99937   0.03498  -0.00522
           Y           -0.03508   0.99918  -0.02040
           Z            0.00450   0.02057   0.99978
 This molecule is an asymmetric top.
 Rotational symmetry number  1.
 Warning -- assumption of classical behavior for rotation
           may cause significant error
 Rotational temperatures (Kelvin)      0.03366     0.01642     0.01286
 Rotational constants (GHZ):           0.70138     0.34218     0.26786
 Zero-point vibrational energy     610843.3 (Joules/Mol)
                                  145.99506 (Kcal/Mol)
 Warning -- explicit consideration of  21 degrees of freedom as
           vibrations may cause significant error
 Vibrational temperatures:     27.02    54.62    99.34   114.00   120.27
          (Kelvin)            127.60   195.33   219.32   272.24   322.53
                              346.46   358.89   416.56   488.18   494.53
                              614.04   667.86   724.26   766.24   825.91
                              840.13   904.96   918.01   933.87   967.58
                             1015.80  1094.32  1106.46  1121.88  1169.35
                             1204.03  1213.35  1256.10  1280.28  1362.11
                             1407.60  1408.95  1442.27  1523.34  1540.04
                             1562.16  1604.64  1635.67  1658.78  1686.33
                             1729.90  1737.32  1746.64  1760.06  1823.55
                             1849.75  1881.85  1957.52  1979.23  2017.21
                             2046.08  2050.11  2070.03  2076.57  2118.54
                             2174.88  2192.83  2199.88  2214.40  2245.92
                             2351.71  2548.78  2633.10  4383.69  4393.71
                             4442.07  4481.16  4488.27  4489.42  4519.09
                             4526.01  4647.94  4761.61  4800.79  5163.71
                             5318.60

 Zero-point correction=                           0.232658 (Hartree/Particle)
 Thermal correction to Energy=                    0.247975
 Thermal correction to Enthalpy=                  0.248919
 Thermal correction to Gibbs Free Energy=         0.187989
 Sum of electronic and zero-point Energies=           -782.436304
 Sum of electronic and thermal Energies=              -782.420987
 Sum of electronic and thermal Enthalpies=            -782.420043
 Sum of electronic and thermal Free Energies=         -782.480973

                     E (Thermal)             CV                S
                      KCal/Mol        Cal/Mol-Kelvin    Cal/Mol-Kelvin
 Total                  155.607             56.505            128.239
 Electronic               0.000              0.000              0.000
 Translational            0.889              2.981             42.110
 Rotational               0.889              2.981             32.880
 Vibrational            153.829             50.544             53.249
 Vibration     1          0.593              1.986              6.759
 Vibration     2          0.594              1.982              5.363
 Vibration     3          0.598              1.969              4.180
 Vibration     4          0.600              1.963              3.910
 Vibration     5          0.600              1.960              3.805
 Vibration     6          0.602              1.957              3.689
 Vibration     7          0.614              1.918              2.863
 Vibration     8          0.619              1.900              2.642
 Vibration     9          0.633              1.855              2.235
 Vibration    10          0.649              1.804              1.925
 Vibration    11          0.658              1.778              1.797
 Vibration    12          0.662              1.764              1.735
 Vibration    13          0.686              1.693              1.477
 Vibration    14          0.719              1.597              1.215
 Vibration    15          0.722              1.588              1.195
 Vibration    16          0.788              1.412              0.869
 Vibration    17          0.822              1.330              0.754
 Vibration    18          0.859              1.242              0.650
 Vibration    19          0.888              1.178              0.582
 Vibration    20          0.930              1.087              0.497
 Vibration    21          0.941              1.066              0.478

                           ! Non-Optimized Parameters !
 Normal termination of Gaussian 16 at Fri Dec 11 00:43:42 2020.

 ----------------------------------------------------------------------
 # B3LYP/6-311++G(d,p) empiricaldispersion=gd3bj scf=xqc pop=npa geom=c
 heck
 ----------------------------------------------------------------------

 ---------------------------------------
 CID_105762639_JID_6761_Energie_neutraal
 ---------------------------------------
 Structure from the checkpoint file:  "JID_6761.chk"
 Charge =  0 Multiplicity = 1

 SCF Done:  E(RB3LYP) =  -782.902061542     A.U. after   16 cycles
 Normal termination of Gaussian 16 at Fri Dec 11 00:48:32 2020.

 ----------------------------------------------------------------------
 # B3LYP/6-311++G(d,p) empiricaldispersion=gd3bj scf=xqc pop=npa geom=c
 heck
 ----------------------------------------------------------------------

 -------------------------------------
 CID_105762639_JID_6761_Energie_kation
 -------------------------------------
 Structure from the checkpoint file:  "JID_6761.chk"
 Charge =  1 Multiplicity = 2

 SCF Done:  E(UB3LYP) =  -782.576494777     A.U. after   27 cycles
 Normal termination of Gaussian 16 at Fri Dec 11 01:00:07 2020.
 Gaussian 16:  ES64L-G16RevA.03 25-Dec-2016

 ----------------------------------------------------------------------
 # B3LYP/6-311++G(d,p) empiricaldispersion=gd3bj scf=xqc pop=npa geom=c
 heck
 ----------------------------------------------------------------------

 ------------------------------------
 CID_105762639_JID_6761_Energie_anion
 ------------------------------------
 Structure from the checkpoint file:  "JID_6761.chk"
 Charge = -1 Multiplicity = 2

                         Standard orientation:
 ---------------------------------------------------------------------
 Center     Atomic      Atomic             Coordinates (Angstroms)
 Number     Number       Type             X           Y           Z
 ---------------------------------------------------------------------
      1          6           0       -2.863451   -2.376034    1.733570
      2          6           0       -2.121200   -1.195882    1.099155
      3          6           0       -2.160876   -1.245183   -0.413822
      4          6           0       -3.371206   -0.742829   -1.158391
      5          6           0       -2.071724    0.014209   -1.258877
      6          7           0       -2.015092    1.302983   -0.637670
      7          6           0       -0.948253    1.952536   -0.064591
      8          8           0       -1.060250    3.093617    0.366999
      9          6           0        0.347180    1.235648    0.017744
     10          6           0        0.879440    0.055217   -0.427133
     11          6           0        2.244446    0.032854    0.004217
     12          6           0        2.444367    1.208473    0.681789
     13          8           0        1.321089    1.939732    0.696740
     14          6           0        3.267370   -0.996962   -0.196893
     15          8           0        4.411456   -0.935719    0.206004
     16          8           0        2.790910   -2.058315   -0.899228
     17          1           0       -3.917641   -2.383092    1.433634
     18          1           0       -2.822089   -2.326476    2.826973
     19          1           0       -2.424593   -3.332458    1.425218
     20          1           0       -2.560417   -0.252008    1.441166
     21          1           0       -1.076284   -1.187551    1.433421
     22          1           0       -1.667614   -2.114260   -0.848719
     23          1           0       -3.723006   -1.273104   -2.037916
     24          1           0       -4.158398   -0.286448   -0.562383
     25          1           0       -1.534152   -0.067042   -2.203922
     26          1           0       -2.821600    1.909626   -0.723787
     27          1           0        0.383521   -0.718497   -0.986421
     28          1           0        3.306860    1.622650    1.180635
     29          1           0        3.538860   -2.679035   -0.978938
 ---------------------------------------------------------------------

 SCF Done:  E(UB3LYP) =  -782.906260599     A.U. after   33 cycles
 SCF Done:  E(UB3LYP) =  -782.906260599     a.u. after    1 cycles

 The electronic state is 2-A.
 Alpha  occ. eigenvalues --  -19.05434 -19.04502 -18.98763 -18.95368 -14.21894
 Alpha  occ. eigenvalues --  -10.17858 -10.14297 -10.11372 -10.09572 -10.08246
 Alpha  occ. eigenvalues --  -10.08235 -10.07963 -10.06919 -10.06702 -10.05482
 Alpha  occ. eigenvalues --  -10.05108  -0.99109  -0.98293  -0.90894  -0.89872
 Alpha  occ. eigenvalues --   -0.82209  -0.74509  -0.68823  -0.66432  -0.63678
 Alpha  occ. eigenvalues --   -0.55104  -0.54867  -0.52595  -0.50873  -0.48194
 Alpha  occ. eigenvalues --   -0.46668  -0.42124  -0.41336  -0.40707  -0.38989
 Alpha  occ. eigenvalues --   -0.37051  -0.34867  -0.34830  -0.34197  -0.33183
 Alpha  occ. eigenvalues --   -0.32397  -0.32172  -0.30631  -0.29432  -0.28899
 Alpha  occ. eigenvalues --   -0.28464  -0.27470  -0.27209  -0.25690  -0.24339
 Alpha  occ. eigenvalues --   -0.23959  -0.21262  -0.20561  -0.19948  -0.16742
 Alpha  occ. eigenvalues --   -0.16411  -0.13691  -0.13417  -0.11762   0.04329
 Alpha virt. eigenvalues --    0.06190   0.07393   0.07700   0.08341   0.08814
 Alpha virt. eigenvalues --    0.09738   0.10611   0.10848   0.11155   0.11457
 Alpha virt. eigenvalues --    0.12742   0.13575   0.14302   0.14691   0.15254

  Beta  occ. eigenvalues --  -19.05386 -19.04143 -18.98729 -18.95223 -14.21877
  Beta  occ. eigenvalues --  -10.17724 -10.14163 -10.11369 -10.09530 -10.08234
  Beta  occ. eigenvalues --  -10.07942 -10.07717 -10.06918 -10.06685 -10.05445
  Beta  occ. eigenvalues --  -10.05197  -0.98975  -0.97696  -0.90630  -0.89790
  Beta  occ. eigenvalues --   -0.82122  -0.74453  -0.68647  -0.66407  -0.63213
  Beta  occ. eigenvalues --   -0.54844  -0.54767  -0.52378  -0.50575  -0.48073
  Beta  occ. eigenvalues --   -0.46543  -0.41926  -0.41233  -0.40524  -0.38899
  Beta  occ. eigenvalues --   -0.36929  -0.34764  -0.34602  -0.33552  -0.32852
  Beta  occ. eigenvalues --   -0.32148  -0.31428  -0.30549  -0.29251  -0.28709
  Beta  occ. eigenvalues --   -0.28281  -0.27282  -0.26658  -0.25646  -0.24273
  Beta  occ. eigenvalues --   -0.23671  -0.20960  -0.20430  -0.19876  -0.16706
  Beta  occ. eigenvalues --   -0.15660  -0.13351  -0.13234  -0.10277
  Beta virt. eigenvalues --    0.06520   0.07590   0.07845   0.08784   0.09465
  Beta virt. eigenvalues --    0.09745   0.09888   0.10674   0.10884   0.11325
  Beta virt. eigenvalues --    0.11514   0.12713   0.13488   0.14305   0.14638

 Mulliken charges and spin densities:
               1          2
     1  C    0.168917  -0.790033
     2  C   -0.428718   0.157428
     3  C   -0.328172   0.736115
     4  C    0.202626  -0.952859
     5  C   -0.040561  -0.200020
     6  N   -0.262297   0.013035
     7  C   -0.071752   0.071648
     8  O   -0.381626   0.051359
     9  C   -1.044242  -0.138656
    10  C    0.689688   0.177437
    11  C   -0.049655  -0.212635
    12  C   -0.191493   0.533255
    13  O    0.005921   0.063194
    14  C    0.246406   0.104603
    15  O   -0.367637   0.015251
    16  O   -0.200686   0.004855
    17  H   -0.003727   0.136670
    18  H    0.083866   0.045115
    19  H   -0.087981   0.226379
    20  H    0.083502   0.088250
    21  H    0.231864  -0.082528
    22  H    0.052799   0.155795
    23  H   -0.416539   0.577911
    24  H    0.155512  -0.020230
    25  H    0.177200   0.067933
    26  H    0.322701  -0.007316
    27  H    0.046615   0.160002
    28  H    0.172115  -0.022852
    29  H    0.235354   0.040895
 Sum of Mulliken charges =  -1.00000   1.00000

 Dipole moment (field-independent basis, Debye):
    X=             -2.0051    Y=             -2.7261    Z=             -0.7145  Tot=              3.4587
 Quadrupole moment (field-independent basis, Debye-Ang):
   XX=           -146.2248   YY=           -133.8367   ZZ=           -111.1411
   XY=             -6.7083   XZ=             -5.3559   YZ=             -4.5027

 Summary of Natural Population Analysis:

                                       Natural Population
                Natural  -----------------------------------------------
    Atom  No    Charge         Core      Valence    Rydberg      Total
 -----------------------------------------------------------------------
      C    1   -0.28136      0.99967     2.27786    0.00383     3.28136
      C    2   -0.19808      0.99962     2.18911    0.00936     3.19808
      C    3   -0.11034      0.99958     2.09893    0.01183     3.11034
      C    4   -0.19769      0.99960     2.18819    0.00989     3.19769
      C    5   -0.01871      0.99956     2.00618    0.01297     3.01871
      N    6   -0.32268      0.99967     2.81310    0.00992     3.82268
      C    7    0.33379      0.99962     1.64498    0.02161     2.66621
      O    8   -0.30994      0.99988     3.30450    0.00556     4.30994
      C    9    0.09627      0.99945     1.89109    0.01320     2.90373
      C   10   -0.11560      0.99950     2.10650    0.00961     3.11560
      C   11   -0.16252      0.99946     2.15287    0.01019     3.16252
      C   12    0.21271      0.99950     1.77459    0.01320     2.78729
      O   13   -0.18678      0.99986     3.17881    0.00812     4.18678
      C   14    0.41059      0.99964     1.56578    0.02398     2.58941
      O   15   -0.32368      0.99987     3.31820    0.00561     4.32368
      O   16   -0.34792      0.99988     3.34135    0.00669     4.34792
      H   17    0.09460      0.00000     0.40427    0.00113     0.40540
      H   18    0.09579      0.00000     0.40342    0.00079     0.40421
      H   19    0.09524      0.00000     0.40364    0.00111     0.40476
      H   20    0.10111      0.00000     0.39752    0.00137     0.39889
      H   21    0.10584      0.00000     0.39298    0.00117     0.39416
      H   22    0.10418      0.00000     0.39444    0.00138     0.39582
      H   23    0.10531      0.00000     0.39341    0.00128     0.39469
      H   24    0.10064      0.00000     0.39830    0.00106     0.39936
      H   25    0.09798      0.00000     0.40086    0.00115     0.40202
      H   26    0.18885      0.00000     0.30846    0.00269     0.31115
      H   27    0.11227      0.00000     0.38640    0.00133     0.38773
      H   28    0.08820      0.00000     0.41097    0.00083     0.41180
      H   29    0.23192      0.00000     0.26401    0.00406     0.26808
 =======================================================================
   * Total *    0.00000     15.99435    42.81072    0.19493    59.00000

 Normal termination of Gaussian 16 at Fri Dec 11 01:14:25 2020.
