 Gaussian 16, Revision A.03,

 -----------------------------------------------------------
 # opt freq B3LYP/6-31G(d) empiricaldispersion=gd3bj scf=xqc
 -----------------------------------------------------------

 -------------------------------
 CID_105085810_JID_8481_neutraal
 -------------------------------
 Symbolic Z-matrix:
 Charge =  0 Multiplicity = 1

 SCF Done:  E(RB3LYP) =  -1126.08212183     A.U. after   16 cycles
 SCF Done:  E(RB3LYP) =  -1126.09058365     A.U. after   15 cycles
 SCF Done:  E(RB3LYP) =  -1126.08959385     A.U. after   14 cycles
 SCF Done:  E(RB3LYP) =  -1126.09105946     A.U. after   13 cycles
 SCF Done:  E(RB3LYP) =  -1126.09281335     A.U. after   14 cycles
 SCF Done:  E(RB3LYP) =  -1126.09364353     A.U. after   13 cycles
 SCF Done:  E(RB3LYP) =  -1126.09406568     A.U. after   12 cycles
 SCF Done:  E(RB3LYP) =  -1126.09418896     A.U. after   13 cycles
 SCF Done:  E(RB3LYP) =  -1126.09433522     A.U. after   12 cycles
 SCF Done:  E(RB3LYP) =  -1126.09437900     A.U. after   11 cycles
 SCF Done:  E(RB3LYP) =  -1126.09444003     A.U. after    7 cycles
 SCF Done:  E(RB3LYP) =  -1126.09444007     A.U. after    7 cycles
 SCF Done:  E(RB3LYP) =  -1126.09444009     A.U. after    7 cycles
 SCF Done:  E(RB3LYP) =  -1126.09444010     A.U. after    7 cycles
 SCF Done:  E(RB3LYP) =  -1126.09444010     A.U. after    6 cycles
 Optimization completed on the basis of negligible forces.
    -- Stationary point found.
 Normal termination of Gaussian 16 at Fri Dec 11 21:14:20 2020.

 --------------------------------------------------------------------
 #N Geom=AllCheck Guess=TCheck SCRF=Check GenChk RB3LYP/6-31G(d) Freq
 --------------------------------------------------------------------

 Structure from the checkpoint file:  "JID_8481.chk"
 -------------------------------
 CID_105085810_JID_8481_neutraal
 -------------------------------
 Charge =  0 Multiplicity = 1

 SCF Done:  E(RB3LYP) =  -1126.09444010     A.U. after    1 cycles

  Exact polarizability: 191.095  -3.659 177.163  30.547  -0.550 137.427
 Approx polarizability: 283.754  -6.223 327.435  67.728 -10.898 242.586

                      1                      2                      3
                      A                      A                      A
 Frequencies --     11.8401                32.7795                46.4048
 Red. masses --      1.0231                 5.1381                 5.9106
 Frc consts  --      0.0001                 0.0033                 0.0075
 IR Inten    --      0.2293                 0.0521                 1.3049

                      4                      5                      6
                      A                      A                      A
 Frequencies --     53.8451                70.3777               117.9187
 Red. masses --      4.3828                 5.0544                 3.3615
 Frc consts  --      0.0075                 0.0147                 0.0275
 IR Inten    --      0.0144                 0.9068                 0.9895

                      7                      8                      9
                      A                      A                      A
 Frequencies --    126.1501               131.5482               139.5760
 Red. masses --      1.0815                 1.3223                 5.5255
 Frc consts  --      0.0101                 0.0135                 0.0634
 IR Inten    --      0.6257                 0.5744                 2.6201

                     10                     11                     12
                      A                      A                      A
 Frequencies --    155.2730               160.1467               197.0358
 Red. masses --      1.4953                 2.3096                 2.2102
 Frc consts  --      0.0212                 0.0349                 0.0506
 IR Inten    --      0.9461                 2.8278                 5.3229

                     13                     14                     15
                      A                      A                      A
 Frequencies --    219.2357               235.6820               257.6167
 Red. masses --      4.1913                 2.7646                 5.1244
 Frc consts  --      0.1187                 0.0905                 0.2004
 IR Inten    --      2.0494                 0.0998                 2.3175

                     16                     17                     18
                      A                      A                      A
 Frequencies --    280.4303               321.3007               344.1742
 Red. masses --      2.5158                 2.7099                 3.4296
 Frc consts  --      0.1166                 0.1648                 0.2394
 IR Inten    --      0.3759                 0.2943                 1.6850

                     19                     20                     21
                      A                      A                      A
 Frequencies --    354.6719               401.2296               427.4231
 Red. masses --      4.3307                 5.0716                 3.6611
 Frc consts  --      0.3210                 0.4810                 0.3941
 IR Inten    --      2.0807                 7.6221                 1.1726

                     22                     23                     24
                      A                      A                      A
 Frequencies --    449.6604               475.5355               508.7814
 Red. masses --      8.7743                 5.2677                 2.7824
 Frc consts  --      1.0453                 0.7018                 0.4244
 IR Inten    --     24.2581                10.3044                 0.1267

                     25                     26                     27
                      A                      A                      A
 Frequencies --    530.6425               553.2837               556.8329
 Red. masses --      3.2614                 3.2925                 4.8574
 Frc consts  --      0.5411                 0.5938                 0.8874
 IR Inten    --      0.1340                 2.8137                 3.5615

                     28                     29                     30
                      A                      A                      A
 Frequencies --    573.1445               580.8021               598.4284
 Red. masses --      4.0488                 4.1708                 7.6726
 Frc consts  --      0.7836                 0.8290                 1.6189
 IR Inten    --      3.5530                 0.4833                 3.7680

                     31                     32                     33
                      A                      A                      A
 Frequencies --    633.1923               662.3588               711.0395
 Red. masses --      4.6879                 5.9341                 4.9912
 Frc consts  --      1.1074                 1.5339                 1.4868
 IR Inten    --     13.5093                 1.0255                11.0900

                     34                     35                     36
                      A                      A                      A
 Frequencies --    748.2008               804.8473               835.5422
 Red. masses --      3.6628                 6.9415                 5.9790
 Frc consts  --      1.2081                 2.6493                 2.4593
 IR Inten    --      4.8945                 9.5310                19.4556

                     37                     38                     39
                      A                      A                      A
 Frequencies --    874.9371               899.5716               913.7257
 Red. masses --      1.2758                 1.3054                 2.5568
 Frc consts  --      0.5754                 0.6224                 1.2577
 IR Inten    --      7.7907                 0.0390                 1.6339

                     40                     41                     42
                      A                      A                      A
 Frequencies --    972.8960               987.9539               990.0181
 Red. masses --      3.1764                 3.8370                 2.0721
 Frc consts  --      1.7714                 2.2065                 1.1966
 IR Inten    --     17.0811                 1.0650                 5.0532

                     43                     44                     45
                      A                      A                      A
 Frequencies --   1022.5608              1038.7339              1046.3106
 Red. masses --      5.8457                 1.7691                 1.5731
 Frc consts  --      3.6014                 1.1246                 1.0147
 IR Inten    --     22.3932                23.7318                 6.7836

                     46                     47                     48
                      A                      A                      A
 Frequencies --   1052.0896              1070.7000              1075.3091
 Red. masses --      1.6073                 1.5405                 1.5183
 Frc consts  --      1.0482                 1.0405                 1.0344
 IR Inten    --      6.1416                 4.3972                 5.7808

                     49                     50                     51
                      A                      A                      A
 Frequencies --   1077.8488              1080.6095              1082.2380
 Red. masses --      1.5633                 1.6754                 1.7011
 Frc consts  --      1.0700                 1.1527                 1.1739
 IR Inten    --      1.1322                 4.0074                11.4271

                     52                     53                     54
                      A                      A                      A
 Frequencies --   1162.0808              1172.8893              1233.6603
 Red. masses --      3.4972                 1.7370                 1.6065
 Frc consts  --      2.7825                 1.4079                 1.4406
 IR Inten    --      4.1924                15.6821                14.0737

                     55                     56                     57
                      A                      A                      A
 Frequencies --   1254.5748              1300.4921              1305.2899
 Red. masses --      2.5036                 1.4633                 1.4873
 Frc consts  --      2.3217                 1.4581                 1.4931
 IR Inten    --     55.5048                 0.7354                 4.0373

                     58                     59                     60
                      A                      A                      A
 Frequencies --   1331.7281              1334.4458              1355.4737
 Red. masses --      5.7146                 5.4588                 4.3777
 Frc consts  --      5.9713                 5.7273                 4.7389
 IR Inten    --      3.6855                31.9152                 5.3132

                     61                     62                     63
                      A                      A                      A
 Frequencies --   1411.1362              1442.7135              1446.3760
 Red. masses --      5.2391                 1.2458                 1.2462
 Frc consts  --      6.1468                 1.5277                 1.5360
 IR Inten    --     57.0120                 0.1165                 1.1776

                     64                     65                     66
                      A                      A                      A
 Frequencies --   1448.3934              1452.3037              1464.5165
 Red. masses --      1.4390                 1.2557                 2.5206
 Frc consts  --      1.7786                 1.5605                 3.1852
 IR Inten    --     12.0567                 2.5203                 0.0060

                     67                     68                     69
                      A                      A                      A
 Frequencies --   1485.9170              1508.2789              1509.0070
 Red. masses --      1.6850                 1.2779                 1.0613
 Frc consts  --      2.1920                 1.7129                 1.4238
 IR Inten    --      0.8284                19.3042                13.2741

                     70                     71                     72
                      A                      A                      A
 Frequencies --   1509.5633              1516.7579              1519.7066
 Red. masses --      1.2535                 1.0494                 1.0474
 Frc consts  --      1.6830                 1.4224                 1.4252
 IR Inten    --     21.8870                 6.2338                10.4854

                     73                     74                     75
                      A                      A                      A
 Frequencies --   1520.9322              1524.9106              1533.1986
 Red. masses --      1.0510                 1.0844                 1.1704
 Frc consts  --      1.4324                 1.4858                 1.6209
 IR Inten    --      4.5019                 0.9416                25.5311

                     76                     77                     78
                      A                      A                      A
 Frequencies --   1546.3958              1559.6285              1633.8399
 Red. masses --      1.3181                 3.8961                 6.4774
 Frc consts  --      1.8572                 5.5838                10.1876
 IR Inten    --     13.4945                20.0337                 5.3365

                     79                     80                     81
                      A                      A                      A
 Frequencies --   1668.0454              1788.4285              3044.5103
 Red. masses --      5.4509                11.5863                 1.0396
 Frc consts  --      8.9359                21.8342                 5.6774
 IR Inten    --     18.5238               184.1677                32.7741

                     82                     83                     84
                      A                      A                      A
 Frequencies --   3046.0172              3054.3972              3068.6286
 Red. masses --      1.0447                 1.0408                 1.0381
 Frc consts  --      5.7111                 5.7210                 5.7597
 IR Inten    --     20.9150                19.9037                 7.5486

                     85                     86                     87
                      A                      A                      A
 Frequencies --   3087.8321              3100.5322              3110.3335
 Red. masses --      1.0579                 1.0973                 1.0905
 Frc consts  --      5.9429                 6.2151                 6.2155
 IR Inten    --     12.4265                19.8920                11.8902

                     88                     89                     90
                      A                      A                      A
 Frequencies --   3114.3201              3128.8393              3133.8024
 Red. masses --      1.0956                 1.1022                 1.0991
 Frc consts  --      6.2605                 6.3576                 6.3594
 IR Inten    --     11.9179                14.5759                 5.2881

                     91                     92                     93
                      A                      A                      A
 Frequencies --   3136.2437              3139.5823              3143.0401
 Red. masses --      1.1019                 1.1045                 1.1034
 Frc consts  --      6.3857                 6.4146                 6.4221
 IR Inten    --     13.7770                13.2524                 2.8900

                     94                     95                     96
                      A                      A                      A
 Frequencies --   3161.9860              3174.5403              3177.7795
 Red. masses --      1.1029                 1.0898                 1.0901
 Frc consts  --      6.4966                 6.4711                 6.4859
 IR Inten    --      6.0449                23.8555                15.0908

 - Thermochemistry -
 -------------------
 Temperature   298.150 Kelvin.  Pressure   1.00000 Atm.
 Atom     1 has atomic number  6 and mass  12.00000

 Molecular mass:   260.09834 amu.
 Principal axes and moments of inertia in atomic units:
                           1         2         3
     Eigenvalues --  2903.986606063.312076984.49429
           X            0.99983  -0.01254   0.01366
           Y            0.01238   0.99985   0.01189
           Z           -0.01381  -0.01172   0.99984
 This molecule is an asymmetric top.
 Rotational symmetry number  1.
 Warning -- assumption of classical behavior for rotation
           may cause significant error
 Rotational temperatures (Kelvin)      0.02983     0.01428     0.01240
 Rotational constants (GHZ):           0.62147     0.29765     0.25839
 Zero-point vibrational energy     719287.8 (Joules/Mol)
                                  171.91390 (Kcal/Mol)
 Warning -- explicit consideration of  30 degrees of freedom as
           vibrations may cause significant error
 Vibrational temperatures:     17.04    47.16    66.77    77.47   101.26
          (Kelvin)            169.66   181.50   189.27   200.82   223.40
                              230.42   283.49   315.43   339.09   370.65
                              403.48   462.28   495.19   510.29   577.28
                              614.97   646.96   684.19   732.02   763.48
                              796.05   801.16   824.63   835.64   861.01
                              911.02   952.99  1023.03  1076.49  1158.00
                             1202.16  1258.84  1294.28  1314.65  1399.78
                             1421.45  1424.42  1471.24  1494.51  1505.41
                             1513.72  1540.50  1547.13  1550.78  1554.76
                             1557.10  1671.98  1687.53  1774.96  1805.05
                             1871.12  1878.02  1916.06  1919.97  1950.22
                             2030.31  2075.74  2081.01  2083.92  2089.54
                             2107.11  2137.90  2170.08  2171.12  2171.92
                             2182.28  2186.52  2188.28  2194.01  2205.93
                             2224.92  2243.96  2350.73  2399.95  2573.15
                             4380.37  4382.54  4394.60  4415.07  4442.70
                             4460.97  4475.08  4480.81  4501.70  4508.84
                             4512.36  4517.16  4522.13  4549.39  4567.46
                             4572.12

 Zero-point correction=                           0.273962 (Hartree/Particle)
 Thermal correction to Energy=                    0.292447
 Thermal correction to Enthalpy=                  0.293392
 Thermal correction to Gibbs Free Energy=         0.225289
 Sum of electronic and zero-point Energies=          -1125.820478
 Sum of electronic and thermal Energies=             -1125.801993
 Sum of electronic and thermal Enthalpies=           -1125.801049
 Sum of electronic and thermal Free Energies=        -1125.869151

                     E (Thermal)             CV                S
                      KCal/Mol        Cal/Mol-Kelvin    Cal/Mol-Kelvin
 Total                  183.514             67.555            143.335
 Electronic               0.000              0.000              0.000
 Translational            0.889              2.981             42.567
 Rotational               0.889              2.981             33.175
 Vibrational            181.736             61.593             67.592
 Vibration     1          0.593              1.987              7.675
 Vibration     2          0.594              1.983              5.654
 Vibration     3          0.595              1.979              4.965
 Vibration     4          0.596              1.976              4.671
 Vibration     5          0.598              1.968              4.143
 Vibration     6          0.608              1.934              3.134
 Vibration     7          0.611              1.927              3.004
 Vibration     8          0.612              1.922              2.923
 Vibration     9          0.615              1.914              2.810
 Vibration    10          0.620              1.897              2.607
 Vibration    11          0.622              1.891              2.548
 Vibration    12          0.636              1.844              2.161
 Vibration    13          0.647              1.812              1.965
 Vibration    14          0.655              1.786              1.835
 Vibration    15          0.667              1.750              1.678
 Vibration    16          0.680              1.710              1.531
 Vibration    17          0.707              1.633              1.303
 Vibration    18          0.723              1.587              1.193
 Vibration    19          0.731              1.566              1.145
 Vibration    20          0.767              1.467              0.958
 Vibration    21          0.789              1.411              0.867
 Vibration    22          0.809              1.362              0.797
 Vibration    23          0.832              1.304              0.722
 Vibration    24          0.864              1.231              0.637
 Vibration    25          0.886              1.182              0.586
 Vibration    26          0.909              1.133              0.537
 Vibration    27          0.912              1.125              0.530
 Vibration    28          0.929              1.089              0.498
 Vibration    29          0.938              1.073              0.484
 Vibration    30          0.956              1.035              0.452

 Optimization completed on the basis of negligible forces.
    -- Stationary point found.
 Normal termination of Gaussian 16 at Fri Dec 11 21:31:26 2020.

 ----------------------------------------------------------------------
 # B3LYP/6-311++G(d,p) empiricaldispersion=gd3bj scf=xqc pop=npa geom=c
 heck
 ----------------------------------------------------------------------

 ---------------------------------------
 CID_105085810_JID_8481_Energie_neutraal
 ---------------------------------------
 Structure from the checkpoint file:  "JID_8481.chk"
 Charge =  0 Multiplicity = 1

 SCF Done:  E(RB3LYP) =  -1126.31042080     A.U. after   18 cycles
 Normal termination of Gaussian 16 at Fri Dec 11 21:38:58 2020.

 ----------------------------------------------------------------------
 # B3LYP/6-311++G(d,p) empiricaldispersion=gd3bj scf=xqc pop=npa geom=c
 heck
 ----------------------------------------------------------------------

 -------------------------------------
 CID_105085810_JID_8481_Energie_kation
 -------------------------------------
 Structure from the checkpoint file:  "JID_8481.chk"
 Charge =  1 Multiplicity = 2

 SCF Done:  E(UB3LYP) =  -1126.00436255     A.U. after   33 cycles
 SCF Done:  E(UB3LYP) =  -1126.00436255     a.u. after    1 cycles
 Normal termination of Gaussian 16 at Fri Dec 11 21:57:52 2020.
 Gaussian 16:  ES64L-G16RevA.03 25-Dec-2016

 ----------------------------------------------------------------------
 # B3LYP/6-311++G(d,p) empiricaldispersion=gd3bj scf=xqc pop=npa geom=c
 heck
 ----------------------------------------------------------------------

 ------------------------------------
 CID_105085810_JID_8481_Energie_anion
 ------------------------------------
 Structure from the checkpoint file:  "JID_8481.chk"
 Charge = -1 Multiplicity = 2

                         Standard orientation:
 ---------------------------------------------------------------------
 Center     Atomic      Atomic             Coordinates (Angstroms)
 Number     Number       Type             X           Y           Z
 ---------------------------------------------------------------------
      1          6           0        4.216224   -1.811255    0.638513
      2          6           0        3.105315   -0.943047    0.101413
      3          6           0        3.025098    0.409947    0.440158
      4          6           0        1.988103    1.225503   -0.016368
      5          6           0        0.988700    0.669693   -0.844764
      6          6           0        1.065682   -0.685091   -1.222574
      7          6           0        2.123423   -1.464735   -0.741629
      8          6           0        0.053878   -1.329222   -2.142338
      9          6           0       -0.195683    1.533088   -1.256082
     10          6           0       -1.167232    1.602647   -0.083589
     11          8           0       -1.303126    2.585747    0.618173
     12          6           0       -1.903544    0.333200    0.239636
     13          6           0       -1.551436   -0.594536    1.194887
     14          7           0       -2.419013   -1.667535    1.229932
     15          7           0       -3.386235   -1.646478    0.412988
     16         16           0       -3.317897   -0.180791   -0.574181
     17          6           0       -0.367575   -0.555664    2.110157
     18          6           0        1.976340    2.686982    0.368298
     19          1           0        5.178395   -1.287873    0.617214
     20          1           0        4.026601   -2.096114    1.681517
     21          1           0        4.317991   -2.734047    0.059145
     22          1           0        3.791432    0.845169    1.077793
     23          1           0        2.179588   -2.509452   -1.038333
     24          1           0       -0.932357   -1.421523   -1.676434
     25          1           0       -0.078097   -0.758782   -3.069573
     26          1           0        0.378393   -2.335529   -2.420656
     27          1           0        0.107384    2.554265   -1.499396
     28          1           0       -0.706248    1.104044   -2.122836
     29          1           0       -0.626210   -1.010381    3.070094
     30          1           0        0.475050   -1.109375    1.681424
     31          1           0       -0.042863    0.472877    2.280420
     32          1           0        1.051620    2.979407    0.874299
     33          1           0        2.817178    2.916341    1.028668
     34          1           0        2.066467    3.330685   -0.516579
 ---------------------------------------------------------------------

 SCF Done:  E(UB3LYP) =  -1126.32707307     A.U. after   32 cycles

 The electronic state is 2-A.
 Alpha  occ. eigenvalues --  -88.73074 -18.96009 -14.19844 -14.19195 -10.10607
 Alpha  occ. eigenvalues --  -10.07877 -10.07352 -10.07298 -10.07197 -10.06723
 Alpha  occ. eigenvalues --  -10.06195 -10.06043 -10.06026 -10.05858 -10.05677
 Alpha  occ. eigenvalues --  -10.05532 -10.05059 -10.04085  -7.81673  -5.78005
 Alpha  occ. eigenvalues --   -5.77590  -5.77261  -0.89975  -0.88455  -0.75918
 Alpha  occ. eigenvalues --   -0.69347  -0.67693  -0.67327  -0.65235  -0.62818
 Alpha  occ. eigenvalues --   -0.59944  -0.57379  -0.56211  -0.55242  -0.49587
 Alpha  occ. eigenvalues --   -0.47105  -0.46100  -0.42537  -0.38982  -0.38315
 Alpha  occ. eigenvalues --   -0.37741  -0.34223  -0.33045  -0.32954  -0.32197
 Alpha  occ. eigenvalues --   -0.31246  -0.31109  -0.30365  -0.29948  -0.29888
 Alpha  occ. eigenvalues --   -0.29424  -0.29328  -0.29155  -0.27649  -0.26695
 Alpha  occ. eigenvalues --   -0.26440  -0.26072  -0.24929  -0.22966  -0.22765
 Alpha  occ. eigenvalues --   -0.22233  -0.20971  -0.19644  -0.15312  -0.13876
 Alpha  occ. eigenvalues --   -0.13451  -0.11571  -0.10520  -0.10158   0.04198
 Alpha virt. eigenvalues --    0.06646   0.08081   0.08294   0.08630   0.09383
 Alpha virt. eigenvalues --    0.09877   0.10112   0.10283   0.10917   0.11839
 Alpha virt. eigenvalues --    0.12136   0.12368   0.12915   0.13167   0.13716

  Beta  occ. eigenvalues --  -88.73013 -18.95657 -14.19277 -14.19040 -10.10291
  Beta  occ. eigenvalues --  -10.07883 -10.07331 -10.07219 -10.07161 -10.06667
  Beta  occ. eigenvalues --  -10.06208 -10.06060 -10.06030 -10.05857 -10.05680
  Beta  occ. eigenvalues --  -10.05559 -10.04831 -10.04085  -7.81616  -5.77977
  Beta  occ. eigenvalues --   -5.77559  -5.77068  -0.89283  -0.87829  -0.75839
  Beta  occ. eigenvalues --   -0.69169  -0.67581  -0.67000  -0.64861  -0.62661
  Beta  occ. eigenvalues --   -0.59927  -0.57371  -0.55936  -0.55053  -0.48934
  Beta  occ. eigenvalues --   -0.47070  -0.45934  -0.42081  -0.38841  -0.38136
  Beta  occ. eigenvalues --   -0.37440  -0.33998  -0.32936  -0.32808  -0.31960
  Beta  occ. eigenvalues --   -0.31079  -0.30971  -0.30229  -0.29818  -0.29751
  Beta  occ. eigenvalues --   -0.29334  -0.29129  -0.28893  -0.27546  -0.26467
  Beta  occ. eigenvalues --   -0.25885  -0.25480  -0.24216  -0.22783  -0.22612
  Beta  occ. eigenvalues --   -0.22053  -0.19992  -0.19135  -0.14159  -0.13630
  Beta  occ. eigenvalues --   -0.13055  -0.10716  -0.09969  -0.09335
  Beta virt. eigenvalues --    0.06593   0.08211   0.08562   0.08646   0.09409
  Beta virt. eigenvalues --    0.10061   0.10189   0.10324   0.10715   0.11669
  Beta virt. eigenvalues --    0.12082   0.12231   0.12720   0.13002   0.13395

 Mulliken charges and spin densities:
               1          2
     1  C   -0.454206  -0.061061
     2  C    0.289208   0.057065
     3  C   -0.253196  -0.022326
     4  C    0.089182   0.051405
     5  C    0.402080   0.071113
     6  C    0.368644   0.022610
     7  C   -0.761448   0.038450
     8  C   -0.567955   0.031944
     9  C   -0.439640  -0.117227
    10  C   -0.310087   0.249189
    11  O   -0.257502   0.115663
    12  C    0.766812   0.108830
    13  C   -0.988788  -0.032464
    14  N    0.058286   0.074088
    15  N   -0.211921   0.227787
    16  S   -0.150124   0.101743
    17  C   -0.478560   0.008529
    18  C   -0.433135  -0.003183
    19  H    0.108629   0.018404
    20  H    0.171669  -0.000273
    21  H    0.110612   0.012621
    22  H    0.123413   0.007787
    23  H    0.150390   0.003265
    24  H    0.182168  -0.007022
    25  H    0.148728   0.002183
    26  H    0.107781   0.000259
    27  H    0.143560   0.018819
    28  H    0.139950   0.004661
    29  H    0.178000  -0.001464
    30  H    0.170468  -0.003504
    31  H    0.132480   0.009974
    32  H    0.207306   0.007709
    33  H    0.113142   0.000073
    34  H    0.144052   0.004357
 Sum of Mulliken charges =  -1.00000   1.00000

 Dipole moment (field-independent basis, Debye):
    X=              8.1938    Y=              0.2563    Z=             -2.2777  Tot=              8.5084
 Quadrupole moment (field-independent basis, Debye-Ang):
   XX=           -161.5388   YY=           -143.0267   ZZ=           -125.6942
   XY=             -6.9189   XZ=              8.5120   YZ=              0.5135

 Summary of Natural Population Analysis:

                                       Natural Population
                Natural  -----------------------------------------------
    Atom  No    Charge         Core      Valence    Rydberg      Total
 -----------------------------------------------------------------------
      C    1   -0.29057      0.99964     2.28631    0.00461     3.29057
      C    2   -0.00796      0.99951     2.00032    0.00813     3.00796
      C    3   -0.10961      0.99947     2.10229    0.00785     3.10961
      C    4   -0.02253      0.99953     2.00826    0.01475     3.02253
      C    5    0.05196      0.99942     1.93729    0.01133     2.94804
      C    6   -0.01986      0.99952     2.00547    0.01487     3.01986
      C    7   -0.10990      0.99947     2.10268    0.00775     3.10990
      C    8   -0.29754      0.99963     2.29264    0.00527     3.29754
      C    9   -0.25335      0.99960     2.23954    0.01421     3.25335
      C   10    0.31999      0.99959     1.65724    0.02318     2.68001
      O   11   -0.25984      0.99987     3.25310    0.00687     4.25984
      C   12   -0.11405      0.99937     2.09717    0.01751     3.11405
      C   13    0.02982      0.99944     1.95127    0.01947     2.97018
      N   14   -0.10096      0.99969     2.58465    0.01661     3.60096
      N   15   -0.09659      0.99981     2.57959    0.01718     3.59659
      S   16    0.23841      4.99945     2.73771    0.02442     7.76159
      C   17   -0.29615      0.99963     2.29157    0.00495     3.29615
      C   18   -0.30045      0.99964     2.29567    0.00514     3.30045
      H   19    0.09820      0.00000     0.40088    0.00092     0.40180
      H   20    0.10163      0.00000     0.39739    0.00098     0.39837
      H   21    0.09823      0.00000     0.40093    0.00084     0.40177
      H   22    0.09102      0.00000     0.40773    0.00125     0.40898
      H   23    0.09257      0.00000     0.40618    0.00125     0.40743
      H   24    0.11844      0.00000     0.38000    0.00156     0.38156
      H   25    0.09882      0.00000     0.40013    0.00104     0.40118
      H   26    0.09640      0.00000     0.40269    0.00091     0.40360
      H   27    0.10625      0.00000     0.39235    0.00140     0.39375
      H   28    0.10971      0.00000     0.38924    0.00105     0.39029
      H   29    0.10174      0.00000     0.39730    0.00096     0.39826
      H   30    0.10548      0.00000     0.39342    0.00110     0.39452
      H   31    0.10637      0.00000     0.39266    0.00098     0.39363
      H   32    0.12166      0.00000     0.37703    0.00132     0.37834
      H   33    0.09434      0.00000     0.40477    0.00089     0.40566
      H   34    0.09969      0.00000     0.39928    0.00103     0.40031
 =======================================================================
   * Total *    0.00137     21.99229    46.76476    0.24157    68.99863

 Normal termination of Gaussian 16 at Fri Dec 11 22:15:52 2020.
