 Gaussian 16, Revision A.03,

 -----------------------------------------------------------
 # opt freq B3LYP/6-31G(d) empiricaldispersion=gd3bj scf=xqc
 -----------------------------------------------------------

 ----------------------------
 CID_181639_JID_4807_neutraal
 ----------------------------
 Symbolic Z-matrix:
 Charge =  0 Multiplicity = 1

 SCF Done:  E(RB3LYP) =  -628.413315332     A.U. after   15 cycles
 SCF Done:  E(RB3LYP) =  -628.417451209     A.U. after   13 cycles
 SCF Done:  E(RB3LYP) =  -628.418000209     A.U. after   12 cycles
 SCF Done:  E(RB3LYP) =  -628.418654489     A.U. after   13 cycles
 SCF Done:  E(RB3LYP) =  -628.419153654     A.U. after   12 cycles
 SCF Done:  E(RB3LYP) =  -628.419405792     A.U. after   12 cycles
 SCF Done:  E(RB3LYP) =  -628.419765895     A.U. after   12 cycles
 SCF Done:  E(RB3LYP) =  -628.419985029     A.U. after   11 cycles
 SCF Done:  E(RB3LYP) =  -628.420186101     A.U. after   12 cycles
 SCF Done:  E(RB3LYP) =  -628.420237802     A.U. after   11 cycles
 SCF Done:  E(RB3LYP) =  -628.420243571     A.U. after   10 cycles
 SCF Done:  E(RB3LYP) =  -628.420244275     A.U. after    8 cycles
 SCF Done:  E(RB3LYP) =  -628.420244350     A.U. after    8 cycles
 Optimization completed.
    -- Stationary point found.
 Normal termination of Gaussian 16 at Thu Dec 10 10:17:03 2020.

 --------------------------------------------------------------------
 #N Geom=AllCheck Guess=TCheck SCRF=Check GenChk RB3LYP/6-31G(d) Freq
 --------------------------------------------------------------------

 Structure from the checkpoint file:  "JID_4807.chk"
 ----------------------------
 CID_181639_JID_4807_neutraal
 ----------------------------
 Charge =  0 Multiplicity = 1

 SCF Done:  E(RB3LYP) =  -628.420244350     A.U. after    1 cycles

  Exact polarizability: 166.970   5.978 119.087 -14.027  14.411  82.874
 Approx polarizability: 221.960   7.617 204.791 -27.410  35.358 134.018

                      1                      2                      3
                      A                      A                      A
 Frequencies --     35.8555                45.6027                59.3112
 Red. masses --      4.4333                 3.7007                 5.8034
 Frc consts  --      0.0034                 0.0045                 0.0120
 IR Inten    --      1.2127                 2.0581                 2.7968

                      4                      5                      6
                      A                      A                      A
 Frequencies --    121.1496               186.7279               206.1145
 Red. masses --      4.3305                 3.6981                 3.5145
 Frc consts  --      0.0374                 0.0760                 0.0880
 IR Inten    --      3.1625                 0.3608                 2.8022

                      7                      8                      9
                      A                      A                      A
 Frequencies --    276.8099               326.8819               351.6891
 Red. masses --      2.6839                 3.6344                 2.7259
 Frc consts  --      0.1212                 0.2288                 0.1986
 IR Inten    --      6.9869                12.6199                 2.0061

                     10                     11                     12
                      A                      A                      A
 Frequencies --    410.2790               416.8396               435.9718
 Red. masses --      4.7250                 3.8138                 3.7343
 Frc consts  --      0.4686                 0.3904                 0.4182
 IR Inten    --      4.6915                 3.4451                 3.6379

                     13                     14                     15
                      A                      A                      A
 Frequencies --    443.4102               479.6091               537.4661
 Red. masses --      2.1435                 2.7183                 4.0990
 Frc consts  --      0.2483                 0.3684                 0.6976
 IR Inten    --      4.4586                 0.5766                 3.3663

                     16                     17                     18
                      A                      A                      A
 Frequencies --    603.7856               635.9527               651.6870
 Red. masses --      1.7079                 7.2122                 4.6698
 Frc consts  --      0.3668                 1.7186                 1.1685
 IR Inten    --      7.7889                 8.6245                24.8855

                     19                     20                     21
                      A                      A                      A
 Frequencies --    709.3864               741.7515               762.2414
 Red. masses --      4.6035                 5.7749                 1.7185
 Frc consts  --      1.3649                 1.8720                 0.5883
 IR Inten    --     22.4791                 5.8247                15.5359

                     22                     23                     24
                      A                      A                      A
 Frequencies --    810.5879               824.8830               845.2798
 Red. masses --      2.1602                 2.7524                 1.6185
 Frc consts  --      0.8363                 1.1034                 0.6813
 IR Inten    --    163.8637                14.1702                 0.7673

                     25                     26                     27
                      A                      A                      A
 Frequencies --    866.2859               909.6464               924.0690
 Red. masses --      2.2861                 2.1948                 1.3344
 Frc consts  --      1.0108                 1.0700                 0.6713
 IR Inten    --     16.9642                 1.5803                 0.9745

                     28                     29                     30
                      A                      A                      A
 Frequencies --    953.6314               979.8876              1013.2202
 Red. masses --      2.5700                 1.4192                 1.4081
 Frc consts  --      1.3770                 0.8029                 0.8517
 IR Inten    --      6.7320                 0.3619                 1.3600

                     31                     32                     33
                      A                      A                      A
 Frequencies --   1015.5783              1020.1008              1039.3571
 Red. masses --      2.7800                 4.5738                 1.5863
 Frc consts  --      1.6893                 2.8042                 1.0096
 IR Inten    --     17.9053                 2.6750                 9.3988

                     34                     35                     36
                      A                      A                      A
 Frequencies --   1041.9447              1077.9800              1124.8245
 Red. masses --      2.4866                 2.2910                 1.5274
 Frc consts  --      1.5906                 1.5686                 1.1386
 IR Inten    --     31.4801                 4.5053                 7.2214

                     37                     38                     39
                      A                      A                      A
 Frequencies --   1143.9595              1148.4004              1184.5662
 Red. masses --      2.4635                 3.0909                 1.1184
 Frc consts  --      1.8994                 2.4017                 0.9246
 IR Inten    --     10.6958                52.9792                 1.1100

                     40                     41                     42
                      A                      A                      A
 Frequencies --   1202.8864              1215.0269              1232.1742
 Red. masses --      2.3838                 1.4920                 1.8002
 Frc consts  --      2.0322                 1.2978                 1.6103
 IR Inten    --     48.0292                21.1486                 5.6531

                     43                     44                     45
                      A                      A                      A
 Frequencies --   1289.4648              1311.6268              1328.3166
 Red. masses --      1.7825                 1.8602                 2.4541
 Frc consts  --      1.7462                 1.8855                 2.5512
 IR Inten    --     84.9800                69.2962                65.2993

                     46                     47                     48
                      A                      A                      A
 Frequencies --   1332.2126              1357.3836              1366.9772
 Red. masses --      2.1296                 1.3033                 1.2616
 Frc consts  --      2.2268                 1.4148                 1.3890
 IR Inten    --      2.3147                 3.8485                 0.7743

                     49                     50                     51
                      A                      A                      A
 Frequencies --   1387.8565              1411.5356              1413.7940
 Red. masses --      1.2657                 1.3458                 1.3566
 Frc consts  --      1.4364                 1.5798                 1.5976
 IR Inten    --      7.3583                 0.3243                 8.2429

                     52                     53                     54
                      A                      A                      A
 Frequencies --   1468.8241              1486.8680              1496.8511
 Red. masses --      2.1555                 2.3396                 1.1243
 Frc consts  --      2.7399                 3.0474                 1.4842
 IR Inten    --     83.7098                78.9487                17.7864

                     55                     56                     57
                      A                      A                      A
 Frequencies --   1502.0582              1509.9385              1512.3164
 Red. masses --      1.1142                 1.1795                 1.1388
 Frc consts  --      1.4811                 1.5845                 1.5345
 IR Inten    --     16.3268                 8.1783                 1.6489

                     58                     59                     60
                      A                      A                      A
 Frequencies --   1520.8441              1527.0978              1628.5422
 Red. masses --      1.9942                 1.2286                 5.9754
 Frc consts  --      2.7176                 1.6881                 9.3372
 IR Inten    --      7.9242                 9.9958                28.1288

                     61                     62                     63
                      A                      A                      A
 Frequencies --   1645.7729              1720.6950              3020.4917
 Red. masses --      5.4250                10.8509                 1.0734
 Frc consts  --      8.6574                18.9288                 5.7697
 IR Inten    --     22.9122               248.6154                13.6247

                     64                     65                     66
                      A                      A                      A
 Frequencies --   3027.0074              3041.5497              3053.0001
 Red. masses --      1.0734                 1.0621                 1.0608
 Frc consts  --      5.7948                 5.7889                 5.8258
 IR Inten    --     70.3577                41.8984                41.3662

                     67                     68                     69
                      A                      A                      A
 Frequencies --   3093.7193              3101.4200              3167.0481
 Red. masses --      1.1036                 1.1056                 1.0921
 Frc consts  --      6.2234                 6.2658                 6.4541
 IR Inten    --     44.8256                47.7461                 4.6422

                     70                     71                     72
                      A                      A                      A
 Frequencies --   3175.3200              3198.9072              3200.6848
 Red. masses --      1.0892                 1.0892                 1.0895
 Frc consts  --      6.4703                 6.5667                 6.5763
 IR Inten    --     21.3523                12.1833                 4.9652

                     73                     74                     75
                      A                      A                      A
 Frequencies --   3217.2869              3246.8050              3461.8407
 Red. masses --      1.0963                 1.0931                 1.0736
 Frc consts  --      6.6858                 6.7895                 7.5803
 IR Inten    --     21.8653                 1.0967                 3.0175

 - Thermochemistry -
 -------------------
 Temperature   298.150 Kelvin.  Pressure   1.00000 Atm.
 Atom     1 has atomic number  6 and mass  12.00000

 Molecular mass:   191.10586 amu.
 Principal axes and moments of inertia in atomic units:
                           1         2         3
     Eigenvalues --  1125.298774352.844784941.08322
           X            0.99999   0.00090  -0.00517
           Y           -0.00081   0.99984   0.01774
           Z            0.00519  -0.01773   0.99983
 This molecule is an asymmetric top.
 Rotational symmetry number  1.
 Warning -- assumption of classical behavior for rotation
           may cause significant error
 Rotational temperatures (Kelvin)      0.07697     0.01990     0.01753
 Rotational constants (GHZ):           1.60379     0.41461     0.36525
 Zero-point vibrational energy     599549.6 (Joules/Mol)
                                  143.29580 (Kcal/Mol)
 Warning -- explicit consideration of  16 degrees of freedom as
           vibrations may cause significant error
 Vibrational temperatures:     51.59    65.61    85.34   174.31   268.66
          (Kelvin)            296.55   398.27   470.31   506.00   590.30
                              599.74   627.27   637.97   690.05   773.29
                              868.71   914.99   937.63  1020.65  1067.21
                             1096.70  1166.26  1186.82  1216.17  1246.39
                             1308.78  1329.53  1372.06  1409.84  1457.80
                             1461.19  1467.70  1495.40  1499.13  1550.97
                             1618.37  1645.90  1652.29  1704.33  1730.69
                             1748.15  1772.82  1855.25  1887.14  1911.15
                             1916.76  1952.97  1966.78  1996.82  2030.88
                             2034.13  2113.31  2139.27  2153.63  2161.13
                             2172.46  2175.89  2188.16  2197.15  2343.11
                             2367.90  2475.70  4345.81  4355.19  4376.11
                             4392.59  4451.17  4462.25  4556.68  4568.58
                             4602.51  4605.07  4628.96  4671.43  4980.82

 Zero-point correction=                           0.228356 (Hartree/Particle)
 Thermal correction to Energy=                    0.239953
 Thermal correction to Enthalpy=                  0.240897
 Thermal correction to Gibbs Free Energy=         0.189275
 Sum of electronic and zero-point Energies=           -628.191888
 Sum of electronic and thermal Energies=              -628.180291
 Sum of electronic and thermal Enthalpies=            -628.179347
 Sum of electronic and thermal Free Energies=         -628.230970

                     E (Thermal)             CV                S
                      KCal/Mol        Cal/Mol-Kelvin    Cal/Mol-Kelvin
 Total                  150.573             45.307            108.649
 Electronic               0.000              0.000              0.000
 Translational            0.889              2.981             41.649
 Rotational               0.889              2.981             31.560
 Vibrational            148.796             39.346             35.441
 Vibration     1          0.594              1.982              5.476
 Vibration     2          0.595              1.979              5.000
 Vibration     3          0.597              1.974              4.480
 Vibration     4          0.609              1.932              3.082
 Vibration     5          0.632              1.858              2.260
 Vibration     6          0.641              1.831              2.078
 Vibration     7          0.678              1.716              1.553
 Vibration     8          0.711              1.622              1.275
 Vibration     9          0.728              1.572              1.159
 Vibration    10          0.774              1.448              0.926
 Vibration    11          0.780              1.434              0.903
 Vibration    12          0.796              1.392              0.839
 Vibration    13          0.803              1.375              0.816
 Vibration    14          0.836              1.295              0.711
 Vibration    15          0.892              1.167              0.571
 Vibration    16          0.962              1.024              0.443

                           ! Non-Optimized Parameters !
 Normal termination of Gaussian 16 at Thu Dec 10 10:24:10 2020.

 ----------------------------------------------------------------------
 # B3LYP/6-311++G(d,p) empiricaldispersion=gd3bj scf=xqc pop=npa geom=c
 heck
 ----------------------------------------------------------------------

 ------------------------------------
 CID_181639_JID_4807_Energie_neutraal
 ------------------------------------
 Structure from the checkpoint file:  "JID_4807.chk"
 Charge =  0 Multiplicity = 1

 SCF Done:  E(RB3LYP) =  -628.592697773     A.U. after   16 cycles
 Normal termination of Gaussian 16 at Thu Dec 10 10:27:31 2020.

 ----------------------------------------------------------------------
 # B3LYP/6-311++G(d,p) empiricaldispersion=gd3bj scf=xqc pop=npa geom=c
 heck
 ----------------------------------------------------------------------

 ----------------------------------
 CID_181639_JID_4807_Energie_kation
 ----------------------------------
 Structure from the checkpoint file:  "JID_4807.chk"
 Charge =  1 Multiplicity = 2

 SCF Done:  E(UB3LYP) =  -628.302609001     A.U. after   27 cycles
 Normal termination of Gaussian 16 at Thu Dec 10 10:35:52 2020.
 Gaussian 16:  ES64L-G16RevA.03 25-Dec-2016

 ----------------------------------------------------------------------
 # B3LYP/6-311++G(d,p) empiricaldispersion=gd3bj scf=xqc pop=npa geom=c
 heck
 ----------------------------------------------------------------------

 ---------------------------------
 CID_181639_JID_4807_Energie_anion
 ---------------------------------
 Structure from the checkpoint file:  "JID_4807.chk"
 Charge = -1 Multiplicity = 2

                         Standard orientation:
 ---------------------------------------------------------------------
 Center     Atomic      Atomic             Coordinates (Angstroms)
 Number     Number       Type             X           Y           Z
 ---------------------------------------------------------------------
      1          6           0        2.196563   -1.486775    0.838585
      2          6           0        1.241074   -1.262582   -0.345728
      3          7           0        1.095011    0.172779   -0.597214
      4          6           0        2.376167    0.848783   -0.816158
      5          6           0        3.311534    0.607802    0.377286
      6          7           0        3.488384   -0.811068    0.702282
      7          6           0        0.008030    0.948179   -0.297870
      8          8           0        0.082432    2.176264   -0.210036
      9          6           0       -1.351838    0.311321   -0.104232
     10          6           0       -2.272064    1.019995    0.677870
     11          6           0       -3.557001    0.508547    0.826871
     12          6           0       -3.887299   -0.678376    0.173589
     13          6           0       -2.906784   -1.302484   -0.597306
     14          7           0       -1.663069   -0.830871   -0.735508
     15          1           0        1.716040   -1.110338    1.751843
     16          1           0        2.371450   -2.560091    0.976844
     17          1           0        0.266100   -1.708258   -0.169387
     18          1           0        1.656055   -1.727030   -1.252319
     19          1           0        2.824631    0.434661   -1.730952
     20          1           0        2.177699    1.909824   -0.964827
     21          1           0        2.889604    1.107291    1.258630
     22          1           0        4.294741    1.051727    0.184866
     23          1           0        4.013907   -1.257189   -0.050180
     24          1           0       -1.964873    1.953667    1.132729
     25          1           0       -4.290481    1.030001    1.435197
     26          1           0       -4.879308   -1.111716    0.254388
     27          1           0       -3.127587   -2.224996   -1.130920
 ---------------------------------------------------------------------

 SCF Done:  E(UB3LYP) =  -628.594520374     A.U. after   33 cycles
 SCF Done:  E(UB3LYP) =  -628.594520374     a.u. after    1 cycles

 The electronic state is 2-A.
 Alpha  occ. eigenvalues --  -18.93259 -14.20307 -14.18959 -14.15588 -10.11423
 Alpha  occ. eigenvalues --  -10.08173 -10.08120 -10.07549 -10.07537 -10.06899
 Alpha  occ. eigenvalues --  -10.05235 -10.04313 -10.03739 -10.03304  -0.89112
 Alpha  occ. eigenvalues --   -0.82141  -0.79905  -0.77386  -0.66241  -0.65022
 Alpha  occ. eigenvalues --   -0.62662  -0.58161  -0.53151  -0.50977  -0.49122
 Alpha  occ. eigenvalues --   -0.48352  -0.43117  -0.39878  -0.35804  -0.35403
 Alpha  occ. eigenvalues --   -0.34998  -0.34069  -0.33700  -0.33097  -0.31503
 Alpha  occ. eigenvalues --   -0.29478  -0.28212  -0.27627  -0.27307  -0.25856
 Alpha  occ. eigenvalues --   -0.24502  -0.23834  -0.23764  -0.23431  -0.22157
 Alpha  occ. eigenvalues --   -0.15601  -0.14403  -0.13386  -0.12310  -0.10297
 Alpha  occ. eigenvalues --   -0.09578   0.04740
 Alpha virt. eigenvalues --    0.07114   0.08384   0.08925   0.09630   0.10094
 Alpha virt. eigenvalues --    0.10562   0.10961   0.11749   0.12239   0.12598
 Alpha virt. eigenvalues --    0.13176   0.14212   0.15044   0.15348   0.16369

  Beta  occ. eigenvalues --  -18.93019 -14.20296 -14.18940 -14.15265 -10.11285
  Beta  occ. eigenvalues --  -10.08168 -10.08107 -10.07545 -10.07532 -10.06984
  Beta  occ. eigenvalues --  -10.04961 -10.04175 -10.03773 -10.03050  -0.88739
  Beta  occ. eigenvalues --   -0.82038  -0.79391  -0.77295  -0.65787  -0.64975
  Beta  occ. eigenvalues --   -0.62259  -0.58035  -0.53085  -0.50634  -0.48934
  Beta  occ. eigenvalues --   -0.48084  -0.42976  -0.39697  -0.35610  -0.35322
  Beta  occ. eigenvalues --   -0.34911  -0.33892  -0.33566  -0.33020  -0.31390
  Beta  occ. eigenvalues --   -0.29381  -0.28038  -0.27389  -0.26591  -0.25460
  Beta  occ. eigenvalues --   -0.24449  -0.23725  -0.23429  -0.22882  -0.21916
  Beta  occ. eigenvalues --   -0.14260  -0.14040  -0.12804  -0.11469  -0.09865
  Beta  occ. eigenvalues --   -0.09197
  Beta virt. eigenvalues --    0.07557   0.08359   0.09122   0.09690   0.10088
  Beta virt. eigenvalues --    0.10363   0.10702   0.11144   0.11764   0.12281
  Beta virt. eigenvalues --    0.12639   0.13146   0.14147   0.15110   0.15330

 Mulliken charges and spin densities:
               1          2
     1  C   -0.028397  -0.489825
     2  C   -0.281416   0.072431
     3  N    0.093378   0.014214
     4  C   -0.163970   0.016338
     5  C    0.153848  -0.534077
     6  N   -0.211016   0.092401
     7  C   -0.694364   0.062699
     8  O   -0.379478   0.082773
     9  C    0.019439   0.195848
    10  C    0.397542   0.005362
    11  C   -0.610363   0.093401
    12  C   -0.038947   0.230220
    13  C   -0.210612  -0.061205
    14  N   -0.054275   0.157062
    15  H    0.164507   0.000248
    16  H   -0.006875   0.161740
    17  H    0.237953  -0.052473
    18  H   -0.041048   0.187258
    19  H   -0.099128   0.246891
    20  H    0.198818  -0.018202
    21  H    0.160538   0.011036
    22  H   -0.093625   0.248046
    23  H   -0.052982   0.278057
    24  H    0.184252   0.008920
    25  H    0.122250  -0.010081
    26  H    0.116323  -0.011666
    27  H    0.117648   0.012585
 Sum of Mulliken charges =  -1.00000   1.00000

 Dipole moment (field-independent basis, Debye):
    X=             -1.1025    Y=             -1.3575    Z=              1.1813  Tot=              2.1104
 Quadrupole moment (field-independent basis, Debye-Ang):
   XX=           -133.9188   YY=           -106.4905   ZZ=            -98.9108
   XY=              5.0007   XZ=             -2.2852   YZ=              1.4272

 Summary of Natural Population Analysis:

                                       Natural Population
                Natural  -----------------------------------------------
    Atom  No    Charge         Core      Valence    Rydberg      Total
 -----------------------------------------------------------------------
      C    1   -0.09574      0.99962     2.08445    0.01166     3.09574
      C    2   -0.09600      0.99961     2.08495    0.01144     3.09600
      N    3   -0.25486      0.99965     2.74476    0.01046     3.75486
      C    4   -0.09910      0.99962     2.08787    0.01162     3.09910
      C    5   -0.09555      0.99963     2.08403    0.01190     3.09555
      N    6   -0.34038      0.99976     2.82647    0.01415     3.84038
      C    7    0.35190      0.99960     1.62713    0.02137     2.64810
      O    8   -0.31786      0.99988     3.31283    0.00514     4.31786
      C    9    0.10560      0.99949     1.88205    0.01286     2.89440
      C   10   -0.10950      0.99953     2.10137    0.00860     3.10950
      C   11   -0.07397      0.99957     2.06513    0.00926     3.07397
      C   12   -0.08670      0.99957     2.07814    0.00899     3.08670
      C   13    0.00222      0.99960     1.98409    0.01409     2.99778
      N   14   -0.20326      0.99968     2.69246    0.01112     3.70326
      H   15    0.08993      0.00000     0.40883    0.00124     0.41007
      H   16    0.09204      0.00000     0.40699    0.00098     0.40796
      H   17    0.12249      0.00000     0.37624    0.00127     0.37751
      H   18    0.08510      0.00000     0.41319    0.00171     0.41490
      H   19    0.08636      0.00000     0.41194    0.00170     0.41364
      H   20    0.11664      0.00000     0.38205    0.00131     0.38336
      H   21    0.09256      0.00000     0.40630    0.00114     0.40744
      H   22    0.09212      0.00000     0.40687    0.00101     0.40788
      H   23    0.16878      0.00000     0.32786    0.00336     0.33122
      H   24    0.10840      0.00000     0.39048    0.00113     0.39160
      H   25    0.08945      0.00000     0.40950    0.00105     0.41055
      H   26    0.08949      0.00000     0.40939    0.00111     0.41051
      H   27    0.07986      0.00000     0.41888    0.00126     0.42014
 =======================================================================
   * Total *    0.00000     13.99482    36.82426    0.18092    51.00000

 Normal termination of Gaussian 16 at Thu Dec 10 10:45:31 2020.
