 Gaussian 16, Revision A.03,

 -----------------------------------------------------------
 # opt freq B3LYP/6-31G(d) empiricaldispersion=gd3bj scf=xqc
 -----------------------------------------------------------

 ------------------------------
 CID_130150810_JID_242_neutraal
 ------------------------------
 Symbolic Z-matrix:
 Charge =  0 Multiplicity = 1

 SCF Done:  E(RB3LYP) =  -464.917632287     A.U. after   13 cycles
 SCF Done:  E(RB3LYP) =  -464.922171985     A.U. after   11 cycles
 SCF Done:  E(RB3LYP) =  -464.922576302     A.U. after   10 cycles
 SCF Done:  E(RB3LYP) =  -464.922650390     A.U. after   10 cycles
 SCF Done:  E(RB3LYP) =  -464.922667544     A.U. after    9 cycles
 SCF Done:  E(RB3LYP) =  -464.922674902     A.U. after    8 cycles
 SCF Done:  E(RB3LYP) =  -464.922679121     A.U. after    8 cycles
 SCF Done:  E(RB3LYP) =  -464.922681063     A.U. after    8 cycles
 SCF Done:  E(RB3LYP) =  -464.922681218     A.U. after    7 cycles
 SCF Done:  E(RB3LYP) =  -464.922681180     A.U. after    7 cycles
 SCF Done:  E(RB3LYP) =  -464.922681151     A.U. after    6 cycles
 Optimization completed.
    -- Stationary point found.

 1\1\GINC-NODE117\FOpt\RB3LYP\6-31G(d)\C8H16O2\VSC10255\08-Dec-2020\0\\
 # opt freq B3LYP/6-31G(d) empiricaldispersion=gd3bj scf=xqc\\CID_13015
 0810_JID_242_neutraal\\0,1\C,1.0705510915,0.0571367207,0.015523404\C,0
 .7430300549,1.519978022,-0.2979543969\C,0.9524732473,1.9066438443,-1.7
 688262783\C,0.1383697185,1.0969360948,-2.8011222868\C,-1.3722783386,1.
 2190182083,-2.5784703488\C,0.5732592239,1.535637498,-4.188855178\C,-0.
 3016564964,1.6581964605,-5.3663154003\O,0.1223256316,2.8249637196,-4.6
 443422857\C,0.2491068807,1.5065852859,-6.766135279\O,0.0689311345,0.18

 Normal termination of Gaussian 16 at Tue Dec  8 10:21:29 2020.

 --------------------------------------------------------------------
 #N Geom=AllCheck Guess=TCheck SCRF=Check GenChk RB3LYP/6-31G(d) Freq
 --------------------------------------------------------------------

 Structure from the checkpoint file:  "JID_242.chk"
 ------------------------------
 CID_130150810_JID_242_neutraal
 ------------------------------
 Charge =  0 Multiplicity = 1

 SCF Done:  E(RB3LYP) =  -464.922681151     A.U. after    1 cycles

  Exact polarizability: 109.020  -2.356  78.790   2.956  -0.703  80.244
 Approx polarizability: 126.997  -1.596 120.529   6.433   0.177 116.198

                      1                      2                      3
                      A                      A                      A
 Frequencies --     41.0013                52.8951                88.3088
 Red. masses --      4.2091                 2.6954                 4.2078
 Frc consts  --      0.0042                 0.0044                 0.0193
 IR Inten    --      0.6245                 0.5869                 0.9149

                      4                      5                      6
                      A                      A                      A
 Frequencies --    104.1175               140.8776               179.2295
 Red. masses --      3.2629                 1.9915                 2.0108
 Frc consts  --      0.0208                 0.0233                 0.0381
 IR Inten    --      4.0004                 0.6656                 2.0297

                      7                      8                      9
                      A                      A                      A
 Frequencies --    217.0631               239.0864               258.7580
 Red. masses --      1.5941                 1.5589                 1.8755
 Frc consts  --      0.0443                 0.0525                 0.0740
 IR Inten    --      0.6243                 0.1207                 1.7696

                     10                     11                     12
                      A                      A                      A
 Frequencies --    312.3461               340.5957               375.9150
 Red. masses --      1.6345                 1.4513                 2.4415
 Frc consts  --      0.0940                 0.0992                 0.2033
 IR Inten    --     12.4190                74.2368                10.1930

                     13                     14                     15
                      A                      A                      A
 Frequencies --    389.9799               436.1898               471.0035
 Red. masses --      1.6591                 2.8909                 3.7161
 Frc consts  --      0.1487                 0.3241                 0.4857
 IR Inten    --     44.5150                15.5835                 2.4874

                     16                     17                     18
                      A                      A                      A
 Frequencies --    481.5450               640.3091               753.4534
 Red. masses --      3.5276                 2.6318                 1.4820
 Frc consts  --      0.4820                 0.6357                 0.4957
 IR Inten    --      0.8660                 4.0728                 3.2096

                     19                     20                     21
                      A                      A                      A
 Frequencies --    810.8697               846.6047               863.3557
 Red. masses --      3.7614                 2.0935                 2.3944
 Frc consts  --      1.4571                 0.8841                 1.0515
 IR Inten    --     16.4391                15.6472                 2.8197

                     22                     23                     24
                      A                      A                      A
 Frequencies --    877.3580               921.4713               962.5283
 Red. masses --      1.4486                 1.7959                 2.3692
 Frc consts  --      0.6570                 0.8985                 1.2933
 IR Inten    --      3.7071                 4.5698                23.6412

                     25                     26                     27
                      A                      A                      A
 Frequencies --    988.6278              1021.5609              1057.2096
 Red. masses --      1.8709                 1.2821                 2.2980
 Frc consts  --      1.0774                 0.7883                 1.5133
 IR Inten    --     13.3929                 1.7510                45.8981

                     28                     29                     30
                      A                      A                      A
 Frequencies --   1075.0080              1077.8045              1099.3990
 Red. masses --      1.6537                 3.1589                 2.7570
 Frc consts  --      1.1260                 2.1620                 1.9634
 IR Inten    --      0.9256                55.5388                10.9000

                     31                     32                     33
                      A                      A                      A
 Frequencies --   1110.1170              1129.9467              1170.4414
 Red. masses --      1.5271                 1.3674                 1.9835
 Frc consts  --      1.1088                 1.0287                 1.6010
 IR Inten    --      3.6530                 4.7436                 5.1386

                     34                     35                     36
                      A                      A                      A
 Frequencies --   1179.9015              1201.5699              1226.6423
 Red. masses --      1.6427                 1.9682                 1.2953
 Frc consts  --      1.3474                 1.6743                 1.1483
 IR Inten    --      3.4265                 0.2323                18.6849

                     37                     38                     39
                      A                      A                      A
 Frequencies --   1274.0725              1292.2575              1302.0321
 Red. masses --      1.3905                 1.4055                 1.2495
 Frc consts  --      1.3298                 1.3828                 1.2480
 IR Inten    --      1.1308                 1.7077                 0.7150

                     40                     41                     42
                      A                      A                      A
 Frequencies --   1349.7834              1360.5046              1378.3985
 Red. masses --      1.1561                 1.3477                 1.3890
 Frc consts  --      1.2410                 1.4698                 1.5549
 IR Inten    --      5.5064                 1.4343                 2.2874

                     43                     44                     45
                      A                      A                      A
 Frequencies --   1391.5141              1406.7183              1413.4355
 Red. masses --      1.3095                 1.3250                 1.4288
 Frc consts  --      1.4939                 1.5448                 1.6818
 IR Inten    --      1.0981                10.0598                 1.0364

                     46                     47                     48
                      A                      A                      A
 Frequencies --   1431.6128              1442.4461              1445.3130
 Red. masses --      1.2642                 1.2845                 1.3021
 Frc consts  --      1.5266                 1.5746                 1.6025
 IR Inten    --     51.1205                11.1106                 8.6700

                     49                     50                     51
                      A                      A                      A
 Frequencies --   1512.7791              1514.7109              1523.2697
 Red. masses --      1.2209                 1.8752                 1.0859
 Frc consts  --      1.6462                 2.5349                 1.4845
 IR Inten    --      1.3346                 4.0664                 1.4307

                     52                     53                     54
                      A                      A                      A
 Frequencies --   1529.8401              1535.3459              1536.9313
 Red. masses --      1.0757                 1.0485                 1.0983
 Frc consts  --      1.4833                 1.4563                 1.5286
 IR Inten    --      8.3536                 3.2030                 1.7320

                     55                     56                     57
                      A                      A                      A
 Frequencies --   1539.9309              1547.3478              3013.6223
 Red. masses --      1.0819                 1.0614                 1.0704
 Frc consts  --      1.5116                 1.4972                 5.7275
 IR Inten    --      2.4052                 9.7109                43.0017

                     58                     59                     60
                      A                      A                      A
 Frequencies --   3020.3842              3021.7594              3043.2374
 Red. masses --      1.0813                 1.0657                 1.0616
 Frc consts  --      5.8117                 5.7334                 5.7929
 IR Inten    --     19.0895                20.3841                19.3157

                     61                     62                     63
                      A                      A                      A
 Frequencies --   3044.5666              3061.5504              3069.4395
 Red. masses --      1.0381                 1.0378                 1.0969
 Frc consts  --      5.6697                 5.7312                 6.0887
 IR Inten    --     30.2114                12.4808                20.6750

                     64                     65                     66
                      A                      A                      A
 Frequencies --   3076.3718              3081.2191              3106.7498
 Red. masses --      1.0943                 1.0915                 1.0940
 Frc consts  --      6.1020                 6.1055                 6.2216
 IR Inten    --      8.0304                69.9956                31.4960

                     67                     68                     69
                      A                      A                      A
 Frequencies --   3109.2308              3115.6407              3126.2614
 Red. masses --      1.1017                 1.1018                 1.1015
 Frc consts  --      6.2751                 6.3015                 6.3431
 IR Inten    --     54.1490                51.3739                27.1371

                     70                     71                     72
                      A                      A                      A
 Frequencies --   3137.0163              3154.8187              3734.8947
 Red. masses --      1.1017                 1.0890                 1.0661
 Frc consts  --      6.3876                 6.3857                 8.7621
 IR Inten    --     25.2268                30.9816                 6.9588

 - Thermochemistry -
 -------------------
 Temperature   298.150 Kelvin.  Pressure   1.00000 Atm.
 Atom     1 has atomic number  6 and mass  12.00000

 Molecular mass:   144.11503 amu.
 Principal axes and moments of inertia in atomic units:
                           1         2         3
     Eigenvalues --   627.056283368.672213478.81592
           X            0.99996  -0.00861  -0.00125
           Y            0.00847   0.99624  -0.08618
           Z            0.00199   0.08617   0.99628
 This molecule is an asymmetric top.
 Rotational symmetry number  1.
 Warning -- assumption of classical behavior for rotation
           may cause significant error
 Rotational temperatures (Kelvin)      0.13813     0.02571     0.02490
 Rotational constants (GHZ):           2.87812     0.53574     0.51878
 Zero-point vibrational energy     614809.4 (Joules/Mol)
                                  146.94296 (Kcal/Mol)
 Warning -- explicit consideration of  16 degrees of freedom as
           vibrations may cause significant error
 Vibrational temperatures:     58.99    76.10   127.06   149.80   202.69
          (Kelvin)            257.87   312.31   343.99   372.29   449.40
                              490.04   540.86   561.09   627.58   677.67
                              692.84   921.26  1084.05  1166.66  1218.08
                             1242.18  1262.32  1325.79  1384.86  1422.41
                             1469.80  1521.09  1546.70  1550.72  1581.79
                             1597.21  1625.74  1684.00  1697.62  1728.79
                             1764.86  1833.11  1859.27  1873.33  1942.04
                             1957.46  1983.21  2002.08  2023.95  2033.62
                             2059.77  2075.36  2079.48  2176.55  2179.33
                             2191.65  2201.10  2209.02  2211.30  2215.62
                             2226.29  4335.93  4345.66  4347.64  4378.54
                             4380.45  4404.89  4416.24  4426.21  4433.19
                             4469.92  4473.49  4482.71  4497.99  4513.47
                             4539.08  5373.68

 Zero-point correction=                           0.234169 (Hartree/Particle)
 Thermal correction to Energy=                    0.246141
 Thermal correction to Enthalpy=                  0.247086
 Thermal correction to Gibbs Free Energy=         0.195635
 Sum of electronic and zero-point Energies=           -464.688513
 Sum of electronic and thermal Energies=              -464.676540
 Sum of electronic and thermal Enthalpies=            -464.675596
 Sum of electronic and thermal Free Energies=         -464.727046

                     E (Thermal)             CV                S
                      KCal/Mol        Cal/Mol-Kelvin    Cal/Mol-Kelvin
 Total                  154.456             43.323            108.287
 Electronic               0.000              0.000              0.000
 Translational            0.889              2.981             40.807
 Rotational               0.889              2.981             30.375
 Vibrational            152.679             37.362             37.104
 Vibration     1          0.594              1.981              5.210
 Vibration     2          0.596              1.976              4.706
 Vibration     3          0.601              1.957              3.697
 Vibration     4          0.605              1.946              3.376
 Vibration     5          0.615              1.912              2.792
 Vibration     6          0.629              1.868              2.336
 Vibration     7          0.646              1.815              1.983
 Vibration     8          0.657              1.781              1.810
 Vibration     9          0.668              1.748              1.670
 Vibration    10          0.701              1.650              1.350
 Vibration    11          0.720              1.594              1.209
 Vibration    12          0.747              1.521              1.056
 Vibration    13          0.758              1.492              1.000
 Vibration    14          0.797              1.391              0.839
 Vibration    15          0.828              1.314              0.735
 Vibration    16          0.838              1.291              0.706

 Optimization completed.
    -- Stationary point found.

 1\1\GINC-NODE117\Freq\RB3LYP\6-31G(d)\C8H16O2\VSC10255\08-Dec-2020\0\\
 #N Geom=AllCheck Guess=TCheck SCRF=Check GenChk RB3LYP/6-31G(d) Freq\\
 CID_130150810_JID_242_neutraal\\0,1\C,1.0705510915,0.0571367207,0.0155
 23404\C,0.7430300549,1.519978022,-0.2979543969\C,0.9524732473,1.906643
 8443,-1.7688262783\C,0.1383697185,1.0969360948,-2.8011222868\C,-1.3722
 783386,1.2190182083,-2.5784703488\C,0.5732592239,1.535637498,-4.188855
 178\C,-0.3016564964,1.6581964605,-5.3663154003\O,0.1223256316,2.824963
 7196,-4.6443422857\C,0.2491068807,1.5065852859,-6.766135279\O,0.068931

 Normal termination of Gaussian 16 at Tue Dec  8 10:26:12 2020.

 ----------------------------------------------------------------------
 # B3LYP/6-311++G(d,p) empiricaldispersion=gd3bj scf=xqc pop=npa geom=c
 heck
 ----------------------------------------------------------------------

 --------------------------------------
 CID_130150810_JID_242_Energie_neutraal
 --------------------------------------
 Structure from the checkpoint file:  "JID_242.chk"
 Charge =  0 Multiplicity = 1

 SCF Done:  E(RB3LYP) =  -465.068213296     A.U. after   14 cycles
 Normal termination of Gaussian 16 at Tue Dec  8 10:28:27 2020.

 ----------------------------------------------------------------------
 # B3LYP/6-311++G(d,p) empiricaldispersion=gd3bj scf=xqc pop=npa geom=c
 heck
 ----------------------------------------------------------------------

 ------------------------------------
 CID_130150810_JID_242_Energie_kation
 ------------------------------------
 Structure from the checkpoint file:  "JID_242.chk"
 Charge =  1 Multiplicity = 2

 SCF Done:  E(UB3LYP) =  -464.715385710     A.U. after   26 cycles
 Normal termination of Gaussian 16 at Tue Dec  8 10:35:30 2020.
 Gaussian 16:  ES64L-G16RevA.03 25-Dec-2016

 -----------------------------------
 CID_130150810_JID_242_Energie_anion
 -----------------------------------
 Structure from the checkpoint file:  "JID_242.chk"
 Charge = -1 Multiplicity = 2

                         Standard orientation:
 ---------------------------------------------------------------------
 Center     Atomic      Atomic             Coordinates (Angstroms)
 Number     Number       Type             X           Y           Z
 ---------------------------------------------------------------------
      1          6           0       -3.652253    1.196265   -0.188824
      2          6           0       -3.250360   -0.279880   -0.258978
      3          6           0       -1.794846   -0.512270   -0.688295
      4          6           0       -0.716671    0.141480    0.202872
      5          6           0       -0.778316   -0.353019    1.651391
      6          6           0        0.635101   -0.092452   -0.449338
      7          6           0        1.899945   -0.347388    0.259243
      8          8           0        1.184077   -1.421213   -0.370664
      9          6           0        3.228962    0.019121   -0.361409
     10          8           0        3.681856    1.288916    0.092572
     11          1           0       -3.098977    1.731878    0.590979
     12          1           0       -4.719475    1.304722    0.033402
     13          1           0       -3.456249    1.703767   -1.141710
     14          1           0       -3.436896   -0.757401    0.711105
     15          1           0       -3.901866   -0.796747   -0.975380
     16          1           0       -1.593632   -1.590571   -0.728315
     17          1           0       -1.669344   -0.137458   -1.714734
     18          1           0       -0.873503    1.230247    0.196634
     19          1           0       -0.539748   -1.420681    1.701090
     20          1           0       -0.072199    0.187243    2.290061
     21          1           0       -1.776463   -0.206222    2.073349
     22          1           0        0.717465    0.337159   -1.453204
     23          1           0        1.897226   -0.376893    1.348333
     24          1           0        3.997622   -0.698536   -0.058086
     25          1           0        3.143162   -0.028604   -1.458050
     26          1           0        3.026038    1.945334   -0.190700
 ---------------------------------------------------------------------

 SCF Done:  E(UB3LYP) =  -465.054743168     A.U. after   28 cycles

 The electronic state is 2-A.
 Alpha  occ. eigenvalues --  -19.03321 -19.02211 -10.12229 -10.12069 -10.12020
 Alpha  occ. eigenvalues --  -10.07379 -10.06293 -10.06126 -10.05709 -10.05045
 Alpha  occ. eigenvalues --   -0.97462  -0.92232  -0.71193  -0.65432  -0.62787
 Alpha  occ. eigenvalues --   -0.58274  -0.56355  -0.51819  -0.48360  -0.45090
 Alpha  occ. eigenvalues --   -0.42632  -0.38513  -0.37835  -0.36648  -0.34100
 Alpha  occ. eigenvalues --   -0.32778  -0.32012  -0.30775  -0.29732  -0.29182
 Alpha  occ. eigenvalues --   -0.26900  -0.25586  -0.24960  -0.24373  -0.23684
 Alpha  occ. eigenvalues --   -0.22311  -0.22096  -0.19134  -0.18796  -0.16721
 Alpha  occ. eigenvalues --    0.04762
 Alpha virt. eigenvalues --    0.06862   0.08000   0.08400   0.09261   0.09607
 Alpha virt. eigenvalues --    0.09922   0.11449   0.11703   0.11810   0.12787
 Alpha virt. eigenvalues --    0.13165   0.14090   0.14691   0.15123   0.15456

  Beta  occ. eigenvalues --  -19.03308 -19.02156 -10.12225 -10.12048 -10.12005
  Beta  occ. eigenvalues --  -10.07360 -10.06278 -10.06117 -10.05691 -10.05000
  Beta  occ. eigenvalues --   -0.97432  -0.92113  -0.71157  -0.65390  -0.62730
  Beta  occ. eigenvalues --   -0.58228  -0.56299  -0.51757  -0.48299  -0.45031
  Beta  occ. eigenvalues --   -0.42556  -0.38474  -0.37756  -0.36612  -0.34058
  Beta  occ. eigenvalues --   -0.32737  -0.31968  -0.30746  -0.29693  -0.29146
  Beta  occ. eigenvalues --   -0.26858  -0.25549  -0.24912  -0.24321  -0.23643
  Beta  occ. eigenvalues --   -0.22271  -0.22059  -0.19093  -0.18758  -0.16684
  Beta virt. eigenvalues --    0.07225   0.08101   0.08464   0.08807   0.09648
  Beta virt. eigenvalues --    0.10163   0.10335   0.11874   0.12095   0.12185
  Beta virt. eigenvalues --    0.13146   0.13436   0.14378   0.14980   0.15505

 Mulliken charges and spin densities:
               1          2
     1  C    1.204034  -1.801992
     2  C   -1.002628   0.826992
     3  C    0.303657  -0.616858
     4  C    0.358408   0.197304
     5  C   -0.017353  -0.755869
     6  C   -0.309593   0.075155
     7  C    0.037808  -0.215416
     8  O   -0.133502   0.019279
     9  C    0.684644  -1.185862
    10  O   -0.237623   0.007926
    11  H   -0.393802   0.551759
    12  H   -0.485844   0.625409
    13  H   -0.279872   0.422229
    14  H    0.060216   0.056664
    15  H   -0.197163   0.345956
    16  H    0.152150  -0.017131
    17  H    0.030978   0.110395
    18  H   -0.090884   0.252840
    19  H    0.083600   0.086420
    20  H   -0.105472   0.233803
    21  H    0.001696   0.134155
    22  H   -0.588141   0.806664
    23  H    0.177199   0.010191
    24  H    0.120470   0.032021
    25  H   -0.098354   0.266463
    26  H   -0.274628   0.531505
 Sum of Mulliken charges =  -1.00000   1.00000

 Dipole moment (field-independent basis, Debye):
    X=              1.8170    Y=             -6.4699    Z=              1.6540  Tot=              6.9207
 Quadrupole moment (field-independent basis, Debye-Ang):
   XX=           -136.9593   YY=           -102.9231   ZZ=            -93.9905
   XY=             -0.4875   XZ=              0.7569   YZ=              1.1113

 Summary of Natural Population Analysis:

                                       Natural Population
                Natural  -----------------------------------------------
    Atom  No    Charge         Core      Valence    Rydberg      Total
 -----------------------------------------------------------------------
      C    1   -0.28765      0.99967     2.28296    0.00502     3.28765
      C    2   -0.18977      0.99964     2.18139    0.00874     3.18977
      C    3   -0.18573      0.99961     2.17694    0.00918     3.18573
      C    4   -0.12808      0.99958     2.11583    0.01268     3.12808
      C    5   -0.29125      0.99965     2.28434    0.00726     3.29125
      C    6    0.05418      0.99953     1.92848    0.01781     2.94582
      C    7    0.03076      0.99952     1.95600    0.01372     2.96924
      O    8   -0.28945      0.99992     3.28258    0.00695     4.28945
      C    9   -0.01856      0.99959     2.00512    0.01384     3.01856
      O   10   -0.36702      0.99990     3.36036    0.00677     4.36702
      H   11    0.09795      0.00000     0.40052    0.00152     0.40205
      H   12    0.09888      0.00000     0.39970    0.00141     0.40112
      H   13    0.09848      0.00000     0.39992    0.00161     0.40152
      H   14    0.09186      0.00000     0.40702    0.00112     0.40814
      H   15    0.09466      0.00000     0.40442    0.00093     0.40534
      H   16    0.09750      0.00000     0.40129    0.00121     0.40250
      H   17    0.09784      0.00000     0.40095    0.00121     0.40216
      H   18    0.10699      0.00000     0.38969    0.00332     0.39301
      H   19    0.10006      0.00000     0.39889    0.00105     0.39994
      H   20    0.10084      0.00000     0.39811    0.00105     0.39916
      H   21    0.10214      0.00000     0.39701    0.00085     0.39786
      H   22    0.09396      0.00000     0.40380    0.00224     0.40604
      H   23    0.09121      0.00000     0.40741    0.00137     0.40879
      H   24    0.08378      0.00000     0.41498    0.00124     0.41622
      H   25    0.08126      0.00000     0.41725    0.00149     0.41874
      H   26    0.23516      0.00000     0.25251    0.01233     0.26484
 =======================================================================
   * Total *   -0.00000      9.99660    29.86747    0.13592    40.00000

 Normal termination of Gaussian 16 at Tue Dec  8 10:46:05 2020.
