 Gaussian 16, Revision A.03,

 -----------------------------------------------------------
 # opt freq B3LYP/6-31G(d) empiricaldispersion=gd3bj scf=xqc
 -----------------------------------------------------------

 ------------------------------
 CID_67661475_JID_5171_neutraal
 ------------------------------
 Symbolic Z-matrix:
 Charge =  0 Multiplicity = 1

 SCF Done:  E(RB3LYP) =  -724.934886943     A.U. after   15 cycles
 SCF Done:  E(RB3LYP) =  -724.941319702     A.U. after   13 cycles
 SCF Done:  E(RB3LYP) =  -724.939662306     A.U. after   12 cycles
 SCF Done:  E(RB3LYP) =  -724.941828339     A.U. after   11 cycles
 SCF Done:  E(RB3LYP) =  -724.941865556     A.U. after   10 cycles
 SCF Done:  E(RB3LYP) =  -724.941872785     A.U. after    9 cycles
 SCF Done:  E(RB3LYP) =  -724.941876296     A.U. after   10 cycles
 SCF Done:  E(RB3LYP) =  -724.941877273     A.U. after    8 cycles
 SCF Done:  E(RB3LYP) =  -724.941877913     A.U. after    8 cycles
 SCF Done:  E(RB3LYP) =  -724.941878115     A.U. after    8 cycles
 SCF Done:  E(RB3LYP) =  -724.941878178     A.U. after    7 cycles
 Optimization completed.
    -- Stationary point found.

 1\1\GINC-NODE206\FOpt\RB3LYP\6-31G(d)\C11H8O4\VSC10255\10-Dec-2020\0\\
 # opt freq B3LYP/6-31G(d) empiricaldispersion=gd3bj scf=xqc\\CID_67661
 475_JID_5171_neutraal\\0,1\C,-2.9668040907,0.3790098812,-0.0325563842\
 C,-2.6479374487,-0.9803730018,-0.2696785611\C,-1.3394680565,-1.3829082
 468,-0.4066471802\C,-0.2854253422,-0.4365254745,-0.3097600289\C,-0.601
 9606224,0.9406416813,-0.0712340004\C,-1.963821021,1.3154525875,0.06327
 17567\C,0.4560048543,1.8789235558,0.0285728198\C,1.7667909625,1.487556
 9282,-0.1077159002\C,2.0909278874,0.1306178225,-0.3477648968\C,1.07470

 Normal termination of Gaussian 16 at Thu Dec 10 14:45:18 2020.

 --------------------------------------------------------------------
 #N Geom=AllCheck Guess=TCheck SCRF=Check GenChk RB3LYP/6-31G(d) Freq
 --------------------------------------------------------------------

 Structure from the checkpoint file:  "JID_5171.chk"
 ------------------------------
 CID_67661475_JID_5171_neutraal
 ------------------------------
 Charge =  0 Multiplicity = 1

 SCF Done:  E(RB3LYP) =  -724.941878178     A.U. after    1 cycles

  Exact polarizability: 167.289  16.504 152.550  -8.541   7.754  54.404
 Approx polarizability: 268.615  34.843 265.545 -22.208  20.278  94.671

                      1                      2                      3
                      A                      A                      A
 Frequencies --     47.4909                68.2213                85.1650
 Red. masses --      8.0569                 9.5899                 5.6173
 Frc consts  --      0.0107                 0.0263                 0.0240
 IR Inten    --      0.2604                 1.3117                 1.6904

                      4                      5                      6
                      A                      A                      A
 Frequencies --    127.7557               166.2272               241.0835
 Red. masses --      5.6228                 4.6073                 5.2665
 Frc consts  --      0.0541                 0.0750                 0.1803
 IR Inten    --      3.3855                 3.5809                 9.6126

                      7                      8                      9
                      A                      A                      A
 Frequencies --    259.3426               281.5892               320.3548
 Red. masses --      5.0140                 1.1534                 8.1503
 Frc consts  --      0.1987                 0.0539                 0.4928
 IR Inten    --      8.6773                93.3623                 0.2742

                     10                     11                     12
                      A                      A                      A
 Frequencies --    357.9620               391.1631               431.7356
 Red. masses --      5.7667                 6.8684                 3.3853
 Frc consts  --      0.4354                 0.6192                 0.3718
 IR Inten    --      3.5311                 2.9515                 1.5495

                     13                     14                     15
                      A                      A                      A
 Frequencies --    443.6346               531.8002               538.0372
 Red. masses --      7.3667                 5.0815                 4.3695
 Frc consts  --      0.8542                 0.8467                 0.7453
 IR Inten    --      1.8195                 4.9017                 2.8670

                     16                     17                     18
                      A                      A                      A
 Frequencies --    545.2595               562.1511               568.6538
 Red. masses --      4.2223                 3.9075                 1.1294
 Frc consts  --      0.7396                 0.7275                 0.2152
 IR Inten    --      3.0316                21.5482                86.4756

                     19                     20                     21
                      A                      A                      A
 Frequencies --    616.1244               650.6350               692.3738
 Red. masses --      5.4965                 4.7944                 5.1149
 Frc consts  --      1.2293                 1.1958                 1.4447
 IR Inten    --     39.6144                 2.4201                 2.9687

                     22                     23                     24
                      A                      A                      A
 Frequencies --    734.9925               753.1984               766.1724
 Red. masses --      6.6107                 2.1247                 2.1113
 Frc consts  --      2.1041                 0.7102                 0.7302
 IR Inten    --      3.6695                 0.7058                27.9066

                     25                     26                     27
                      A                      A                      A
 Frequencies --    774.8045               796.5015               810.0980
 Red. masses --      8.3712                 4.9925                 1.5855
 Frc consts  --      2.9609                 1.8661                 0.6130
 IR Inten    --     29.9909                 1.6758                54.7755

                     28                     29                     30
                      A                      A                      A
 Frequencies --    877.8551               883.4541               929.6819
 Red. masses --      2.0383                 2.8278                 1.2637
 Frc consts  --      0.9255                 1.3004                 0.6435
 IR Inten    --      1.9000                 5.6309                 1.1015

                     31                     32                     33
                      A                      A                      A
 Frequencies --    958.3210               963.4697               992.0300
 Red. masses --      1.3558                 6.6077                 1.2675
 Frc consts  --      0.7336                 3.6139                 0.7349
 IR Inten    --      3.2358                18.8361                 0.0840

                     34                     35                     36
                      A                      A                      A
 Frequencies --   1014.4555              1057.8299              1117.1514
 Red. masses --      5.6528                 2.1606                 3.0342
 Frc consts  --      3.4275                 1.4245                 2.2311
 IR Inten    --     84.3473                 0.7459                29.3531

                     37                     38                     39
                      A                      A                      A
 Frequencies --   1181.4972              1191.1514              1200.0186
 Red. masses --      1.3238                 1.1781                 1.3813
 Frc consts  --      1.0887                 0.9848                 1.1720
 IR Inten    --     11.5013                 3.8175                19.6817

                     40                     41                     42
                      A                      A                      A
 Frequencies --   1214.4250              1254.8646              1262.4088
 Red. masses --      2.3608                 2.0250                 1.7479
 Frc consts  --      2.0514                 1.8788                 1.6412
 IR Inten    --    656.6591                 2.6602                58.5122

                     43                     44                     45
                      A                      A                      A
 Frequencies --   1304.1308              1336.4664              1403.9383
 Red. masses --      2.0467                 2.7890                 3.7527
 Frc consts  --      2.0509                 2.9351                 4.3580
 IR Inten    --     92.0236               275.4768                24.9731

                     46                     47                     48
                      A                      A                      A
 Frequencies --   1413.8909              1430.4942              1442.3124
 Red. masses --      2.8585                 4.6366                 2.3316
 Frc consts  --      3.3669                 5.5901                 2.8577
 IR Inten    --    275.8138                31.5452                 1.1756

                     49                     50                     51
                      A                      A                      A
 Frequencies --   1492.3452              1536.6534              1569.2899
 Red. masses --      2.5139                 3.0238                 3.7794
 Frc consts  --      3.2987                 4.2068                 5.4838
 IR Inten    --     19.7229                26.3577                41.9754

                     52                     53                     54
                      A                      A                      A
 Frequencies --   1635.4859              1675.2076              1703.4330
 Red. masses --      7.0503                 5.4211                 6.8443
 Frc consts  --     11.1110                 8.9635                11.7012
 IR Inten    --      7.1047                13.4151                61.6185

                     55                     56                     57
                      A                      A                      A
 Frequencies --   1869.5696              3173.6194              3182.1348
 Red. masses --     10.7771                 1.0879                 1.0866
 Frc consts  --     22.1939                 6.4559                 6.4829
 IR Inten    --    338.4068                11.9855                 2.0760

                     58                     59                     60
                      A                      A                      A
 Frequencies --   3193.4375              3199.8750              3209.4302
 Red. masses --      1.0893                 1.0938                 1.0948
 Frc consts  --      6.5453                 6.5987                 6.6441
 IR Inten    --     11.0411                19.9903                28.7647

                     61                     62                     63
                      A                      A                      A
 Frequencies --   3226.0979              3744.7219              3763.3106
 Red. masses --      1.0938                 1.0647                 1.0662
 Frc consts  --      6.7073                 8.7970                 8.8968
 IR Inten    --     10.0014                96.5461                73.6093

 - Thermochemistry -
 -------------------
 Temperature   298.150 Kelvin.  Pressure   1.00000 Atm.
 Atom     1 has atomic number  6 and mass  12.00000

 Molecular mass:   204.04226 amu.
 Principal axes and moments of inertia in atomic units:
                           1         2         3
     Eigenvalues --  1774.506933612.443515022.50680
           X            0.99996   0.00849  -0.00207
           Y           -0.00848   0.99995   0.00503
           Z            0.00211  -0.00502   0.99999
 This molecule is an asymmetric top.
 Rotational symmetry number  1.
 Warning -- assumption of classical behavior for rotation
           may cause significant error
 Rotational temperatures (Kelvin)      0.04881     0.02398     0.01725
 Rotational constants (GHZ):           1.01704     0.49959     0.35933
 Zero-point vibrational energy     449598.4 (Joules/Mol)
                                  107.45660 (Kcal/Mol)
 Warning -- explicit consideration of  19 degrees of freedom as
           vibrations may cause significant error
 Vibrational temperatures:     68.33    98.16   122.53   183.81   239.16
          (Kelvin)            346.87   373.14   405.14   460.92   515.03
                              562.80   621.17   638.29   765.14   774.12
                              784.51   808.81   818.17   886.47   936.12
                              996.17  1057.49  1083.68  1102.35  1114.77
                             1145.99  1165.55  1263.04  1271.09  1337.60
                             1378.81  1386.22  1427.31  1459.58  1521.98
                             1607.33  1699.91  1713.80  1726.56  1747.29
                             1805.47  1816.32  1876.35  1922.88  2019.95
                             2034.27  2058.16  2075.17  2147.15  2210.90
                             2257.86  2353.10  2410.25  2450.86  2689.89
                             4566.13  4578.38  4594.64  4603.91  4617.65
                             4641.64  5387.82  5414.56

 Zero-point correction=                           0.171243 (Hartree/Particle)
 Thermal correction to Energy=                    0.183220
 Thermal correction to Enthalpy=                  0.184165
 Thermal correction to Gibbs Free Energy=         0.132510
 Sum of electronic and zero-point Energies=           -724.770635
 Sum of electronic and thermal Energies=              -724.758658
 Sum of electronic and thermal Enthalpies=            -724.757714
 Sum of electronic and thermal Free Energies=         -724.809369

                     E (Thermal)             CV                S
                      KCal/Mol        Cal/Mol-Kelvin    Cal/Mol-Kelvin
 Total                  114.973             46.903            108.717
 Electronic               0.000              0.000              0.000
 Translational            0.889              2.981             41.844
 Rotational               0.889              2.981             31.843
 Vibrational            113.195             40.942             35.030
 Vibration     1          0.595              1.979              4.919
 Vibration     2          0.598              1.969              4.204
 Vibration     3          0.601              1.959              3.768
 Vibration     4          0.611              1.925              2.980
 Vibration     5          0.624              1.884              2.478
 Vibration     6          0.658              1.777              1.795
 Vibration     7          0.668              1.747              1.666
 Vibration     8          0.681              1.708              1.524
 Vibration     9          0.706              1.635              1.308
 Vibration    10          0.733              1.559              1.131
 Vibration    11          0.759              1.489              0.996
 Vibration    12          0.793              1.401              0.853
 Vibration    13          0.803              1.375              0.815
 Vibration    14          0.887              1.180              0.583
 Vibration    15          0.893              1.166              0.570
 Vibration    16          0.900              1.150              0.554
 Vibration    17          0.918              1.113              0.520
 Vibration    18          0.925              1.099              0.507
 Vibration    19          0.976              0.998              0.423

                           ! Non-Optimized Parameters !

 1\1\GINC-NODE206\Freq\RB3LYP\6-31G(d)\C11H8O4\VSC10255\10-Dec-2020\0\\
 #N Geom=AllCheck Guess=TCheck SCRF=Check GenChk RB3LYP/6-31G(d) Freq\\
 CID_67661475_JID_5171_neutraal\\0,1\C,-2.9668040907,0.3790098812,-0.03
 25563842\C,-2.6479374487,-0.9803730018,-0.2696785611\C,-1.3394680565,-
 1.3829082468,-0.4066471802\C,-0.2854253422,-0.4365254745,-0.3097600289
 \C,-0.6019606224,0.9406416813,-0.0712340004\C,-1.963821021,1.315452587
 5,0.0632717567\C,0.4560048543,1.8789235558,0.0285728198\C,1.7667909625
 ,1.4875569282,-0.1077159002\C,2.0909278874,0.1306178225,-0.3477648968\

 Normal termination of Gaussian 16 at Thu Dec 10 14:51:30 2020.

 ----------------------------------------------------------------------
 # B3LYP/6-311++G(d,p) empiricaldispersion=gd3bj scf=xqc pop=npa geom=c
 heck
 ----------------------------------------------------------------------

 --------------------------------------
 CID_67661475_JID_5171_Energie_neutraal
 --------------------------------------
 Structure from the checkpoint file:  "JID_5171.chk"
 Charge =  0 Multiplicity = 1

 SCF Done:  E(RB3LYP) =  -725.157061397     A.U. after   15 cycles
 Normal termination of Gaussian 16 at Thu Dec 10 14:53:58 2020.

 ----------------------------------------------------------------------
 # B3LYP/6-311++G(d,p) empiricaldispersion=gd3bj scf=xqc pop=npa geom=c
 heck
 ----------------------------------------------------------------------

 ------------------------------------
 CID_67661475_JID_5171_Energie_kation
 ------------------------------------
 Structure from the checkpoint file:  "JID_5171.chk"
 Charge =  1 Multiplicity = 2

 SCF Done:  E(UB3LYP) =  -724.870953863     A.U. after   22 cycles
 Normal termination of Gaussian 16 at Thu Dec 10 14:58:58 2020.
 Gaussian 16:  ES64L-G16RevA.03 25-Dec-2016

 -----------------------------------
 CID_67661475_JID_5171_Energie_anion
 -----------------------------------
 Structure from the checkpoint file:  "JID_5171.chk"
 Charge = -1 Multiplicity = 2

                         Standard orientation:
 ---------------------------------------------------------------------
 Center     Atomic      Atomic             Coordinates (Angstroms)
 Number     Number       Type             X           Y           Z
 ---------------------------------------------------------------------
      1          6           0       -3.479474   -1.160770    0.140116
      2          6           0       -2.438657   -2.079571   -0.139759
      3          6           0       -1.142994   -1.646876   -0.303830
      4          6           0       -0.829667   -0.266501   -0.192360
      5          6           0       -1.878846    0.668118    0.089401
      6          6           0       -3.202021    0.181929    0.250850
      7          6           0       -1.557553    2.044118    0.203509
      8          6           0       -0.266453    2.487244    0.040411
      9          6           0        0.777165    1.573536   -0.242381
     10          6           0        0.485058    0.228710   -0.347721
     11          8           0        1.500042   -0.669981   -0.677491
     12          6           0        2.413182   -0.927925    0.285640
     13          8           0        2.409668   -0.518768    1.418950
     14          8           0        3.333770   -1.751494   -0.249138
     15          8           0        2.068624    1.966982   -0.425684
     16          1           0       -4.496243   -1.520811    0.266142
     17          1           0       -2.667907   -3.137818   -0.226892
     18          1           0       -0.346767   -2.348422   -0.526148
     19          1           0       -3.994509    0.894596    0.464974
     20          1           0       -2.351148    2.753553    0.420487
     21          1           0       -0.030729    3.545957    0.125234
     22          1           0        3.970823   -1.925259    0.464533
     23          1           0        2.141218    2.912224   -0.224687
 ---------------------------------------------------------------------

 SCF Done:  E(UB3LYP) =  -725.156281686     A.U. after   33 cycles
 SCF Done:  E(UB3LYP) =  -725.156281686     a.u. after    1 cycles

 The electronic state is 2-A.
 Alpha  occ. eigenvalues --  -19.06522 -19.05753 -19.03644 -18.99845 -10.23443
 Alpha  occ. eigenvalues --  -10.10578 -10.08726 -10.05257 -10.04770 -10.04020
 Alpha  occ. eigenvalues --  -10.03878 -10.03490 -10.03375 -10.03158 -10.02873
 Alpha  occ. eigenvalues --   -1.03480  -0.95611  -0.94047  -0.91379  -0.74045
 Alpha  occ. eigenvalues --   -0.68795  -0.64698  -0.60816  -0.59961  -0.55044
 Alpha  occ. eigenvalues --   -0.50477  -0.49235  -0.46078  -0.43236  -0.42280
 Alpha  occ. eigenvalues --   -0.39384  -0.38540  -0.36841  -0.35891  -0.34352
 Alpha  occ. eigenvalues --   -0.32871  -0.31266  -0.30655  -0.29792  -0.29494
 Alpha  occ. eigenvalues --   -0.27960  -0.27088  -0.24913  -0.24160  -0.23430
 Alpha  occ. eigenvalues --   -0.21806  -0.20794  -0.19856  -0.18616  -0.18268
 Alpha  occ. eigenvalues --   -0.15149  -0.11097  -0.08411   0.04776
 Alpha virt. eigenvalues --    0.06647   0.07202   0.08649   0.09736   0.10675
 Alpha virt. eigenvalues --    0.11590   0.11950   0.13275   0.13462   0.14430
 Alpha virt. eigenvalues --    0.14601   0.15512   0.16064   0.16697   0.16845

  Beta  occ. eigenvalues --  -19.06486 -19.05743 -19.03610 -18.99835 -10.23407
  Beta  occ. eigenvalues --  -10.10581 -10.08517 -10.05297 -10.04832 -10.03897
  Beta  occ. eigenvalues --  -10.03883 -10.03364 -10.03120 -10.02901 -10.02700
  Beta  occ. eigenvalues --   -1.03414  -0.95529  -0.93974  -0.91341  -0.73818
  Beta  occ. eigenvalues --   -0.68470  -0.64313  -0.60616  -0.59608  -0.54865
  Beta  occ. eigenvalues --   -0.50311  -0.48806  -0.45881  -0.43075  -0.42118
  Beta  occ. eigenvalues --   -0.39288  -0.38476  -0.36670  -0.35786  -0.34182
  Beta  occ. eigenvalues --   -0.32763  -0.31165  -0.30455  -0.29688  -0.29340
  Beta  occ. eigenvalues --   -0.27764  -0.26959  -0.24485  -0.23930  -0.23337
  Beta  occ. eigenvalues --   -0.21716  -0.20708  -0.19785  -0.18311  -0.17570
  Beta  occ. eigenvalues --   -0.14205  -0.10297  -0.07207
  Beta virt. eigenvalues --    0.07428   0.07946   0.08618   0.09476   0.09753
  Beta virt. eigenvalues --    0.10622   0.11663   0.11981   0.13284   0.13995
  Beta virt. eigenvalues --    0.14620   0.14682   0.15510   0.16175   0.16839

 Mulliken charges and spin densities:
               1          2
     1  C   -0.298831   0.001137
     2  C   -0.521403   0.096846
     3  C   -0.054950   0.019539
     4  C    0.594799   0.090405
     5  C    0.509162   0.149385
     6  C   -0.090994   0.145806
     7  C   -0.410764   0.038368
     8  C   -0.337515   0.499930
     9  C    0.446087  -0.286452
    10  C   -0.463707  -0.429047
    11  O   -0.073381  -0.024476
    12  C    0.184326  -0.199959
    13  O   -0.255267   0.008840
    14  O   -0.211979   0.011592
    15  O   -0.256923   0.004782
    16  H    0.105670   0.001709
    17  H    0.108333  -0.003013
    18  H    0.107727   0.003551
    19  H    0.079865  -0.009565
    20  H    0.103031  -0.032859
    21  H   -0.089433   0.179083
    22  H   -0.202991   0.497186
    23  H    0.029136   0.237213
 Sum of Mulliken charges =  -1.00000   1.00000

 Dipole moment (field-independent basis, Debye):
    X=             -1.8590    Y=              1.2169    Z=             -0.6156  Tot=              2.3056
 Quadrupole moment (field-independent basis, Debye-Ang):
   XX=           -126.3654   YY=           -103.1125   ZZ=           -104.3861
   XY=              2.4788   XZ=             -2.4601   YZ=             -0.7045

 Summary of Natural Population Analysis:

                                       Natural Population
                Natural  -----------------------------------------------
    Atom  No    Charge         Core      Valence    Rydberg      Total
 -----------------------------------------------------------------------
      C    1   -0.12250      0.99957     2.11332    0.00961     3.12250
      C    2   -0.08394      0.99958     2.07480    0.00956     3.08394
      C    3   -0.07323      0.99954     2.06524    0.00844     3.07323
      C    4   -0.03859      0.99946     2.03135    0.00778     3.03859
      C    5   -0.04418      0.99950     2.03665    0.00803     3.04418
      C    6   -0.04608      0.99954     2.03789    0.00865     3.04608
      C    7   -0.04190      0.99955     2.03445    0.00791     3.04190
      C    8   -0.11489      0.99954     2.10534    0.01000     3.11489
      C    9    0.14379      0.99933     1.84381    0.01307     2.85621
      C   10    0.15173      0.99927     1.83522    0.01378     2.84827
      O   11   -0.26977      0.99984     3.26077    0.00916     4.26977
      C   12    0.51545      0.99977     1.45621    0.02857     2.48455
      O   13   -0.31579      0.99986     3.31047    0.00547     4.31579
      O   14   -0.34144      0.99987     3.33546    0.00611     4.34144
      O   15   -0.34031      0.99987     3.33352    0.00692     4.34031
      H   16    0.09026      0.00000     0.40872    0.00102     0.40974
      H   17    0.09052      0.00000     0.40885    0.00063     0.40948
      H   18    0.09893      0.00000     0.39988    0.00119     0.40107
      H   19    0.08744      0.00000     0.41116    0.00140     0.41256
      H   20    0.08841      0.00000     0.41011    0.00148     0.41159
      H   21    0.09067      0.00000     0.40826    0.00107     0.40933
      H   22    0.24314      0.00000     0.24919    0.00767     0.25686
      H   23    0.23229      0.00000     0.26445    0.00326     0.26771
 =======================================================================
   * Total *    0.00001     14.99409    37.83514    0.17077    52.99999

 Normal termination of Gaussian 16 at Thu Dec 10 15:06:46 2020.
