 Gaussian 16, Revision A.03,

 -----------------------------------------------------------
 # opt freq B3LYP/6-31G(d) empiricaldispersion=gd3bj scf=xqc
 -----------------------------------------------------------

 ------------------------------
 CID_123764640_JID_903_neutraal
 ------------------------------
 Symbolic Z-matrix:
 Charge =  0 Multiplicity = 1

 SCF Done:  E(RB3LYP) =  -464.960031938     A.U. after   13 cycles
 SCF Done:  E(RB3LYP) =  -464.962195786     A.U. after   11 cycles
 SCF Done:  E(RB3LYP) =  -464.962232325     A.U. after   10 cycles
 SCF Done:  E(RB3LYP) =  -464.962671496     A.U. after   10 cycles
 SCF Done:  E(RB3LYP) =  -464.962732562     A.U. after   10 cycles
 SCF Done:  E(RB3LYP) =  -464.962742127     A.U. after    9 cycles
 SCF Done:  E(RB3LYP) =  -464.962743787     A.U. after    7 cycles
 SCF Done:  E(RB3LYP) =  -464.962744159     A.U. after    7 cycles
 SCF Done:  E(RB3LYP) =  -464.962744201     A.U. after    6 cycles
 Optimization completed.
    -- Stationary point found.

 1\1\GINC-NODE319\FOpt\RB3LYP\6-31G(d)\C8H16O2\VSC10255\08-Dec-2020\0\\
 # opt freq B3LYP/6-31G(d) empiricaldispersion=gd3bj scf=xqc\\CID_12376
 4640_JID_903_neutraal\\0,1\C,0.9220565628,-0.0389929152,0.024497975\C,
 0.2791534902,-1.2673188907,-0.6239557063\C,1.3017634452,-2.3810987273,
 -0.8719509146\C,0.7667459772,-3.7258671632,-1.3936337045\C,0.386753149
 1,-3.7168661098,-2.8928733521\C,1.5443849618,-3.0980659718,-3.70324150
 42\C,2.0273854081,-1.7882422622,-3.0816791299\O,2.3951846703,-1.965109
 115,-1.7112810551\C,-0.9669678308,-3.0646550809,-3.2069969206\O,1.7743

 Normal termination of Gaussian 16 at Tue Dec  8 13:28:55 2020.

 --------------------------------------------------------------------
 #N Geom=AllCheck Guess=TCheck SCRF=Check GenChk RB3LYP/6-31G(d) Freq
 --------------------------------------------------------------------

 Structure from the checkpoint file:  "JID_903.chk"
 ------------------------------
 CID_123764640_JID_903_neutraal
 ------------------------------
 Charge =  0 Multiplicity = 1

 SCF Done:  E(RB3LYP) =  -464.962744201     A.U. after    1 cycles

  Exact polarizability:  92.800   0.982  83.325  -2.451   0.451  85.952
 Approx polarizability: 116.874   0.009 122.268  -1.929  -0.186 123.177

                      1                      2                      3
                      A                      A                      A
 Frequencies --     74.0404               117.5309               139.3735
 Red. masses --      2.2564                 2.6882                 2.0438
 Frc consts  --      0.0073                 0.0219                 0.0234
 IR Inten    --      0.1047                 1.6659                 1.4210

                      4                      5                      6
                      A                      A                      A
 Frequencies --    178.5474               210.0351               229.7704
 Red. masses --      3.5049                 1.2775                 1.2961
 Frc consts  --      0.0658                 0.0332                 0.0403
 IR Inten    --      1.8546                 0.8421                 0.5314

                      7                      8                      9
                      A                      A                      A
 Frequencies --    261.7773               304.6481               317.2483
 Red. masses --      2.3370                 3.5252                 2.2515
 Frc consts  --      0.0944                 0.1928                 0.1335
 IR Inten    --      0.7502                 6.3843                 0.9115

                     10                     11                     12
                      A                      A                      A
 Frequencies --    343.6370               399.5536               455.2007
 Red. masses --      2.9967                 1.9391                 1.1833
 Frc consts  --      0.2085                 0.1824                 0.1445
 IR Inten    --      2.1809                12.8326                70.9090

                     13                     14                     15
                      A                      A                      A
 Frequencies --    485.7367               499.9519               544.6310
 Red. masses --      4.4051                 2.9656                 2.8984
 Frc consts  --      0.6124                 0.4367                 0.5065
 IR Inten    --     23.8360                 1.8828                 3.1759

                     16                     17                     18
                      A                      A                      A
 Frequencies --    565.4670               740.8483               762.4095
 Red. masses --      2.9087                 1.7907                 2.5514
 Frc consts  --      0.5480                 0.5791                 0.8738
 IR Inten    --      0.2116                 3.8845                 6.5380

                     19                     20                     21
                      A                      A                      A
 Frequencies --    796.3892               843.4955               875.6771
 Red. masses --      1.9782                 1.9860                 2.3085
 Frc consts  --      0.7392                 0.8325                 1.0430
 IR Inten    --     13.5645                12.7888                 3.3369

                     22                     23                     24
                      A                      A                      A
 Frequencies --    940.5904               968.1016               990.1967
 Red. masses --      1.9114                 1.9839                 1.5634
 Frc consts  --      0.9963                 1.0955                 0.9032
 IR Inten    --      9.2665                10.1495                 2.5684

                     25                     26                     27
                      A                      A                      A
 Frequencies --   1016.6991              1018.4356              1038.3808
 Red. masses --      2.2169                 1.9235                 1.7851
 Frc consts  --      1.3502                 1.1755                 1.1341
 IR Inten    --      9.6951                 0.0491                33.7774

                     28                     29                     30
                      A                      A                      A
 Frequencies --   1047.5826              1084.8513              1091.3571
 Red. masses --      2.7598                 2.7462                 2.2725
 Frc consts  --      1.7845                 1.9043                 1.5947
 IR Inten    --     56.1477                49.0949                24.0105

                     31                     32                     33
                      A                      A                      A
 Frequencies --   1132.4722              1143.8209              1182.6320
 Red. masses --      1.7336                 2.0979                 2.2986
 Frc consts  --      1.3099                 1.6171                 1.8942
 IR Inten    --     40.2253                 7.8821                 9.2140

                     34                     35                     36
                      A                      A                      A
 Frequencies --   1187.2245              1240.2653              1274.5923
 Red. masses --      1.8825                 1.5147                 1.2828
 Frc consts  --      1.5634                 1.3728                 1.2278
 IR Inten    --      6.3811                10.8645                21.7201

                     37                     38                     39
                      A                      A                      A
 Frequencies --   1282.5155              1311.4632              1326.9897
 Red. masses --      1.3562                 1.2445                 1.2957
 Frc consts  --      1.3143                 1.2611                 1.3442
 IR Inten    --     15.6624                 2.8076                 5.5852

                     40                     41                     42
                      A                      A                      A
 Frequencies --   1352.2342              1372.4542              1383.7777
 Red. masses --      1.3003                 1.3585                 1.3174
 Frc consts  --      1.4009                 1.5077                 1.4862
 IR Inten    --      2.7817                 6.4727                 1.5830

                     43                     44                     45
                      A                      A                      A
 Frequencies --   1394.1857              1408.3995              1422.2417
 Red. masses --      1.5347                 1.3945                 1.3016
 Frc consts  --      1.7576                 1.6297                 1.5512
 IR Inten    --      1.9054                 2.2950                17.9767

                     46                     47                     48
                      A                      A                      A
 Frequencies --   1433.9258              1440.4461              1446.4251
 Red. masses --      1.3129                 1.2833                 1.2285
 Frc consts  --      1.5906                 1.5688                 1.5144
 IR Inten    --     10.0615                 9.5053                21.3691

                     49                     50                     51
                      A                      A                      A
 Frequencies --   1453.1648              1510.7509              1514.0532
 Red. masses --      1.3118                 1.0785                 1.0845
 Frc consts  --      1.6321                 1.4502                 1.4648
 IR Inten    --     31.4351                 0.9069                 4.1156

                     52                     53                     54
                      A                      A                      A
 Frequencies --   1526.3457              1526.5311              1536.6453
 Red. masses --      1.0408                 1.0579                 1.0580
 Frc consts  --      1.4287                 1.4525                 1.4719
 IR Inten    --      4.8404                 5.0243                 3.4815

                     55                     56                     57
                      A                      A                      A
 Frequencies --   1539.3196              1547.1683              3025.6470
 Red. masses --      1.0522                 1.0837                 1.0695
 Frc consts  --      1.4690                 1.5284                 5.7684
 IR Inten    --      4.1374                 6.2845                37.9762

                     58                     59                     60
                      A                      A                      A
 Frequencies --   3045.5355              3050.2896              3051.8325
 Red. masses --      1.0645                 1.0514                 1.0417
 Frc consts  --      5.8172                 5.7637                 5.7162
 IR Inten    --     15.5809                15.0265                25.7405

                     61                     62                     63
                      A                      A                      A
 Frequencies --   3053.2447              3058.1351              3059.0944
 Red. masses --      1.0592                 1.0773                 1.0838
 Frc consts  --      5.8177                 5.9359                 5.9758
 IR Inten    --     15.8054                35.6243                19.9521

                     64                     65                     66
                      A                      A                      A
 Frequencies --   3071.3482              3086.9996              3104.5638
 Red. masses --      1.0837                 1.1024                 1.0952
 Frc consts  --      6.0230                 6.1895                 6.2196
 IR Inten    --     51.8880                33.6050                18.8289

                     67                     68                     69
                      A                      A                      A
 Frequencies --   3109.5811              3110.8151              3121.3906
 Red. masses --      1.0970                 1.1021                 1.1000
 Frc consts  --      6.2499                 6.2836                 6.3145
 IR Inten    --     41.5656                34.9857                45.4542

                     70                     71                     72
                      A                      A                      A
 Frequencies --   3133.2011              3138.8607              3710.6346
 Red. masses --      1.1008                 1.0965                 1.0654
 Frc consts  --      6.3672                 6.3649                 8.6433
 IR Inten    --     30.0065                50.7115                19.7941

 - Thermochemistry -
 -------------------
 Temperature   298.150 Kelvin.  Pressure   1.00000 Atm.
 Atom     1 has atomic number  6 and mass  12.00000

 Molecular mass:   144.11503 amu.
 Principal axes and moments of inertia in atomic units:
                           1         2         3
     Eigenvalues --  1065.267171723.874371793.05916
           X            0.99965   0.02013  -0.01740
           Y           -0.01744   0.98963   0.14259
           Z            0.02009  -0.14224   0.98963
 This molecule is an asymmetric top.
 Rotational symmetry number  1.
 Warning -- assumption of classical behavior for rotation
           may cause significant error
 Rotational temperatures (Kelvin)      0.08131     0.05024     0.04831
 Rotational constants (GHZ):           1.69417     1.04691     1.00652
 Zero-point vibrational energy     623035.4 (Joules/Mol)
                                  148.90903 (Kcal/Mol)
 Warning -- explicit consideration of  16 degrees of freedom as
           vibrations may cause significant error
 Vibrational temperatures:    106.53   169.10   200.53   256.89   302.19
          (Kelvin)            330.59   376.64   438.32   456.45   494.42
                              574.87   654.93   698.87   719.32   783.60
                              813.58  1065.92  1096.94  1145.83  1213.60
                             1259.90  1353.30  1392.88  1424.67  1462.80
                             1465.30  1494.00  1507.24  1560.86  1570.22
                             1629.37  1645.70  1701.54  1708.15  1784.47
                             1833.85  1845.25  1886.90  1909.24  1945.56
                             1974.66  1990.95  2005.92  2026.37  2046.29
                             2063.10  2072.48  2081.08  2090.78  2173.63
                             2178.38  2196.07  2196.34  2210.89  2214.74
                             2226.03  4353.23  4381.85  4388.69  4390.91
                             4392.94  4399.97  4401.35  4418.99  4441.50
                             4466.77  4473.99  4475.77  4490.98  4507.98
                             4516.12  5338.78

 Zero-point correction=                           0.237302 (Hartree/Particle)
 Thermal correction to Energy=                    0.247935
 Thermal correction to Enthalpy=                  0.248879
 Thermal correction to Gibbs Free Energy=         0.201943
 Sum of electronic and zero-point Energies=           -464.725443
 Sum of electronic and thermal Energies=              -464.714809
 Sum of electronic and thermal Enthalpies=            -464.713865
 Sum of electronic and thermal Free Energies=         -464.760802

                     E (Thermal)             CV                S
                      KCal/Mol        Cal/Mol-Kelvin    Cal/Mol-Kelvin
 Total                  155.582             41.170             98.786
 Electronic               0.000              0.000              0.000
 Translational            0.889              2.981             40.807
 Rotational               0.889              2.981             29.578
 Vibrational            153.804             35.208             28.401
 Vibration     1          0.599              1.966              4.043
 Vibration     2          0.608              1.935              3.141
 Vibration     3          0.615              1.914              2.812
 Vibration     4          0.629              1.869              2.344
 Vibration     5          0.642              1.825              2.043
 Vibration     6          0.652              1.796              1.881
 Vibration     7          0.669              1.743              1.650
 Vibration     8          0.696              1.665              1.391
 Vibration     9          0.704              1.641              1.324
 Vibration    10          0.722              1.588              1.195
 Vibration    11          0.766              1.471              0.964
 Vibration    12          0.814              1.349              0.780
 Vibration    13          0.842              1.282              0.695
 Vibration    14          0.855              1.250              0.658
 Vibration    15          0.900              1.151              0.555
 Vibration    16          0.921              1.106              0.513

                           ! Non-Optimized Parameters !

 1\1\GINC-NODE319\Freq\RB3LYP\6-31G(d)\C8H16O2\VSC10255\08-Dec-2020\0\\
 #N Geom=AllCheck Guess=TCheck SCRF=Check GenChk RB3LYP/6-31G(d) Freq\\
 CID_123764640_JID_903_neutraal\\0,1\C,0.9220565628,-0.0389929152,0.024
 497975\C,0.2791534902,-1.2673188907,-0.6239557063\C,1.3017634452,-2.38
 10987273,-0.8719509146\C,0.7667459772,-3.7258671632,-1.3936337045\C,0.
 3867531491,-3.7168661098,-2.8928733521\C,1.5443849618,-3.0980659718,-3
 .7032415042\C,2.0273854081,-1.7882422622,-3.0816791299\O,2.3951846703,
 -1.965109115,-1.7112810551\C,-0.9669678308,-3.0646550809,-3.2069969206

 Normal termination of Gaussian 16 at Tue Dec  8 13:36:15 2020.

 ----------------------------------------------------------------------
 # B3LYP/6-311++G(d,p) empiricaldispersion=gd3bj scf=xqc pop=npa geom=c
 heck
 ----------------------------------------------------------------------

 --------------------------------------
 CID_123764640_JID_903_Energie_neutraal
 --------------------------------------
 Structure from the checkpoint file:  "JID_903.chk"
 Charge =  0 Multiplicity = 1

 SCF Done:  E(RB3LYP) =  -465.105139437     A.U. after   13 cycles
 Normal termination of Gaussian 16 at Tue Dec  8 13:38:29 2020.

 ----------------------------------------------------------------------
 # B3LYP/6-311++G(d,p) empiricaldispersion=gd3bj scf=xqc pop=npa geom=c
 heck
 ----------------------------------------------------------------------

 ------------------------------------
 CID_123764640_JID_903_Energie_kation
 ------------------------------------
 Structure from the checkpoint file:  "JID_903.chk"
 Charge =  1 Multiplicity = 2

 SCF Done:  E(UB3LYP) =  -464.774121561     A.U. after   19 cycles
 Normal termination of Gaussian 16 at Tue Dec  8 13:45:01 2020.
 Gaussian 16:  ES64L-G16RevA.03 25-Dec-2016

 -----------------------------------
 CID_123764640_JID_903_Energie_anion
 -----------------------------------
 Structure from the checkpoint file:  "JID_903.chk"
 Charge = -1 Multiplicity = 2

                         Standard orientation:
 ---------------------------------------------------------------------
 Center     Atomic      Atomic             Coordinates (Angstroms)
 Number     Number       Type             X           Y           Z
 ---------------------------------------------------------------------
      1          6           0        3.114314   -0.350462   -0.084199
      2          6           0        1.717692   -0.545373   -0.679228
      3          6           0        0.778799    0.610592   -0.318727
      4          6           0       -0.617436    0.612329   -0.964733
      5          6           0       -1.603099   -0.405075   -0.343804
      6          6           0       -1.576629   -0.260766    1.191838
      7          6           0       -0.146088   -0.234344    1.728606
      8          8           0        0.627869    0.791572    1.101681
      9          6           0       -1.400426   -1.855865   -0.802875
     10          8           0       -1.157787    1.931075   -0.837985
     11          1           0        3.574682    0.572395   -0.456756
     12          1           0        3.775032   -1.185032   -0.341693
     13          1           0        3.061197   -0.275338    1.006161
     14          1           0        1.775211   -0.598836   -1.774352
     15          1           0        1.312358   -1.506202   -0.350814
     16          1           0        1.264093    1.538287   -0.644433
     17          1           0       -0.525438    0.428439   -2.041600
     18          1           0       -2.590536   -0.087027   -0.698599
     19          1           0       -2.138741   -1.075093    1.666334
     20          1           0       -2.070974    0.675936    1.476482
     21          1           0        0.340341   -1.212044    1.601413
     22          1           0       -0.130214    0.002642    2.796285
     23          1           0       -2.278034   -2.457082   -0.539758
     24          1           0       -1.270727   -1.914017   -1.889970
     25          1           0       -0.532795   -2.335197   -0.340912
     26          1           0       -0.928877    2.220777    0.061373
 ---------------------------------------------------------------------

 SCF Done:  E(UB3LYP) =  -465.088943897     A.U. after   26 cycles

 The electronic state is 2-A.
 Alpha  occ. eigenvalues --  -19.02270 -19.01688 -10.11643 -10.11521 -10.10850
 Alpha  occ. eigenvalues --  -10.06940 -10.06333 -10.06157 -10.05356 -10.05213
 Alpha  occ. eigenvalues --   -0.94091  -0.91251  -0.70267  -0.68869  -0.63242
 Alpha  occ. eigenvalues --   -0.59236  -0.54114  -0.53727  -0.48987  -0.43458
 Alpha  occ. eigenvalues --   -0.41544  -0.39976  -0.35514  -0.35293  -0.34765
 Alpha  occ. eigenvalues --   -0.33436  -0.31714  -0.30443  -0.29126  -0.28481
 Alpha  occ. eigenvalues --   -0.27682  -0.26375  -0.25849  -0.24285  -0.23309
 Alpha  occ. eigenvalues --   -0.23168  -0.21671  -0.19237  -0.17872  -0.15131
 Alpha  occ. eigenvalues --    0.04777
 Alpha virt. eigenvalues --    0.07130   0.07743   0.08252   0.09470   0.09970
 Alpha virt. eigenvalues --    0.10285   0.10550   0.11201   0.12571   0.12659
 Alpha virt. eigenvalues --    0.13256   0.13669   0.13980   0.15450   0.15877

  Beta  occ. eigenvalues --  -19.02268 -19.01681 -10.11639 -10.11512 -10.10820
  Beta  occ. eigenvalues --  -10.06934 -10.06307 -10.06132 -10.05324 -10.05171
  Beta  occ. eigenvalues --   -0.94079  -0.91239  -0.70232  -0.68834  -0.63196
  Beta  occ. eigenvalues --   -0.59180  -0.54058  -0.53659  -0.48916  -0.43400
  Beta  occ. eigenvalues --   -0.41499  -0.39952  -0.35474  -0.35262  -0.34718
  Beta  occ. eigenvalues --   -0.33401  -0.31681  -0.30397  -0.29085  -0.28442
  Beta  occ. eigenvalues --   -0.27632  -0.26322  -0.25813  -0.24249  -0.23279
  Beta  occ. eigenvalues --   -0.23136  -0.21638  -0.19211  -0.17852  -0.15110
  Beta virt. eigenvalues --    0.07180   0.08115   0.08520   0.08871   0.10114
  Beta virt. eigenvalues --    0.10599   0.10923   0.10999   0.11717   0.13112
  Beta virt. eigenvalues --    0.13213   0.13776   0.13983   0.14430   0.15766

 Mulliken charges and spin densities:
               1          2
     1  C    0.795615  -1.406609
     2  C   -0.526055   0.309212
     3  C   -0.607518   0.665710
     4  C    1.289454  -1.924419
     5  C   -1.672250   2.051216
     6  C    0.051433  -0.503556
     7  C    0.893769  -1.174588
     8  O   -0.166626   0.040188
     9  C    1.681693  -2.342516
    10  O   -0.188725   0.029462
    11  H   -0.155174   0.275963
    12  H   -0.571537   0.715318
    13  H   -0.064439   0.223647
    14  H   -0.347669   0.489560
    15  H    0.396579  -0.267589
    16  H    0.135693   0.087280
    17  H    0.043536   0.181744
    18  H   -0.128479   0.344120
    19  H   -0.491733   0.660516
    20  H   -0.035411   0.195818
    21  H   -0.093159   0.242814
    22  H   -0.266959   0.448166
    23  H   -0.600076   0.751985
    24  H   -0.168000   0.302310
    25  H   -0.405269   0.555264
    26  H    0.201308   0.048983
 Sum of Mulliken charges =  -1.00000   1.00000

 Dipole moment (field-independent basis, Debye):
    X=             -0.0842    Y=              4.3613    Z=              0.0801  Tot=              4.3628
 Quadrupole moment (field-independent basis, Debye-Ang):
   XX=           -118.9349   YY=           -106.2706   ZZ=           -104.4306
   XY=             -1.5751   XZ=              2.7928   YZ=              1.2081

 Summary of Natural Population Analysis:

                                       Natural Population
                Natural  -----------------------------------------------
    Atom  No    Charge         Core      Valence    Rydberg      Total
 -----------------------------------------------------------------------
      C    1   -0.28482      0.99967     2.27900    0.00615     3.28482
      C    2   -0.20544      0.99961     2.19773    0.00811     3.20544
      C    3    0.05563      0.99951     1.92925    0.01561     2.94437
      C    4    0.05963      0.99950     1.92655    0.01431     2.94037
      C    5   -0.12277      0.99958     2.11126    0.01193     3.12277
      C    6   -0.20551      0.99961     2.19572    0.01018     3.20551
      C    7   -0.01411      0.99956     2.00097    0.01358     3.01411
      O    8   -0.31281      0.99989     3.30338    0.00954     4.31281
      C    9   -0.28560      0.99964     2.27980    0.00616     3.28560
      O   10   -0.37533      0.99990     3.36914    0.00628     4.37533
      H   11    0.09414      0.00000     0.40486    0.00101     0.40586
      H   12    0.10023      0.00000     0.39852    0.00125     0.39977
      H   13    0.10157      0.00000     0.39722    0.00122     0.39843
      H   14    0.10142      0.00000     0.39690    0.00167     0.39858
      H   15    0.09980      0.00000     0.39821    0.00199     0.40020
      H   16    0.09346      0.00000     0.40506    0.00147     0.40654
      H   17    0.09072      0.00000     0.40755    0.00173     0.40928
      H   18    0.10256      0.00000     0.39570    0.00174     0.39744
      H   19    0.10620      0.00000     0.39197    0.00183     0.39380
      H   20    0.09718      0.00000     0.40142    0.00140     0.40282
      H   21    0.08178      0.00000     0.41634    0.00188     0.41822
      H   22    0.09264      0.00000     0.40597    0.00140     0.40736
      H   23    0.10271      0.00000     0.39580    0.00149     0.39729
      H   24    0.10015      0.00000     0.39838    0.00147     0.39985
      H   25    0.09728      0.00000     0.40072    0.00199     0.40272
      H   26    0.22930      0.00000     0.26750    0.00320     0.27070
 =======================================================================
   * Total *    0.00000      9.99647    29.87492    0.12861    40.00000

 Normal termination of Gaussian 16 at Tue Dec  8 13:51:56 2020.
