 Gaussian 16, Revision A.03,

 -----------------------------------------------------------
 # opt freq B3LYP/6-31G(d) empiricaldispersion=gd3bj scf=xqc
 -----------------------------------------------------------

 -------------------------------
 CID_143556943_JID_3396_neutraal
 -------------------------------
 Symbolic Z-matrix:
 Charge =  0 Multiplicity = 1

 SCF Done:  E(RB3LYP) =  -594.104555802     A.U. after   15 cycles
 SCF Done:  E(RB3LYP) =  -594.108505096     A.U. after   12 cycles
 SCF Done:  E(RB3LYP) =  -594.109589611     A.U. after   12 cycles
 SCF Done:  E(RB3LYP) =  -594.108595595     A.U. after   13 cycles
 SCF Done:  E(RB3LYP) =  -594.110384130     A.U. after   11 cycles
 SCF Done:  E(RB3LYP) =  -594.110445774     A.U. after   11 cycles
 SCF Done:  E(RB3LYP) =  -594.110469488     A.U. after   10 cycles
 SCF Done:  E(RB3LYP) =  -594.110490730     A.U. after   10 cycles
 SCF Done:  E(RB3LYP) =  -594.110522019     A.U. after   11 cycles
 SCF Done:  E(RB3LYP) =  -594.110585772     A.U. after   11 cycles
 SCF Done:  E(RB3LYP) =  -594.110652127     A.U. after   10 cycles
 SCF Done:  E(RB3LYP) =  -594.110631303     A.U. after   11 cycles
 SCF Done:  E(RB3LYP) =  -594.110653222     A.U. after   11 cycles
 SCF Done:  E(RB3LYP) =  -594.110653274     A.U. after    8 cycles
 SCF Done:  E(RB3LYP) =  -594.110653339     A.U. after    7 cycles
 SCF Done:  E(RB3LYP) =  -594.110653360     A.U. after    7 cycles
 Optimization completed.
    -- Stationary point found.
 Normal termination of Gaussian 16 at Wed Dec  9 23:10:19 2020.

 --------------------------------------------------------------------
 #N Geom=AllCheck Guess=TCheck SCRF=Check GenChk RB3LYP/6-31G(d) Freq
 --------------------------------------------------------------------

 Structure from the checkpoint file:  "JID_3396.chk"
 -------------------------------
 CID_143556943_JID_3396_neutraal
 -------------------------------
 Charge =  0 Multiplicity = 1

 SCF Done:  E(RB3LYP) =  -594.110653360     A.U. after    1 cycles

  Exact polarizability: 180.394 -17.110 132.524  -0.791  -8.225  65.419
 Approx polarizability: 259.248 -29.502 210.845  -0.819 -18.230  96.933

                      1                      2                      3
                      A                      A                      A
 Frequencies --     50.7676                66.6459                72.5444
 Red. masses --      7.7726                 2.6211                 4.2664
 Frc consts  --      0.0118                 0.0069                 0.0132
 IR Inten    --      1.3332                 0.6705                 0.2603

                      4                      5                      6
                      A                      A                      A
 Frequencies --     91.2375               129.7335               175.6942
 Red. masses --      3.8051                 2.4466                 4.5763
 Frc consts  --      0.0187                 0.0243                 0.0832
 IR Inten    --      0.3275                 0.3415                 0.3758

                      7                      8                      9
                      A                      A                      A
 Frequencies --    223.3971               239.9542               248.6701
 Red. masses --      3.1693                 2.7282                 1.1655
 Frc consts  --      0.0932                 0.0926                 0.0425
 IR Inten    --      3.0247                 2.4933                 0.2900

                     10                     11                     12
                      A                      A                      A
 Frequencies --    272.6657               309.9984               347.8629
 Red. masses --      2.8692                 2.4052                 4.7764
 Frc consts  --      0.1257                 0.1362                 0.3405
 IR Inten    --      2.4173                 1.3926                 1.3509

                     13                     14                     15
                      A                      A                      A
 Frequencies --    402.6342               434.3385               479.3711
 Red. masses --      3.8072                 3.5238                 1.1223
 Frc consts  --      0.3636                 0.3917                 0.1520
 IR Inten    --      7.2782                 1.5670               103.6950

                     16                     17                     18
                      A                      A                      A
 Frequencies --    498.2712               522.6718               591.6386
 Red. masses --      2.8782                 3.9795                 3.7957
 Frc consts  --      0.4210                 0.6405                 0.7828
 IR Inten    --      4.4926                17.7666                 7.8598

                     19                     20                     21
                      A                      A                      A
 Frequencies --    621.6815               630.2338               642.6002
 Red. masses --      1.7974                 2.8900                 2.8349
 Frc consts  --      0.4093                 0.6763                 0.6897
 IR Inten    --     70.1387                62.2834                12.8238

                     22                     23                     24
                      A                      A                      A
 Frequencies --    688.0564               715.6180               751.0320
 Red. masses --      1.6058                 2.7909                 2.3609
 Frc consts  --      0.4479                 0.8421                 0.7846
 IR Inten    --      3.6827                23.5559                62.7636

                     25                     26                     27
                      A                      A                      A
 Frequencies --    819.8192               822.9505               837.8900
 Red. masses --      2.2270                 1.4606                 2.1253
 Frc consts  --      0.8819                 0.5828                 0.8791
 IR Inten    --      5.2660                45.8278                 5.2263

                     28                     29                     30
                      A                      A                      A
 Frequencies --    853.1561               894.1886               903.5166
 Red. masses --      1.6435                 2.0749                 2.2504
 Frc consts  --      0.7048                 0.9775                 1.0824
 IR Inten    --     13.8841                 5.1811                12.2900

                     31                     32                     33
                      A                      A                      A
 Frequencies --    969.5552              1001.5064              1009.4263
 Red. masses --      1.9409                 1.3281                 1.7528
 Frc consts  --      1.0750                 0.7849                 1.0523
 IR Inten    --      2.8383                35.6212                 8.1455

                     34                     35                     36
                      A                      A                      A
 Frequencies --   1018.5480              1074.3763              1097.1631
 Red. masses --      2.1791                 1.9660                 2.3343
 Frc consts  --      1.3320                 1.3370                 1.6556
 IR Inten    --      7.5909                18.1319                93.6648

                     37                     38                     39
                      A                      A                      A
 Frequencies --   1106.6539              1148.9000              1197.3471
 Red. masses --      1.9861                 1.5296                 2.0722
 Frc consts  --      1.4331                 1.1896                 1.7504
 IR Inten    --     12.9338                17.5205               226.1475

                     40                     41                     42
                      A                      A                      A
 Frequencies --   1221.9169              1251.9837              1303.2877
 Red. masses --      1.9981                 1.1771                 1.9083
 Frc consts  --      1.7577                 1.0871                 1.9098
 IR Inten    --     44.5727                 8.4106                97.9378

                     43                     44                     45
                      A                      A                      A
 Frequencies --   1303.8371              1339.9989              1354.0065
 Red. masses --      1.6824                 1.5549                 1.2525
 Frc consts  --      1.6851                 1.6449                 1.3530
 IR Inten    --    122.0367                 6.3334                13.4210

                     46                     47                     48
                      A                      A                      A
 Frequencies --   1362.6506              1380.3908              1403.4626
 Red. masses --      1.5291                 1.8628                 1.6225
 Frc consts  --      1.6728                 2.0913                 1.8829
 IR Inten    --      5.4192                37.3978                14.0445

                     49                     50                     51
                      A                      A                      A
 Frequencies --   1428.7608              1444.3956              1455.5332
 Red. masses --      1.2543                 1.7415                 2.0521
 Frc consts  --      1.5086                 2.1406                 2.5615
 IR Inten    --      6.9070                56.4330                20.0479

                     52                     53                     54
                      A                      A                      A
 Frequencies --   1494.6763              1525.2238              1529.8062
 Red. masses --      1.0992                 1.0460                 1.0611
 Frc consts  --      1.4468                 1.4336                 1.4631
 IR Inten    --      3.2747                 5.0622                 2.0307

                     55                     56                     57
                      A                      A                      A
 Frequencies --   1556.6045              1656.2211              1708.5720
 Red. masses --      1.6594                 7.1876                 6.5388
 Frc consts  --      2.3690                11.6164                11.2464
 IR Inten    --    134.6377               261.7692               124.0756

                     58                     59                     60
                      A                      A                      A
 Frequencies --   1731.8361              1814.3541              2987.1374
 Red. masses --      3.9871                 9.6415                 1.0720
 Frc consts  --      7.0457                18.6999                 5.6359
 IR Inten    --    235.7175               306.2749                28.5143

                     61                     62                     63
                      A                      A                      A
 Frequencies --   3022.5115              3052.9856              3081.8237
 Red. masses --      1.0840                 1.0356                 1.0891
 Frc consts  --      5.8344                 5.6872                 6.0946
 IR Inten    --     44.6786                23.4514                30.2476

                     64                     65                     66
                      A                      A                      A
 Frequencies --   3121.7108              3135.2624              3172.7683
 Red. masses --      1.1018                 1.1030                 1.0626
 Frc consts  --      6.3259                 6.3880                 6.3021
 IR Inten    --     26.7591                20.7286                 5.5082

                     67                     68                     69
                      A                      A                      A
 Frequencies --   3218.2780              3232.1624              3240.5888
 Red. masses --      1.0917                 1.0910                 1.0894
 Frc consts  --      6.6619                 6.7154                 6.7406
 IR Inten    --      1.6977                 0.5129                16.7828

                     70                     71                     72
                      A                      A                      A
 Frequencies --   3269.5681              3602.6550              3703.1213
 Red. masses --      1.1130                 1.0757                 1.0642
 Frc consts  --      7.0102                 8.2257                 8.5979
 IR Inten    --      9.7573                14.5497                67.6383

 - Thermochemistry -
 -------------------
 Temperature   298.150 Kelvin.  Pressure   1.00000 Atm.
 Atom     1 has atomic number  6 and mass  12.00000

 Molecular mass:   179.09463 amu.
 Principal axes and moments of inertia in atomic units:
                           1         2         3
     Eigenvalues --  1575.717373504.131754717.19983
           X            0.99976  -0.02196   0.00215
           Y            0.02194   0.99974   0.00686
           Z           -0.00230  -0.00682   0.99997
 This molecule is an asymmetric top.
 Rotational symmetry number  1.
 Warning -- assumption of classical behavior for rotation
           may cause significant error
 Rotational temperatures (Kelvin)      0.05497     0.02472     0.01836
 Rotational constants (GHZ):           1.14535     0.51503     0.38259
 Zero-point vibrational energy     568647.3 (Joules/Mol)
                                  135.90997 (Kcal/Mol)
 Warning -- explicit consideration of  18 degrees of freedom as
           vibrations may cause significant error
 Vibrational temperatures:     73.04    95.89   104.38   131.27   186.66
          (Kelvin)            252.78   321.42   345.24   357.78   392.31
                              446.02   500.50   579.30   624.92   689.71
                              716.90   752.01   851.24   894.46   906.77
                              924.56   989.96  1029.61  1080.57  1179.54
                             1184.04  1205.54  1227.50  1286.54  1299.96
                             1394.97  1440.94  1452.34  1465.46  1545.79
                             1578.57  1592.23  1653.01  1722.72  1758.07
                             1801.33  1875.14  1875.93  1927.96  1948.11
                             1960.55  1986.07  2019.27  2055.67  2078.16
                             2094.19  2150.51  2194.46  2201.05  2239.61
                             2382.93  2458.25  2491.73  2610.45  4297.82
                             4348.72  4392.57  4434.06  4491.45  4510.94
                             4564.91  4630.38  4650.36  4662.48  4704.18
                             5183.42  5327.97

 Zero-point correction=                           0.216586 (Hartree/Particle)
 Thermal correction to Energy=                    0.229569
 Thermal correction to Enthalpy=                  0.230513
 Thermal correction to Gibbs Free Energy=         0.176796
 Sum of electronic and zero-point Energies=           -593.894067
 Sum of electronic and thermal Energies=              -593.881084
 Sum of electronic and thermal Enthalpies=            -593.880140
 Sum of electronic and thermal Free Energies=         -593.933857

                     E (Thermal)             CV                S
                      KCal/Mol        Cal/Mol-Kelvin    Cal/Mol-Kelvin
 Total                  144.057             49.022            113.056
 Electronic               0.000              0.000              0.000
 Translational            0.889              2.981             41.455
 Rotational               0.889              2.981             31.633
 Vibrational            142.279             43.060             39.969
 Vibration     1          0.595              1.977              4.787
 Vibration     2          0.598              1.970              4.250
 Vibration     3          0.599              1.967              4.083
 Vibration     4          0.602              1.955              3.633
 Vibration     5          0.612              1.924              2.950
 Vibration     6          0.628              1.872              2.374
 Vibration     7          0.649              1.805              1.931
 Vibration     8          0.657              1.779              1.803
 Vibration     9          0.662              1.765              1.740
 Vibration    10          0.676              1.724              1.579
 Vibration    11          0.699              1.655              1.362
 Vibration    12          0.725              1.580              1.176
 Vibration    13          0.768              1.464              0.953
 Vibration    14          0.795              1.395              0.845
 Vibration    15          0.836              1.296              0.712
 Vibration    16          0.854              1.254              0.662
 Vibration    17          0.878              1.200              0.604
 Vibration    18          0.949              1.050              0.464

 Optimization completed.
    -- Stationary point found.
 Normal termination of Gaussian 16 at Wed Dec  9 23:17:00 2020.

 ----------------------------------------------------------------------
 # B3LYP/6-311++G(d,p) empiricaldispersion=gd3bj scf=xqc pop=npa geom=c
 heck
 ----------------------------------------------------------------------

 ---------------------------------------
 CID_143556943_JID_3396_Energie_neutraal
 ---------------------------------------
 Structure from the checkpoint file:  "JID_3396.chk"
 Charge =  0 Multiplicity = 1

 SCF Done:  E(RB3LYP) =  -594.290486053     A.U. after   15 cycles
 Normal termination of Gaussian 16 at Wed Dec  9 23:20:04 2020.

 ----------------------------------------------------------------------
 # B3LYP/6-311++G(d,p) empiricaldispersion=gd3bj scf=xqc pop=npa geom=c
 heck
 ----------------------------------------------------------------------

 -------------------------------------
 CID_143556943_JID_3396_Energie_kation
 -------------------------------------
 Structure from the checkpoint file:  "JID_3396.chk"
 Charge =  1 Multiplicity = 2

 SCF Done:  E(UB3LYP) =  -594.031503774     A.U. after   21 cycles
 Normal termination of Gaussian 16 at Wed Dec  9 23:26:16 2020.
 Gaussian 16:  ES64L-G16RevA.03 25-Dec-2016

 ----------------------------------------------------------------------
 # B3LYP/6-311++G(d,p) empiricaldispersion=gd3bj scf=xqc pop=npa geom=c
 heck
 ----------------------------------------------------------------------

 ------------------------------------
 CID_143556943_JID_3396_Energie_anion
 ------------------------------------
 Structure from the checkpoint file:  "JID_3396.chk"
 Charge = -1 Multiplicity = 2

                         Standard orientation:
 ---------------------------------------------------------------------
 Center     Atomic      Atomic             Coordinates (Angstroms)
 Number     Number       Type             X           Y           Z
 ---------------------------------------------------------------------
      1          6           0        0.735410    2.207614    1.346817
      2          6           0        0.733536    1.773057   -0.131156
      3          6           0       -0.596998    2.111029   -0.827018
      4          6           0       -1.696070    1.162592   -0.437633
      5          6           0       -1.385466   -0.128509   -0.188080
      6          6           0       -0.007402   -0.604461   -0.228272
      7          6           0        1.015662    0.282369   -0.221734
      8          7           0        2.358092   -0.052356   -0.151678
      9          6           0        2.884728   -1.316664    0.070832
     10          6           0        4.167575   -1.656469   -0.107753
     11          6           0       -2.427673   -1.142810    0.099507
     12          8           0       -2.213457   -2.329195    0.262283
     13          8           0       -3.686513   -0.631812    0.164400
     14          1           0        0.608339    3.293168    1.430000
     15          1           0        1.674687    1.930712    1.835735
     16          1           0       -0.085207    1.722640    1.884940
     17          1           0        1.533935    2.318090   -0.651766
     18          1           0       -0.873980    3.149342   -0.611965
     19          1           0       -0.457337    2.044947   -1.919492
     20          1           0       -2.725297    1.501432   -0.423575
     21          1           0        0.146869   -1.675917   -0.224647
     22          1           0        3.018728    0.680722   -0.372234
     23          1           0        2.160683   -2.031499    0.447752
     24          1           0        4.508411   -2.653567    0.141884
     25          1           0        4.905899   -0.956033   -0.490110
     26          1           0       -4.262440   -1.395985    0.348694
 ---------------------------------------------------------------------

 SCF Done:  E(UB3LYP) =  -594.294751626     A.U. after   29 cycles

 The electronic state is 2-A.
 Alpha  occ. eigenvalues --  -19.03068 -18.95821 -14.21948 -10.14500 -10.09357
 Alpha  occ. eigenvalues --  -10.06622 -10.05565 -10.03965 -10.03892 -10.03865
 Alpha  occ. eigenvalues --  -10.02317 -10.01645 -10.00986  -0.96601  -0.87120
 Alpha  occ. eigenvalues --   -0.82914  -0.71019  -0.64874  -0.63556  -0.59087
 Alpha  occ. eigenvalues --   -0.56475  -0.51419  -0.48832  -0.46719  -0.44923
 Alpha  occ. eigenvalues --   -0.40820  -0.37112  -0.36228  -0.34122  -0.33650
 Alpha  occ. eigenvalues --   -0.32891  -0.31547  -0.30803  -0.29822  -0.28533
 Alpha  occ. eigenvalues --   -0.27193  -0.26634  -0.25423  -0.25143  -0.24485
 Alpha  occ. eigenvalues --   -0.22697  -0.20246  -0.19548  -0.19059  -0.16717
 Alpha  occ. eigenvalues --   -0.13711  -0.12388  -0.05795   0.04453
 Alpha virt. eigenvalues --    0.07570   0.08784   0.09052   0.09591   0.10192
 Alpha virt. eigenvalues --    0.11023   0.11301   0.11878   0.12901   0.13146
 Alpha virt. eigenvalues --    0.13695   0.14162   0.15274   0.15534   0.16116

  Beta  occ. eigenvalues --  -19.03058 -18.95615 -14.21958 -10.14349 -10.09329
  Beta  occ. eigenvalues --  -10.06434 -10.05547 -10.03998 -10.03864 -10.03805
  Beta  occ. eigenvalues --  -10.02292 -10.01668 -10.00504  -0.96452  -0.86841
  Beta  occ. eigenvalues --   -0.82819  -0.70752  -0.64566  -0.63432  -0.58770
  Beta  occ. eigenvalues --   -0.56296  -0.51246  -0.48521  -0.46367  -0.44798
  Beta  occ. eigenvalues --   -0.40677  -0.37039  -0.35999  -0.33967  -0.33376
  Beta  occ. eigenvalues --   -0.32623  -0.31402  -0.30151  -0.29673  -0.28402
  Beta  occ. eigenvalues --   -0.27053  -0.26578  -0.25204  -0.24985  -0.24365
  Beta  occ. eigenvalues --   -0.22404  -0.20048  -0.19383  -0.18490  -0.15928
  Beta  occ. eigenvalues --   -0.13517  -0.11640  -0.04707
  Beta virt. eigenvalues --    0.07717   0.08754   0.09046   0.09805   0.09988
  Beta virt. eigenvalues --    0.10503   0.11283   0.11728   0.11948   0.12995
  Beta virt. eigenvalues --    0.13180   0.13706   0.14318   0.15434   0.15587

 Mulliken charges and spin densities:
               1          2
     1  C   -0.032459  -0.652136
     2  C    0.506445   0.276956
     3  C   -0.631438  -0.271240
     4  C   -0.216187   0.668773
     5  C    0.676450  -0.199032
     6  C   -0.428291  -0.123702
     7  C   -0.296813  -0.256292
     8  N   -0.049626   0.021610
     9  C    0.177295  -0.063914
    10  C   -0.645688   0.148351
    11  C   -0.009811  -0.041295
    12  O   -0.398639   0.066717
    13  O   -0.213687   0.001931
    14  H   -0.098798   0.218499
    15  H    0.044424   0.079008
    16  H    0.131091   0.035109
    17  H   -0.557351   0.734751
    18  H    0.081260   0.043224
    19  H    0.064940   0.079151
    20  H    0.179394  -0.012523
    21  H    0.143244   0.002025
    22  H    0.135099   0.126500
    23  H    0.123697  -0.000784
    24  H    0.116422  -0.019446
    25  H   -0.056447   0.138579
    26  H    0.255476  -0.000823
 Sum of Mulliken charges =  -1.00000   1.00000

 Dipole moment (field-independent basis, Debye):
    X=             -1.0843    Y=             -0.1080    Z=              0.5547  Tot=              1.2227
 Quadrupole moment (field-independent basis, Debye-Ang):
   XX=           -116.1236   YY=           -110.4623   ZZ=            -93.9830
   XY=             -4.7363   XZ=              0.5412   YZ=              0.1831

 Summary of Natural Population Analysis:

                                       Natural Population
                Natural  -----------------------------------------------
    Atom  No    Charge         Core      Valence    Rydberg      Total
 -----------------------------------------------------------------------
      C    1   -0.28296      0.99965     2.27677    0.00655     3.28296
      C    2   -0.11848      0.99958     2.10709    0.01181     3.11848
      C    3   -0.20716      0.99962     2.19676    0.01077     3.20716
      C    4    0.03546      0.99952     1.95590    0.00913     2.96454
      C    5   -0.09989      0.99942     2.08997    0.01050     3.09989
      C    6   -0.15350      0.99947     2.14544    0.00858     3.15350
      C    7    0.12560      0.99947     1.86073    0.01420     2.87440
      N    8   -0.30172      0.99964     2.79112    0.01095     3.80172
      C    9    0.02233      0.99956     1.96633    0.01179     2.97767
      C   10   -0.25162      0.99961     2.24333    0.00868     3.25162
      C   11    0.41392      0.99965     1.56270    0.02374     2.58608
      O   12   -0.31481      0.99987     3.30826    0.00668     4.31481
      O   13   -0.35502      0.99988     3.34916    0.00599     4.35502
      H   14    0.09336      0.00000     0.40559    0.00105     0.40664
      H   15    0.09642      0.00000     0.40266    0.00092     0.40358
      H   16    0.10447      0.00000     0.39472    0.00081     0.39553
      H   17    0.09625      0.00000     0.39985    0.00391     0.40375
      H   18    0.09686      0.00000     0.40221    0.00093     0.40314
      H   19    0.10793      0.00000     0.39094    0.00113     0.39207
      H   20    0.09317      0.00000     0.40558    0.00125     0.40683
      H   21    0.10663      0.00000     0.39217    0.00120     0.39337
      H   22    0.18858      0.00000     0.30835    0.00306     0.31142
      H   23    0.09442      0.00000     0.40388    0.00170     0.40558
      H   24    0.09277      0.00000     0.40653    0.00070     0.40723
      H   25    0.08861      0.00000     0.41051    0.00088     0.41139
      H   26    0.22837      0.00000     0.26655    0.00508     0.27163
 =======================================================================
   * Total *   -0.00000     12.99494    34.84307    0.16199    48.00000

 Normal termination of Gaussian 16 at Wed Dec  9 23:34:42 2020.
