 Gaussian 16, Revision A.03,

 -----------------------------------------------------------
 # opt freq B3LYP/6-31G(d) empiricaldispersion=gd3bj scf=xqc
 -----------------------------------------------------------

 ------------------------------
 CID_23373388_JID_6662_neutraal
 ------------------------------
 Symbolic Z-matrix:
 Charge =  0 Multiplicity = 1

 SCF Done:  E(RB3LYP) =  -709.680473770     A.U. after   15 cycles
 SCF Done:  E(RB3LYP) =  -709.684157625     A.U. after   13 cycles
 SCF Done:  E(RB3LYP) =  -709.681507197     A.U. after   14 cycles
 SCF Done:  E(RB3LYP) =  -709.682188757     A.U. after   12 cycles
 SCF Done:  E(RB3LYP) =  -709.684475522     A.U. after    9 cycles
 SCF Done:  E(RB3LYP) =  -709.684782243     A.U. after   13 cycles
 SCF Done:  E(RB3LYP) =  -709.685100245     A.U. after   12 cycles
 SCF Done:  E(RB3LYP) =  -709.685241308     A.U. after   12 cycles
 SCF Done:  E(RB3LYP) =  -709.685348281     A.U. after   12 cycles
 SCF Done:  E(RB3LYP) =  -709.685407291     A.U. after   11 cycles
 SCF Done:  E(RB3LYP) =  -709.685511247     A.U. after    9 cycles
 SCF Done:  E(RB3LYP) =  -709.685513935     A.U. after    9 cycles
 SCF Done:  E(RB3LYP) =  -709.685515247     A.U. after    9 cycles
 SCF Done:  E(RB3LYP) =  -709.685515513     A.U. after    8 cycles
 SCF Done:  E(RB3LYP) =  -709.685515622     A.U. after    8 cycles
 Optimization completed.
    -- Stationary point found.
 Normal termination of Gaussian 16 at Fri Dec 11 00:14:39 2020.

 --------------------------------------------------------------------
 #N Geom=AllCheck Guess=TCheck SCRF=Check GenChk RB3LYP/6-31G(d) Freq
 --------------------------------------------------------------------

 Structure from the checkpoint file:  "JID_6662.chk"
 ------------------------------
 CID_23373388_JID_6662_neutraal
 ------------------------------
 Charge =  0 Multiplicity = 1

 SCF Done:  E(RB3LYP) =  -709.685515622     A.U. after    1 cycles

  Exact polarizability: 194.501   0.715 136.966   4.973   1.520  86.865
 Approx polarizability: 264.929  10.444 228.667   5.590   3.639 138.332

                      1                      2                      3
                      A                      A                      A
 Frequencies --     46.1769                60.2505                85.4788
 Red. masses --      4.7922                 5.6311                 6.1637
 Frc consts  --      0.0060                 0.0120                 0.0265
 IR Inten    --      1.0398                 0.6896                 2.1662

                      4                      5                      6
                      A                      A                      A
 Frequencies --    105.6155               121.9811               140.9096
 Red. masses --      4.3569                 2.2225                 3.1694
 Frc consts  --      0.0286                 0.0195                 0.0371
 IR Inten    --      1.3660                 1.8432                 3.2284

                      7                      8                      9
                      A                      A                      A
 Frequencies --    184.2891               200.1201               248.7973
 Red. masses --      1.2715                 3.6257                 4.1562
 Frc consts  --      0.0254                 0.0856                 0.1516
 IR Inten    --      1.2277                 2.0733                 0.9973

                     10                     11                     12
                      A                      A                      A
 Frequencies --    271.5341               291.5553               310.0972
 Red. masses --      2.5698                 3.6148                 2.6835
 Frc consts  --      0.1116                 0.1810                 0.1520
 IR Inten    --      4.2456                 2.5114                 1.9770

                     13                     14                     15
                      A                      A                      A
 Frequencies --    316.4438               370.3326               406.8495
 Red. masses --      4.9503                 2.9140                 3.0945
 Frc consts  --      0.2921                 0.2355                 0.3018
 IR Inten    --      4.0647                 2.9951                 6.1358

                     16                     17                     18
                      A                      A                      A
 Frequencies --    448.2052               463.3692               510.8624
 Red. masses --      2.8029                 3.2626                 2.9671
 Frc consts  --      0.3317                 0.4127                 0.4562
 IR Inten    --      3.4895                 3.4043                 1.3121

                     19                     20                     21
                      A                      A                      A
 Frequencies --    520.3895               536.0297               570.9591
 Red. masses --      2.2233                 3.0544                 4.1135
 Frc consts  --      0.3547                 0.5171                 0.7901
 IR Inten    --      6.0695                16.7961                 6.4530

                     22                     23                     24
                      A                      A                      A
 Frequencies --    595.9733               629.2291               658.8342
 Red. masses --      5.1192                 5.0332                 1.8733
 Frc consts  --      1.0713                 1.1741                 0.4791
 IR Inten    --      3.8336                 3.5231                51.8847

                     25                     26                     27
                      A                      A                      A
 Frequencies --    685.6342               720.7158               753.7828
 Red. masses --      2.1416                 3.5560                 4.1603
 Frc consts  --      0.5932                 1.0883                 1.3927
 IR Inten    --     23.2927                 0.6837                 1.7402

                     28                     29                     30
                      A                      A                      A
 Frequencies --    766.6603               798.4565               847.2975
 Red. masses --      1.2542                 4.0169                 2.5044
 Frc consts  --      0.4343                 1.5088                 1.0593
 IR Inten    --     45.7131                 5.1466                 4.7097

                     31                     32                     33
                      A                      A                      A
 Frequencies --    864.8484               894.1775               912.2370
 Red. masses --      1.9589                 1.5831                 3.1418
 Frc consts  --      0.8633                 0.7458                 1.5404
 IR Inten    --      5.6425                 1.6899                 6.2109

                     34                     35                     36
                      A                      A                      A
 Frequencies --    938.7447               943.6537               962.1926
 Red. masses --      1.6996                 2.1379                 1.6478
 Frc consts  --      0.8824                 1.1217                 0.8988
 IR Inten    --      1.3209                 6.8582                 0.4172

                     37                     38                     39
                      A                      A                      A
 Frequencies --    987.6125              1008.9496              1033.7392
 Red. masses --      1.2640                 2.0585                 2.1242
 Frc consts  --      0.7264                 1.2346                 1.3375
 IR Inten    --      0.0042                 8.6788                 4.7904

                     40                     41                     42
                      A                      A                      A
 Frequencies --   1044.9036              1071.1129              1075.4736
 Red. masses --      1.7869                 1.7232                 2.2581
 Frc consts  --      1.1495                 1.1648                 1.5388
 IR Inten    --      9.9343                 8.6949                 1.2498

                     43                     44                     45
                      A                      A                      A
 Frequencies --   1108.8404              1138.2358              1150.5385
 Red. masses --      2.2493                 2.2731                 2.0506
 Frc consts  --      1.6294                 1.7351                 1.5993
 IR Inten    --      0.9406                 2.7135                 2.8709

                     46                     47                     48
                      A                      A                      A
 Frequencies --   1192.3529              1197.6933              1217.2828
 Red. masses --      1.7974                 1.0959                 2.3957
 Frc consts  --      1.5056                 0.9262                 2.0915
 IR Inten    --     14.5195                 0.1543                 1.2331

                     49                     50                     51
                      A                      A                      A
 Frequencies --   1223.9699              1244.0358              1269.9789
 Red. masses --      1.4894                 2.3604                 1.5300
 Frc consts  --      1.3146                 2.1523                 1.4539
 IR Inten    --      5.8666                 4.0043                 1.1027

                     52                     53                     54
                      A                      A                      A
 Frequencies --   1292.4706              1322.1730              1350.0022
 Red. masses --      1.4554                 1.6731                 2.2473
 Frc consts  --      1.4324                 1.7233                 2.4132
 IR Inten    --      5.4223                15.5576                 0.7738

                     55                     56                     57
                      A                      A                      A
 Frequencies --   1359.6662              1371.0550              1395.6745
 Red. masses --      2.3801                 1.9635                 1.5582
 Frc consts  --      2.5924                 2.1746                 1.7883
 IR Inten    --    205.0630                27.2522                 1.0624

                     58                     59                     60
                      A                      A                      A
 Frequencies --   1409.4646              1425.8767              1436.0664
 Red. masses --      1.6380                 1.5425                 1.2322
 Frc consts  --      1.9172                 1.8477                 1.4972
 IR Inten    --      0.2723               128.8379                 6.7304

                     61                     62                     63
                      A                      A                      A
 Frequencies --   1488.1740              1501.7829              1504.1093
 Red. masses --      1.4568                 2.1163                 1.1036
 Frc consts  --      1.9009                 2.8121                 1.4710
 IR Inten    --     35.7563                 2.6100                 2.3769

                     64                     65                     66
                      A                      A                      A
 Frequencies --   1509.0637              1517.2827              1522.1149
 Red. masses --      1.1577                 1.0950                 1.0716
 Frc consts  --      1.5533                 1.4852                 1.4628
 IR Inten    --      1.1487                 7.6118                 9.3151

                     67                     68                     69
                      A                      A                      A
 Frequencies --   1536.1608              1548.5995              1643.1371
 Red. masses --      1.0981                 2.2135                 6.1396
 Frc consts  --      1.5268                 3.1276                 9.7665
 IR Inten    --      3.3219                16.2884                 3.1541

                     70                     71                     72
                      A                      A                      A
 Frequencies --   1669.0189              1795.7523              1832.4177
 Red. masses --      5.8108                 7.5245                10.5777
 Frc consts  --      9.5370                14.2962                20.9261
 IR Inten    --      0.0419               372.3596               175.7115

                     73                     74                     75
                      A                      A                      A
 Frequencies --   2946.7215              3026.2476              3028.2086
 Red. masses --      1.0847                 1.0691                 1.0615
 Frc consts  --      5.5490                 5.7689                 5.7352
 IR Inten    --     97.3659                29.3596                 7.1390

                     76                     77                     78
                      A                      A                      A
 Frequencies --   3063.6951              3067.4118              3070.0664
 Red. masses --      1.0778                 1.0982                 1.0454
 Frc consts  --      5.9606                 6.0878                 5.8053
 IR Inten    --     10.6900                 8.8482                 5.2506

                     79                     80                     81
                      A                      A                      A
 Frequencies --   3078.3767              3142.5527              3150.7974
 Red. masses --      1.0854                 1.0951                 1.0917
 Frc consts  --      6.0599                 6.3721                 6.3853
 IR Inten    --     35.9975                20.7910                 6.6220

                     82                     83                     84
                      A                      A                      A
 Frequencies --   3174.9799              3178.6162              3184.3453
 Red. masses --      1.0870                 1.0889                 1.1040
 Frc consts  --      6.4557                 6.4820                 6.5956
 IR Inten    --     14.4372                 1.1828                11.1959

                     85                     86                     87
                      A                      A                      A
 Frequencies --   3196.7747              3211.8871              3566.2695
 Red. masses --      1.0912                 1.0973                 1.0753
 Frc consts  --      6.5705                 6.6694                 8.0573
 IR Inten    --     21.3556                27.4065                12.1160

 - Thermochemistry -
 -------------------
 Temperature   298.150 Kelvin.  Pressure   1.00000 Atm.
 Atom     1 has atomic number  6 and mass  12.00000

 Molecular mass:   217.11028 amu.
 Principal axes and moments of inertia in atomic units:
                           1         2         3
     Eigenvalues --  1325.537376149.029966502.10326
           X            0.99993  -0.01183   0.00239
           Y            0.01183   0.99993  -0.00084
           Z           -0.00238   0.00087   1.00000
 This molecule is an asymmetric top.
 Rotational symmetry number  1.
 Warning -- assumption of classical behavior for rotation
           may cause significant error
 Rotational temperatures (Kelvin)      0.06534     0.01409     0.01332
 Rotational constants (GHZ):           1.36152     0.29350     0.27756
 Zero-point vibrational energy     679864.2 (Joules/Mol)
                                  162.49144 (Kcal/Mol)
 Warning -- explicit consideration of  22 degrees of freedom as
           vibrations may cause significant error
 Vibrational temperatures:     66.44    86.69   122.98   151.96   175.50
          (Kelvin)            202.74   265.15   287.93   357.96   390.68
                              419.48   446.16   455.29   532.83   585.37
                              644.87   666.68   735.02   748.72   771.23
                              821.48   857.47   905.32   947.92   986.47
                             1036.95  1084.53  1103.05  1148.80  1219.07
                             1244.32  1286.52  1312.51  1350.64  1357.71
                             1384.38  1420.95  1451.65  1487.32  1503.38
                             1541.09  1547.37  1595.37  1637.67  1655.37
                             1715.53  1723.21  1751.40  1761.02  1789.89
                             1827.22  1859.58  1902.31  1942.35  1956.26
                             1972.64  2008.06  2027.91  2051.52  2066.18
                             2141.15  2160.73  2164.08  2171.21  2183.03
                             2189.98  2210.19  2228.09  2364.11  2401.35
                             2583.69  2636.44  4239.67  4354.10  4356.92
                             4407.97  4413.32  4417.14  4429.10  4521.43
                             4533.29  4568.09  4573.32  4581.56  4599.45
                             4621.19  5131.07

 Zero-point correction=                           0.258947 (Hartree/Particle)
 Thermal correction to Energy=                    0.273327
 Thermal correction to Enthalpy=                  0.274271
 Thermal correction to Gibbs Free Energy=         0.217642
 Sum of electronic and zero-point Energies=           -709.426569
 Sum of electronic and thermal Energies=              -709.412189
 Sum of electronic and thermal Enthalpies=            -709.411245
 Sum of electronic and thermal Free Energies=         -709.467874

                     E (Thermal)             CV                S
                      KCal/Mol        Cal/Mol-Kelvin    Cal/Mol-Kelvin
 Total                  171.515             56.004            119.187
 Electronic               0.000              0.000              0.000
 Translational            0.889              2.981             42.029
 Rotational               0.889              2.981             32.338
 Vibrational            169.738             50.042             44.819
 Vibration     1          0.595              1.979              4.975
 Vibration     2          0.597              1.973              4.449
 Vibration     3          0.601              1.959              3.761
 Vibration     4          0.605              1.945              3.348
 Vibration     5          0.609              1.931              3.069
 Vibration     6          0.615              1.912              2.791
 Vibration     7          0.631              1.861              2.285
 Vibration     8          0.638              1.840              2.132
 Vibration     9          0.662              1.765              1.739
 Vibration    10          0.675              1.726              1.586
 Vibration    11          0.687              1.689              1.465
 Vibration    12          0.699              1.654              1.362
 Vibration    13          0.703              1.642              1.328
 Vibration    14          0.742              1.533              1.078
 Vibration    15          0.772              1.455              0.938
 Vibration    16          0.807              1.365              0.801
 Vibration    17          0.821              1.331              0.756
 Vibration    18          0.866              1.226              0.632
 Vibration    19          0.875              1.205              0.609
 Vibration    20          0.891              1.170              0.574
 Vibration    21          0.927              1.094              0.502
 Vibration    22          0.954              1.040              0.457

 Optimization completed.
    -- Stationary point found.
 Normal termination of Gaussian 16 at Fri Dec 11 00:26:40 2020.

 ----------------------------------------------------------------------
 # B3LYP/6-311++G(d,p) empiricaldispersion=gd3bj scf=xqc pop=npa geom=c
 heck
 ----------------------------------------------------------------------

 --------------------------------------
 CID_23373388_JID_6662_Energie_neutraal
 --------------------------------------
 Structure from the checkpoint file:  "JID_6662.chk"
 Charge =  0 Multiplicity = 1

 SCF Done:  E(RB3LYP) =  -709.884173187     A.U. after   15 cycles
 Normal termination of Gaussian 16 at Fri Dec 11 00:32:18 2020.

 ----------------------------------------------------------------------
 # B3LYP/6-311++G(d,p) empiricaldispersion=gd3bj scf=xqc pop=npa geom=c
 heck
 ----------------------------------------------------------------------

 ------------------------------------
 CID_23373388_JID_6662_Energie_kation
 ------------------------------------
 Structure from the checkpoint file:  "JID_6662.chk"
 Charge =  1 Multiplicity = 2

 SCF Done:  E(UB3LYP) =  -709.569965810     A.U. after   32 cycles
 Normal termination of Gaussian 16 at Fri Dec 11 00:49:02 2020.
 Gaussian 16:  ES64L-G16RevA.03 25-Dec-2016

 ----------------------------------------------------------------------
 # B3LYP/6-311++G(d,p) empiricaldispersion=gd3bj scf=xqc pop=npa geom=c
 heck
 ----------------------------------------------------------------------

 -----------------------------------
 CID_23373388_JID_6662_Energie_anion
 -----------------------------------
 Structure from the checkpoint file:  "JID_6662.chk"
 Charge = -1 Multiplicity = 2

                         Standard orientation:
 ---------------------------------------------------------------------
 Center     Atomic      Atomic             Coordinates (Angstroms)
 Number     Number       Type             X           Y           Z
 ---------------------------------------------------------------------
      1          6           0       -3.671772    1.157146   -0.012434
      2          6           0       -3.392538   -0.285531   -0.389369
      3          8           0       -4.299236   -1.076002   -0.606316
      4          7           0       -2.082442   -0.690801   -0.591249
      5          6           0       -0.835917   -0.134623   -0.084096
      6          6           0       -0.483832    1.218360   -0.749360
      7          6           0        0.858201    1.787759   -0.273929
      8          6           0        1.967589    0.760396   -0.193301
      9          6           0        3.293133    1.182542   -0.027395
     10          6           0        4.332849    0.266318    0.093469
     11          6           0        4.054648   -1.102022    0.054571
     12          6           0        2.741515   -1.531485   -0.107036
     13          6           0        1.690288   -0.614432   -0.237775
     14          6           0        0.285342   -1.131503   -0.463658
     15          6           0       -0.843279   -0.019815    1.446275
     16          8           0       -1.810072   -0.226354    2.143203
     17          1           0       -4.723547    1.222278    0.268419
     18          1           0       -3.500569    1.810270   -0.875781
     19          1           0       -3.055893    1.504178    0.818533
     20          1           0       -2.063011   -1.689782   -0.766051
     21          1           0       -0.455896    1.030156   -1.828948
     22          1           0       -1.272084    1.952558   -0.574032
     23          1           0        1.156473    2.601527   -0.945615
     24          1           0        0.733330    2.256102    0.712904
     25          1           0        3.504899    2.248876    0.008395
     26          1           0        5.353721    0.615062    0.219743
     27          1           0        4.855962   -1.828427    0.153532
     28          1           0        2.519926   -2.595874   -0.135219
     29          1           0        0.141605   -2.073089    0.082258
     30          1           0        0.145005   -1.365525   -1.528241
     31          1           0        0.134273    0.247490    1.897976
 ---------------------------------------------------------------------

 SCF Done:  E(UB3LYP) =  -709.880364659     A.U. after   33 cycles
 SCF Done:  E(UB3LYP) =  -709.880368447     a.u. after    3 cycles

 The electronic state is 2-A.
 Alpha  occ. eigenvalues --  -18.97775 -18.96516 -14.22026 -10.16538 -10.11105
 Alpha  occ. eigenvalues --  -10.09483 -10.08104 -10.07803 -10.07599 -10.07497
 Alpha  occ. eigenvalues --  -10.07153 -10.06851 -10.06847 -10.06626 -10.06490
 Alpha  occ. eigenvalues --  -10.06195  -0.93021  -0.90400  -0.81360  -0.76420
 Alpha  occ. eigenvalues --   -0.70713  -0.67131  -0.64105  -0.63220  -0.61519
 Alpha  occ. eigenvalues --   -0.54452  -0.52582  -0.50413  -0.49004  -0.45911
 Alpha  occ. eigenvalues --   -0.43332  -0.40561  -0.38487  -0.36976  -0.36040
 Alpha  occ. eigenvalues --   -0.34807  -0.34580  -0.33874  -0.33307  -0.32066
 Alpha  occ. eigenvalues --   -0.31320  -0.30401  -0.29701  -0.29033  -0.28360
 Alpha  occ. eigenvalues --   -0.27514  -0.27011  -0.25958  -0.25018  -0.24775
 Alpha  occ. eigenvalues --   -0.23703  -0.23089  -0.21215  -0.15920  -0.15096
 Alpha  occ. eigenvalues --   -0.14667  -0.14217  -0.11190   0.04907
 Alpha virt. eigenvalues --    0.06441   0.07420   0.07906   0.07950   0.08740
 Alpha virt. eigenvalues --    0.09047   0.09724   0.09904   0.10979   0.11298
 Alpha virt. eigenvalues --    0.11714   0.12100   0.12241   0.13343   0.14380

  Beta  occ. eigenvalues --  -18.97775 -18.96056 -14.22025 -10.16538 -10.11135
  Beta  occ. eigenvalues --  -10.09143 -10.08119 -10.07771 -10.07562 -10.07511
  Beta  occ. eigenvalues --  -10.07107 -10.06788 -10.06784 -10.06583 -10.06443
  Beta  occ. eigenvalues --  -10.06187  -0.93009  -0.89587  -0.81313  -0.76345
  Beta  occ. eigenvalues --   -0.70628  -0.67033  -0.64018  -0.63170  -0.61424
  Beta  occ. eigenvalues --   -0.54280  -0.52383  -0.50259  -0.48608  -0.45862
  Beta  occ. eigenvalues --   -0.43146  -0.40500  -0.38413  -0.36775  -0.35951
  Beta  occ. eigenvalues --   -0.34719  -0.34405  -0.33818  -0.33154  -0.31860
  Beta  occ. eigenvalues --   -0.31270  -0.30278  -0.29629  -0.29000  -0.28065
  Beta  occ. eigenvalues --   -0.27404  -0.26666  -0.25733  -0.24904  -0.24340
  Beta  occ. eigenvalues --   -0.23265  -0.22431  -0.20572  -0.15832  -0.14849
  Beta  occ. eigenvalues --   -0.14580  -0.14022  -0.10884
  Beta virt. eigenvalues --    0.06668   0.07651   0.07860   0.08134   0.08884
  Beta virt. eigenvalues --    0.09150   0.09688   0.10088   0.11192   0.11489
  Beta virt. eigenvalues --    0.11787   0.12050   0.12165   0.12285   0.13339

 Mulliken charges and spin densities:
               1          2
     1  C   -0.134627  -0.337404
     2  C   -0.021335   0.120672
     3  O   -0.337322  -0.000568
     4  N   -0.050113   0.008647
     5  C    0.303300   0.102792
     6  C   -0.609045   0.119704
     7  C    0.491537  -0.956104
     8  C    0.914553  -0.094621
     9  C    0.168190   0.002229
    10  C   -0.398311   0.095888
    11  C   -0.102700  -0.283232
    12  C   -0.550654   0.231296
    13  C    0.287628  -0.689287
    14  C   -0.624985   0.109140
    15  C   -0.220736   0.047470
    16  O   -0.298442   0.137816
    17  H    0.179587  -0.011420
    18  H    0.048693   0.110323
    19  H    0.102527   0.102903
    20  H    0.277931   0.006177
    21  H    0.172511   0.026784
    22  H   -0.324183   0.475018
    23  H   -0.151869   0.312704
    24  H   -0.334768   0.585132
    25  H    0.027701   0.115199
    26  H    0.130470  -0.000062
    27  H   -0.095237   0.234200
    28  H   -0.238518   0.384419
    29  H    0.190778  -0.015196
    30  H    0.094323   0.088602
    31  H    0.103115  -0.029222
 Sum of Mulliken charges =  -1.00000   1.00000

 Dipole moment (field-independent basis, Debye):
    X=              3.8390    Y=             -0.1561    Z=             -2.6696  Tot=              4.6786
 Quadrupole moment (field-independent basis, Debye-Ang):
   XX=           -156.4506   YY=           -127.8195   ZZ=           -122.4350
   XY=             -3.3689   XZ=              2.9019   YZ=             -2.5907

 Summary of Natural Population Analysis:

                                       Natural Population
                Natural  -----------------------------------------------
    Atom  No    Charge         Core      Valence    Rydberg      Total
 -----------------------------------------------------------------------
      C    1   -0.33571      0.99961     2.33112    0.00497     3.33571
      C    2    0.35339      0.99971     1.62306    0.02384     2.64661
      O    3   -0.32947      0.99987     3.32372    0.00588     4.32947
      N    4   -0.32525      0.99964     2.81485    0.01076     3.82525
      C    5    0.01907      0.99954     1.96829    0.01310     2.98093
      C    6   -0.18389      0.99959     2.17417    0.01013     3.18389
      C    7   -0.20026      0.99960     2.19076    0.00990     3.20026
      C    8   -0.00662      0.99946     1.99799    0.00917     3.00662
      C    9   -0.08772      0.99952     2.07871    0.00949     3.08772
      C   10   -0.10875      0.99957     2.10017    0.00902     3.10875
      C   11   -0.10002      0.99956     2.09057    0.00988     3.10002
      C   12   -0.08840      0.99952     2.07934    0.00954     3.08840
      C   13   -0.01832      0.99946     2.00935    0.00951     3.01832
      C   14   -0.19198      0.99957     2.18225    0.01016     3.19198
      C   15    0.25487      0.99967     1.72245    0.02301     2.74513
      O   16   -0.24321      0.99988     3.23686    0.00647     4.24321
      H   17    0.10847      0.00000     0.39074    0.00080     0.39153
      H   18    0.10549      0.00000     0.39360    0.00091     0.39451
      H   19    0.11905      0.00000     0.37986    0.00110     0.38095
      H   20    0.19117      0.00000     0.30714    0.00169     0.30883
      H   21    0.09693      0.00000     0.40208    0.00099     0.40307
      H   22    0.10679      0.00000     0.39172    0.00149     0.39321
      H   23    0.10356      0.00000     0.39553    0.00090     0.39644
      H   24    0.11222      0.00000     0.38496    0.00282     0.38778
      H   25    0.09644      0.00000     0.40247    0.00109     0.40356
      H   26    0.09535      0.00000     0.40391    0.00075     0.40465
      H   27    0.09680      0.00000     0.40244    0.00075     0.40320
      H   28    0.09705      0.00000     0.40140    0.00155     0.40295
      H   29    0.10540      0.00000     0.39358    0.00102     0.39460
      H   30    0.10730      0.00000     0.39135    0.00135     0.39270
      H   31    0.05022      0.00000     0.44774    0.00204     0.44978
 =======================================================================
   * Total *   -0.00000     15.99378    41.81215    0.19407    58.00000

 Normal termination of Gaussian 16 at Fri Dec 11 01:41:15 2020.
