 Gaussian 16, Revision A.03,

 -----------------------------------------------------------
 # opt freq B3LYP/6-31G(d) empiricaldispersion=gd3bj scf=xqc
 -----------------------------------------------------------

 -------------------------------
 CID_107048192_JID_8425_neutraal
 -------------------------------
 Symbolic Z-matrix:
 Charge =  0 Multiplicity = 1

 SCF Done:  E(RB3LYP) =  -839.979799049     A.U. after   15 cycles
 SCF Done:  E(RB3LYP) =  -839.984357696     A.U. after   12 cycles
 SCF Done:  E(RB3LYP) =  -839.984861149     A.U. after   12 cycles
 SCF Done:  E(RB3LYP) =  -839.985584274     A.U. after   11 cycles
 SCF Done:  E(RB3LYP) =  -839.985969728     A.U. after   11 cycles
 SCF Done:  E(RB3LYP) =  -839.986090778     A.U. after   11 cycles
 SCF Done:  E(RB3LYP) =  -839.986154465     A.U. after   10 cycles
 SCF Done:  E(RB3LYP) =  -839.986208873     A.U. after   10 cycles
 SCF Done:  E(RB3LYP) =  -839.986269711     A.U. after   10 cycles
 SCF Done:  E(RB3LYP) =  -839.986311637     A.U. after   10 cycles
 SCF Done:  E(RB3LYP) =  -839.986791895     A.U. after    8 cycles
 SCF Done:  E(RB3LYP) =  -839.986792311     A.U. after    8 cycles
 SCF Done:  E(RB3LYP) =  -839.986792600     A.U. after    7 cycles
 SCF Done:  E(RB3LYP) =  -839.986792662     A.U. after    7 cycles
 SCF Done:  E(RB3LYP) =  -839.986792690     A.U. after    7 cycles
 Optimization completed.
    -- Stationary point found.
 Normal termination of Gaussian 16 at Fri Dec 11 20:55:20 2020.

 --------------------------------------------------------------------
 #N Geom=AllCheck Guess=TCheck SCRF=Check GenChk RB3LYP/6-31G(d) Freq
 --------------------------------------------------------------------

 Structure from the checkpoint file:  "JID_8425.chk"
 -------------------------------
 CID_107048192_JID_8425_neutraal
 -------------------------------
 Charge =  0 Multiplicity = 1

 SCF Done:  E(RB3LYP) =  -839.986792690     A.U. after    1 cycles

  Exact polarizability: 167.360   7.782 157.860   6.887  -1.966 127.380
 Approx polarizability: 214.399  11.105 237.005  20.651  -8.443 206.420

                      1                      2                      3
                      A                      A                      A
 Frequencies --     21.1518                27.6433                36.1966
 Red. masses --      5.2452                 3.8841                 3.7850
 Frc consts  --      0.0014                 0.0017                 0.0029
 IR Inten    --      1.1343                 1.5248                 0.2390

                      4                      5                      6
                      A                      A                      A
 Frequencies --     59.4791                94.9078               116.0973
 Red. masses --      4.9691                 1.1255                 3.0354
 Frc consts  --      0.0104                 0.0060                 0.0241
 IR Inten    --      0.1510                 0.0200                 0.1211

                      7                      8                      9
                      A                      A                      A
 Frequencies --    124.2544               142.5738               157.5558
 Red. masses --      3.4735                 1.5656                 3.7747
 Frc consts  --      0.0316                 0.0187                 0.0552
 IR Inten    --      0.4223                 1.7032                 2.6398

                     10                     11                     12
                      A                      A                      A
 Frequencies --    182.7112               193.6866               196.3085
 Red. masses --      2.9261                 2.0005                 4.2921
 Frc consts  --      0.0576                 0.0442                 0.0975
 IR Inten    --      1.8800                 3.0727                 3.2398

                     13                     14                     15
                      A                      A                      A
 Frequencies --    238.5066               261.7148               288.6806
 Red. masses --      4.0415                 3.0004                 2.8308
 Frc consts  --      0.1355                 0.1211                 0.1390
 IR Inten    --      4.4765                 2.1639                 4.1160

                     16                     17                     18
                      A                      A                      A
 Frequencies --    296.4173               315.8424               334.4071
 Red. masses --      2.9234                 1.7668                 1.6771
 Frc consts  --      0.1513                 0.1038                 0.1105
 IR Inten    --      3.4644                38.1103                36.5943

                     19                     20                     21
                      A                      A                      A
 Frequencies --    360.3770               375.0961               413.9016
 Red. masses --      2.5992                 2.1548                 2.9903
 Frc consts  --      0.1989                 0.1786                 0.3018
 IR Inten    --     41.8408                29.9092                 0.2040

                     22                     23                     24
                      A                      A                      A
 Frequencies --    428.0309               435.8338               451.5618
 Red. masses --      2.8583                 3.4084                 3.4830
 Frc consts  --      0.3085                 0.3815                 0.4184
 IR Inten    --     14.5685                 0.1840                 5.4359

                     25                     26                     27
                      A                      A                      A
 Frequencies --    503.2883               534.2852               627.5893
 Red. masses --      1.7832                 2.9361                 3.0416
 Frc consts  --      0.2661                 0.4938                 0.7058
 IR Inten    --      7.5924                13.0714                14.2546

                     28                     29                     30
                      A                      A                      A
 Frequencies --    686.5661               695.2819               718.7632
 Red. masses --      5.7451                 6.5826                 2.7974
 Frc consts  --      1.5956                 1.8749                 0.8515
 IR Inten    --      3.7982                 3.8958                 4.1360

                     31                     32                     33
                      A                      A                      A
 Frequencies --    767.5647               796.5824               812.1600
 Red. masses --      6.5641                 1.7860                 2.8299
 Frc consts  --      2.2785                 0.6677                 1.0998
 IR Inten    --      5.6429                 0.5258                 2.7614

                     34                     35                     36
                      A                      A                      A
 Frequencies --    830.9857               836.8193               870.5909
 Red. masses --      5.0862                 2.8230                 2.4663
 Frc consts  --      2.0693                 1.1647                 1.1013
 IR Inten    --     12.6979                 1.8598                 2.1287

                     37                     38                     39
                      A                      A                      A
 Frequencies --    881.1552               883.7091               943.5670
 Red. masses --      1.7204                 2.3300                 2.6241
 Frc consts  --      0.7870                 1.0721                 1.3765
 IR Inten    --      1.8058                 0.4950                34.5561

                     40                     41                     42
                      A                      A                      A
 Frequencies --    949.9580               961.3031              1012.0001
 Red. masses --      2.2380                 1.4476                 2.6572
 Frc consts  --      1.1899                 0.7882                 1.6034
 IR Inten    --     11.3347                 5.8524                 5.1221

                     43                     44                     45
                      A                      A                      A
 Frequencies --   1041.4629              1046.9135              1050.2780
 Red. masses --      2.7828                 2.3760                 2.5674
 Frc consts  --      1.7784                 1.5343                 1.6686
 IR Inten    --     56.8035                 4.0358                10.6559

                     46                     47                     48
                      A                      A                      A
 Frequencies --   1058.1820              1060.8766              1069.6028
 Red. masses --      4.0059                 1.9545                 2.2274
 Frc consts  --      2.6429                 1.2960                 1.5014
 IR Inten    --      4.7044                 2.9816                29.1752

                     49                     50                     51
                      A                      A                      A
 Frequencies --   1107.6700              1108.3644              1122.7736
 Red. masses --      2.5062                 4.9896                 2.3505
 Frc consts  --      1.8117                 3.6115                 1.7458
 IR Inten    --     34.2635                 1.3026                29.1496

                     52                     53                     54
                      A                      A                      A
 Frequencies --   1128.3660              1146.8072              1161.6385
 Red. masses --      2.1611                 1.0686                 1.3135
 Frc consts  --      1.6211                 0.8280                 1.0443
 IR Inten    --     75.9580                 2.8326                 0.0112

                     55                     56                     57
                      A                      A                      A
 Frequencies --   1169.0964              1179.7663              1188.1861
 Red. masses --      1.8217                 1.5087                 1.3242
 Frc consts  --      1.4670                 1.2372                 1.1014
 IR Inten    --     26.4856                 1.4490                 2.2071

                     58                     59                     60
                      A                      A                      A
 Frequencies --   1202.9286              1235.6942              1261.3282
 Red. masses --      2.0283                 1.4617                 2.9761
 Frc consts  --      1.7293                 1.3150                 2.7896
 IR Inten    --     27.6519                19.9374                 5.8075

                     61                     62                     63
                      A                      A                      A
 Frequencies --   1262.9521              1289.2764              1304.7883
 Red. masses --      1.7435                 1.2862                 1.3101
 Frc consts  --      1.6385                 1.2597                 1.3141
 IR Inten    --     26.4642                 9.4816                 0.4981

                     64                     65                     66
                      A                      A                      A
 Frequencies --   1317.7784              1321.6495              1330.3557
 Red. masses --      2.6389                 1.3374                 1.3521
 Frc consts  --      2.7000                 1.3764                 1.4099
 IR Inten    --      1.5532                 3.8815                 1.4390

                     67                     68                     69
                      A                      A                      A
 Frequencies --   1354.9218              1367.7080              1373.5100
 Red. masses --      1.4888                 1.3369                 1.3249
 Frc consts  --      1.6104                 1.4734                 1.4727
 IR Inten    --      9.5292                 3.7408                 0.1425

                     70                     71                     72
                      A                      A                      A
 Frequencies --   1380.7557              1397.1987              1405.1247
 Red. masses --      1.3726                 1.4715                 1.3740
 Frc consts  --      1.5418                 1.6925                 1.5983
 IR Inten    --     12.1691                 1.9213                 0.9175

                     73                     74                     75
                      A                      A                      A
 Frequencies --   1408.4300              1414.1611              1420.4058
 Red. masses --      1.4231                 1.4033                 9.2856
 Frc consts  --      1.6633                 1.6535                11.0378
 IR Inten    --      2.4116                 1.9663                10.3443

                     76                     77                     78
                      A                      A                      A
 Frequencies --   1430.3478              1436.1022              1445.8606
 Red. masses --      1.3816                 3.3934                 1.2498
 Frc consts  --      1.6654                 4.1234                 1.5394
 IR Inten    --     13.0062                20.2291                29.3492

                     79                     80                     81
                      A                      A                      A
 Frequencies --   1451.6285              1468.4880              1503.2409
 Red. masses --      1.4131                 1.1903                 1.1699
 Frc consts  --      1.7544                 1.5123                 1.5576
 IR Inten    --     22.4214                 0.3476                10.7607

                     82                     83                     84
                      A                      A                      A
 Frequencies --   1504.3982              1505.2146              1513.2185
 Red. masses --      1.1239                 1.0422                 1.0987
 Frc consts  --      1.4987                 1.3912                 1.4823
 IR Inten    --      3.5251                10.1109                 1.5593

                     85                     86                     87
                      A                      A                      A
 Frequencies --   1516.9038              1520.2486              1525.0799
 Red. masses --      1.0877                 1.0829                 1.0766
 Frc consts  --      1.4746                 1.4746                 1.4754
 IR Inten    --      1.0205                 1.9436                 1.1191

                     88                     89                     90
                      A                      A                      A
 Frequencies --   1527.4833              1530.7148              1534.6154
 Red. masses --      1.0663                 1.1755                 1.0803
 Frc consts  --      1.4658                 1.6228                 1.4990
 IR Inten    --      5.1647                 2.9404                 8.9909

                     91                     92                     93
                      A                      A                      A
 Frequencies --   1541.8433              1547.7208              2992.9171
 Red. masses --      1.0943                 3.8853                 1.0801
 Frc consts  --      1.5327                 5.4835                 5.7005
 IR Inten    --      9.0162                35.1206                41.4570

                     94                     95                     96
                      A                      A                      A
 Frequencies --   3016.2305              3019.4825              3028.4905
 Red. masses --      1.0672                 1.0683                 1.0702
 Frc consts  --      5.7203                 5.7388                 5.7833
 IR Inten    --     26.7234                 8.4449                76.8531

                     97                     98                     99
                      A                      A                      A
 Frequencies --   3041.4813              3048.3364              3051.1074
 Red. masses --      1.0621                 1.0320                 1.0711
 Frc consts  --      5.7887                 5.6499                 5.8749
 IR Inten    --     21.4038                36.6030                66.0671

                    100                    101                    102
                      A                      A                      A
 Frequencies --   3068.2628              3070.5303              3076.3222
 Red. masses --      1.0902                 1.0932                 1.0693
 Frc consts  --      6.0472                 6.0728                 5.9622
 IR Inten    --      6.1260                62.0331                33.4130

                    103                    104                    105
                      A                      A                      A
 Frequencies --   3077.7243              3082.9313              3085.6893
 Red. masses --      1.0827                 1.0923                 1.1037
 Frc consts  --      6.0426                 6.1170                 6.1917
 IR Inten    --     39.0781                39.5754                48.1279

                    106                    107                    108
                      A                      A                      A
 Frequencies --   3088.5886              3097.0435              3110.9590
 Red. masses --      1.0322                 1.0858                 1.1032
 Frc consts  --      5.8017                 6.1361                 6.2907
 IR Inten    --     21.7397                10.0875                48.1747

                    109                    110                    111
                      A                      A                      A
 Frequencies --   3128.0060              3132.0748              3133.6947
 Red. masses --      1.1035                 1.0947                 1.1027
 Frc consts  --      6.3614                 6.3271                 6.3799
 IR Inten    --     14.9453                46.3562                16.7846

                    112                    113                    114
                      A                      A                      A
 Frequencies --   3161.7762              3198.8344              3736.9271
 Red. masses --      1.1069                 1.1050                 1.0655
 Frc consts  --      6.5195                 6.6620                 8.7668
 IR Inten    --      7.2703                 0.9122                11.7849

 - Thermochemistry -
 -------------------
 Temperature   298.150 Kelvin.  Pressure   1.00000 Atm.
 Atom     1 has atomic number  6 and mass  12.00000

 Molecular mass:   254.17428 amu.
 Principal axes and moments of inertia in atomic units:
                           1         2         3
     Eigenvalues --  2798.113286768.052418201.39271
           X            0.99996   0.00829  -0.00219
           Y           -0.00829   0.99996  -0.00277
           Z            0.00217   0.00279   0.99999
 This molecule is an asymmetric top.
 Rotational symmetry number  1.
 Warning -- assumption of classical behavior for rotation
           may cause significant error
 Rotational temperatures (Kelvin)      0.03095     0.01280     0.01056
 Rotational constants (GHZ):           0.64499     0.26666     0.22005
 Zero-point vibrational energy     924142.6 (Joules/Mol)
                                  220.87538 (Kcal/Mol)
 Warning -- explicit consideration of  26 degrees of freedom as
           vibrations may cause significant error
 Vibrational temperatures:     30.43    39.77    52.08    85.58   136.55
          (Kelvin)            167.04   178.77   205.13   226.69   262.88
                              278.67   282.44   343.16   376.55   415.35
                              426.48   454.43   481.14   518.50   539.68
                              595.51   615.84   627.07   649.70   724.12
                              768.72   902.96   987.82  1000.36  1034.14
                             1104.35  1146.10  1168.52  1195.60  1204.00
                             1252.59  1267.79  1271.46  1357.58  1366.78
                             1383.10  1456.04  1498.43  1506.28  1511.12
                             1522.49  1526.36  1538.92  1593.69  1594.69
                             1615.42  1623.47  1650.00  1671.34  1682.07
                             1697.42  1709.53  1730.75  1777.89  1814.77
                             1817.11  1854.98  1877.30  1895.99  1901.56
                             1914.09  1949.43  1967.83  1976.17  1986.60
                             2010.26  2021.66  2026.42  2034.66  2043.65
                             2057.95  2066.23  2080.27  2088.57  2112.83
                             2162.83  2164.49  2165.67  2177.18  2182.49
                             2187.30  2194.25  2197.71  2202.36  2207.97
                             2218.37  2226.82  4306.14  4339.68  4344.36
                             4357.32  4376.01  4385.88  4389.86  4414.55
                             4417.81  4426.14  4428.16  4435.65  4439.62
                             4443.79  4455.95  4475.98  4500.50  4506.36
                             4508.69  4549.09  4602.41  5376.60

 Zero-point correction=                           0.351987 (Hartree/Particle)
 Thermal correction to Energy=                    0.370105
 Thermal correction to Enthalpy=                  0.371049
 Thermal correction to Gibbs Free Energy=         0.304217
 Sum of electronic and zero-point Energies=           -839.634805
 Sum of electronic and thermal Energies=              -839.616688
 Sum of electronic and thermal Enthalpies=            -839.615744
 Sum of electronic and thermal Free Energies=         -839.682575

                     E (Thermal)             CV                S
                      KCal/Mol        Cal/Mol-Kelvin    Cal/Mol-Kelvin
 Total                  232.244             68.034            140.658
 Electronic               0.000              0.000              0.000
 Translational            0.889              2.981             42.499
 Rotational               0.889              2.981             33.407
 Vibrational            230.467             62.072             64.753
 Vibration     1          0.593              1.985              6.523
 Vibration     2          0.593              1.984              5.992
 Vibration     3          0.594              1.982              5.457
 Vibration     4          0.597              1.974              4.474
 Vibration     5          0.603              1.953              3.556
 Vibration     6          0.608              1.936              3.164
 Vibration     7          0.610              1.929              3.033
 Vibration     8          0.616              1.911              2.769
 Vibration     9          0.621              1.894              2.579
 Vibration    10          0.630              1.863              2.301
 Vibration    11          0.635              1.849              2.192
 Vibration    12          0.636              1.845              2.167
 Vibration    13          0.656              1.782              1.814
 Vibration    14          0.669              1.743              1.650
 Vibration    15          0.685              1.695              1.482
 Vibration    16          0.690              1.680              1.437
 Vibration    17          0.703              1.643              1.332
 Vibration    18          0.716              1.607              1.239
 Vibration    19          0.735              1.554              1.120
 Vibration    20          0.746              1.523              1.059
 Vibration    21          0.777              1.440              0.913
 Vibration    22          0.790              1.409              0.865
 Vibration    23          0.796              1.392              0.840
 Vibration    24          0.810              1.357              0.791
 Vibration    25          0.859              1.243              0.650
 Vibration    26          0.889              1.174              0.578

                           ! Non-Optimized Parameters !
 Normal termination of Gaussian 16 at Fri Dec 11 21:14:24 2020.

 ----------------------------------------------------------------------
 # B3LYP/6-311++G(d,p) empiricaldispersion=gd3bj scf=xqc pop=npa geom=c
 heck
 ----------------------------------------------------------------------

 ---------------------------------------
 CID_107048192_JID_8425_Energie_neutraal
 ---------------------------------------
 Structure from the checkpoint file:  "JID_8425.chk"
 Charge =  0 Multiplicity = 1

 SCF Done:  E(RB3LYP) =  -840.224341992     A.U. after   15 cycles
 Normal termination of Gaussian 16 at Fri Dec 11 21:23:26 2020.

 ----------------------------------------------------------------------
 # B3LYP/6-311++G(d,p) empiricaldispersion=gd3bj scf=xqc pop=npa geom=c
 heck
 ----------------------------------------------------------------------

 -------------------------------------
 CID_107048192_JID_8425_Energie_kation
 -------------------------------------
 Structure from the checkpoint file:  "JID_8425.chk"
 Charge =  1 Multiplicity = 2

 SCF Done:  E(UB3LYP) =  -839.905673314     A.U. after   30 cycles
 Normal termination of Gaussian 16 at Fri Dec 11 21:49:38 2020.
 Gaussian 16:  ES64L-G16RevA.03 25-Dec-2016

 ----------------------------------------------------------------------
 # B3LYP/6-311++G(d,p) empiricaldispersion=gd3bj scf=xqc pop=npa geom=c
 heck
 ----------------------------------------------------------------------

 ------------------------------------
 CID_107048192_JID_8425_Energie_anion
 ------------------------------------
 Structure from the checkpoint file:  "JID_8425.chk"
 Charge = -1 Multiplicity = 2

                         Standard orientation:
 ---------------------------------------------------------------------
 Center     Atomic      Atomic             Coordinates (Angstroms)
 Number     Number       Type             X           Y           Z
 ---------------------------------------------------------------------
      1          6           0        4.123408    2.261605    0.316936
      2          7           0        3.553322    0.937400    0.159952
      3          7           0        2.553172    0.667044   -0.676852
      4          6           0        2.382854   -0.642273   -0.479092
      5          7           0        3.250753   -1.131628    0.445732
      6          7           0        3.987845   -0.120095    0.840442
      7          6           0        1.327977   -1.460548   -1.141601
      8          6           0        0.123599   -1.770689   -0.220549
      9          6           0       -0.597545   -0.500812    0.269921
     10          6           0       -1.400775    0.217335   -0.857511
     11          6           0       -2.909642   -0.110275   -0.944568
     12          6           0       -3.768655    0.581195    0.127230
     13          6           0       -3.500983    2.091193    0.183999
     14          6           0       -2.004102    2.379706    0.355304
     15          6           0       -1.206371    1.746049   -0.790279
     16          8           0       -1.320788   -0.697061    1.487900
     17          6           0       -2.012864   -1.917834    1.707678
     18          8           0       -0.742940   -2.703870   -0.861042
     19          1           0        4.537191    2.599504   -0.635896
     20          1           0        3.348346    2.956735    0.647492
     21          1           0        4.910403    2.186999    1.066780
     22          1           0        0.993032   -0.937646   -2.043474
     23          1           0        1.750643   -2.421524   -1.448723
     24          1           0        0.512573   -2.294864    0.657494
     25          1           0        0.194007    0.190816    0.576340
     26          1           0       -0.952581   -0.103373   -1.810328
     27          1           0       -3.254822    0.232689   -1.930874
     28          1           0       -3.071713   -1.193560   -0.924018
     29          1           0       -3.553566    0.151822    1.108542
     30          1           0       -4.829013    0.393183   -0.084631
     31          1           0       -4.076445    2.542904    1.001512
     32          1           0       -3.851691    2.562987   -0.746363
     33          1           0       -1.662111    1.970508    1.314706
     34          1           0       -1.824395    3.461851    0.383028
     35          1           0       -0.136886    1.974315   -0.704126
     36          1           0       -1.545393    2.185302   -1.739945
     37          1           0       -2.811115   -2.097158    0.979636
     38          1           0       -1.344949   -2.786275    1.701621
     39          1           0       -2.454879   -1.822341    2.703347
     40          1           0       -1.123870   -2.262389   -1.636719
 ---------------------------------------------------------------------

 SCF Done:  E(UB3LYP) =  -840.215650259     A.U. after   33 cycles
 SCF Done:  E(UB3LYP) =  -840.215650259     a.u. after    1 cycles

 The electronic state is 2-A.
 Alpha  occ. eigenvalues --  -19.03673 -19.02817 -14.32444 -14.27083 -14.24706
 Alpha  occ. eigenvalues --  -14.23350 -10.13611 -10.13112 -10.12433 -10.12362
 Alpha  occ. eigenvalues --  -10.11724 -10.09175 -10.07843 -10.06894 -10.06468
 Alpha  occ. eigenvalues --  -10.06350 -10.06041 -10.05955  -1.03984  -0.94747
 Alpha  occ. eigenvalues --   -0.92983  -0.84508  -0.79498  -0.73689  -0.69845
 Alpha  occ. eigenvalues --   -0.66588  -0.64220  -0.64130  -0.61825  -0.57912
 Alpha  occ. eigenvalues --   -0.53823  -0.52315  -0.51605  -0.51063  -0.48782
 Alpha  occ. eigenvalues --   -0.44480  -0.42787  -0.42078  -0.41418  -0.39386
 Alpha  occ. eigenvalues --   -0.38229  -0.37386  -0.36911  -0.35596  -0.34071
 Alpha  occ. eigenvalues --   -0.34000  -0.33354  -0.32736  -0.32337  -0.31645
 Alpha  occ. eigenvalues --   -0.30493  -0.29877  -0.28390  -0.28003  -0.27387
 Alpha  occ. eigenvalues --   -0.26959  -0.26325  -0.24367  -0.23878  -0.23138
 Alpha  occ. eigenvalues --   -0.22393  -0.21643  -0.21255  -0.20718  -0.20049
 Alpha  occ. eigenvalues --   -0.19355  -0.18905  -0.17044  -0.15672   0.04179
 Alpha virt. eigenvalues --    0.05767   0.06241   0.07076   0.07463   0.08314
 Alpha virt. eigenvalues --    0.09069   0.09273   0.09840   0.09882   0.10414
 Alpha virt. eigenvalues --    0.10973   0.11406   0.11731   0.12195   0.12414

  Beta  occ. eigenvalues --  -19.03653 -19.02816 -14.32271 -14.26850 -14.24599
  Beta  occ. eigenvalues --  -14.23324 -10.13608 -10.13126 -10.12431 -10.12329
  Beta  occ. eigenvalues --  -10.11719 -10.09168 -10.07835 -10.06871 -10.06458
  Beta  occ. eigenvalues --  -10.06344 -10.06026 -10.05944  -1.03734  -0.94718
  Beta  occ. eigenvalues --   -0.92962  -0.84266  -0.79304  -0.73662  -0.69808
  Beta  occ. eigenvalues --   -0.66540  -0.64178  -0.64039  -0.61798  -0.57881
  Beta  occ. eigenvalues --   -0.53754  -0.52160  -0.51514  -0.51022  -0.48752
  Beta  occ. eigenvalues --   -0.44439  -0.42716  -0.41966  -0.40953  -0.39302
  Beta  occ. eigenvalues --   -0.38194  -0.37346  -0.36884  -0.35556  -0.34030
  Beta  occ. eigenvalues --   -0.33973  -0.33262  -0.32642  -0.32296  -0.31601
  Beta  occ. eigenvalues --   -0.30408  -0.29822  -0.28354  -0.27962  -0.27352
  Beta  occ. eigenvalues --   -0.26838  -0.26295  -0.24337  -0.23863  -0.23116
  Beta  occ. eigenvalues --   -0.22366  -0.21193  -0.20819  -0.20624  -0.19995
  Beta  occ. eigenvalues --   -0.19112  -0.18750  -0.16728  -0.15656
  Beta virt. eigenvalues --    0.06272   0.06872   0.07343   0.07615   0.07862
  Beta virt. eigenvalues --    0.08660   0.09251   0.09615   0.09911   0.10208
  Beta virt. eigenvalues --    0.10790   0.11120   0.11734   0.11839   0.12378

 Mulliken charges and spin densities:
               1          2
     1  C    0.883288  -1.179311
     2  N    0.009712   0.133101
     3  N   -0.130063   0.195383
     4  C   -0.751370  -0.238936
     5  N   -0.093061  -0.026387
     6  N    0.058790   0.135359
     7  C    0.067689   0.091068
     8  C   -0.498743  -0.358247
     9  C    0.212669  -0.395327
    10  C   -0.305821   1.002905
    11  C    0.358353  -0.896095
    12  C    0.034429  -0.210310
    13  C    0.153776  -0.738078
    14  C   -0.363618   0.221762
    15  C   -0.334370  -0.474125
    16  O   -0.021929   0.015613
    17  C   -0.195756  -0.051910
    18  O   -0.174715   0.018725
    19  H   -0.024631   0.194999
    20  H   -0.575676   0.771057
    21  H   -0.161326   0.328011
    22  H    0.116788   0.031995
    23  H    0.159010   0.059675
    24  H    0.213470  -0.004430
    25  H    0.312648  -0.005850
    26  H   -0.102165   0.299548
    27  H   -0.360456   0.527202
    28  H   -0.032024   0.142921
    29  H    0.203305  -0.084014
    30  H   -0.125064   0.288844
    31  H   -0.065472   0.226761
    32  H    0.126617  -0.007359
    33  H    0.058553   0.108297
    34  H   -0.232913   0.415829
    35  H    0.388777  -0.216792
    36  H   -0.209307   0.351356
    37  H    0.119709   0.041019
    38  H    0.114167   0.029203
    39  H    0.085439   0.057278
    40  H    0.081288   0.199259
 Sum of Mulliken charges =  -1.00000   1.00000

 Dipole moment (field-independent basis, Debye):
    X=             -1.3933    Y=             -3.6328    Z=             -0.3922  Tot=              3.9106
 Quadrupole moment (field-independent basis, Debye-Ang):
   XX=           -182.8770   YY=           -165.5589   ZZ=           -141.5902
   XY=             -1.2519   XZ=            -17.1774   YZ=             -4.9470

 Summary of Natural Population Analysis:

                                       Natural Population
                Natural  -----------------------------------------------
    Atom  No    Charge         Core      Valence    Rydberg      Total
 -----------------------------------------------------------------------
      C    1   -0.17733      0.99963     2.16992    0.00778     3.17733
      N    2    0.00682      0.99972     2.47781    0.01565     3.49318
      N    3   -0.14010      0.99969     2.62981    0.01061     3.64010
      C    4    0.14966      0.99966     1.83224    0.01844     2.85034
      N    5   -0.16085      0.99971     2.64781    0.01333     3.66085
      N    6   -0.00614      0.99977     2.49035    0.01603     3.50614
      C    7   -0.22137      0.99957     2.21212    0.00968     3.22137
      C    8    0.05685      0.99952     1.93005    0.01358     2.94315
      C    9    0.06075      0.99946     1.92465    0.01513     2.93925
      C   10   -0.12482      0.99956     2.11241    0.01285     3.12482
      C   11   -0.19312      0.99961     2.18283    0.01068     3.19312
      C   12   -0.19262      0.99962     2.18442    0.00859     3.19262
      C   13   -0.18722      0.99963     2.18014    0.00745     3.18722
      C   14   -0.19407      0.99962     2.18573    0.00871     3.19407
      C   15   -0.18859      0.99961     2.17975    0.00922     3.18859
      O   16   -0.30554      0.99988     3.29672    0.00894     4.30554
      C   17   -0.09904      0.99959     2.09144    0.00801     3.09904
      O   18   -0.37179      0.99990     3.36559    0.00631     4.37179
      H   19    0.10030      0.00000     0.39880    0.00090     0.39970
      H   20    0.11191      0.00000     0.38385    0.00424     0.38809
      H   21    0.10838      0.00000     0.39008    0.00153     0.39162
      H   22    0.10763      0.00000     0.39115    0.00122     0.39237
      H   23    0.11370      0.00000     0.38517    0.00113     0.38630
      H   24    0.09529      0.00000     0.40265    0.00206     0.40471
      H   25    0.10082      0.00000     0.39663    0.00255     0.39918
      H   26    0.09580      0.00000     0.40206    0.00214     0.40420
      H   27    0.09853      0.00000     0.40006    0.00141     0.40147
      H   28    0.09832      0.00000     0.40020    0.00148     0.40168
      H   29    0.09952      0.00000     0.39874    0.00174     0.40048
      H   30    0.09451      0.00000     0.40461    0.00088     0.40549
      H   31    0.09543      0.00000     0.40372    0.00085     0.40457
      H   32    0.09057      0.00000     0.40821    0.00123     0.40943
      H   33    0.09928      0.00000     0.39911    0.00161     0.40072
      H   34    0.09825      0.00000     0.40074    0.00101     0.40175
      H   35    0.10686      0.00000     0.39166    0.00148     0.39314
      H   36    0.09393      0.00000     0.40479    0.00128     0.40607
      H   37    0.08202      0.00000     0.41682    0.00116     0.41798
      H   38    0.08242      0.00000     0.41648    0.00110     0.41758
      H   39    0.08583      0.00000     0.41333    0.00085     0.41417
      H   40    0.22922      0.00000     0.26756    0.00321     0.27078
 =======================================================================
   * Total *   -0.00000     17.99375    50.77021    0.23604    69.00000

 Normal termination of Gaussian 16 at Fri Dec 11 22:18:42 2020.
