 Gaussian 16, Revision A.03,

 -----------------------------------------------------------
 # opt freq B3LYP/6-31G(d) empiricaldispersion=gd3bj scf=xqc
 -----------------------------------------------------------

 -------------------------------
 CID_118586698_JID_1335_neutraal
 -------------------------------
 Symbolic Z-matrix:
 Charge =  0 Multiplicity = 1

 SCF Done:  E(RB3LYP) =  -462.115482019     A.U. after   13 cycles
 SCF Done:  E(RB3LYP) =  -462.120240221     A.U. after   11 cycles
 SCF Done:  E(RB3LYP) =  -462.121476921     A.U. after   11 cycles
 SCF Done:  E(RB3LYP) =  -462.122418104     A.U. after   11 cycles
 SCF Done:  E(RB3LYP) =  -462.123236374     A.U. after   12 cycles
 SCF Done:  E(RB3LYP) =  -462.123732228     A.U. after   10 cycles
 SCF Done:  E(RB3LYP) =  -462.123975524     A.U. after   11 cycles
 SCF Done:  E(RB3LYP) =  -462.124056889     A.U. after   10 cycles
 SCF Done:  E(RB3LYP) =  -462.124082993     A.U. after   10 cycles
 SCF Done:  E(RB3LYP) =  -462.124091135     A.U. after    9 cycles
 SCF Done:  E(RB3LYP) =  -462.124091301     A.U. after    9 cycles
 SCF Done:  E(RB3LYP) =  -462.124092650     A.U. after    8 cycles
 Optimization completed.
    -- Stationary point found.

 1\1\GINC-NODE104\FOpt\RB3LYP\6-31G(d)\C9H16N2\VSC10255\08-Dec-2020\0\\
 # opt freq B3LYP/6-31G(d) empiricaldispersion=gd3bj scf=xqc\\CID_11858
 6698_JID_1335_neutraal\\0,1\C,1.0555426142,-0.0207978364,0.0458219224\
 C,0.6772626597,-0.8222160754,-1.167229261\C,0.1553999248,-0.3330581361
 ,-2.3183627789\N,0.0055595391,-1.1579557363,-3.4603432643\C,-1.2514926
 259,-1.1381554137,-4.2102914561\C,-1.0298622012,-2.2381547961,-5.24793
 49024\C,-0.303706681,-3.3224044656,-4.4324343109\C,0.4970599222,-2.541
 9445083,-3.3686494239\C,0.2994980376,-3.0806174248,-1.9473166491\N,1.0

 Normal termination of Gaussian 16 at Tue Dec  8 19:45:25 2020.

 --------------------------------------------------------------------
 #N Geom=AllCheck Guess=TCheck SCRF=Check GenChk RB3LYP/6-31G(d) Freq
 --------------------------------------------------------------------

 Structure from the checkpoint file:  "JID_1335.chk"
 -------------------------------
 CID_118586698_JID_1335_neutraal
 -------------------------------
 Charge =  0 Multiplicity = 1

 SCF Done:  E(RB3LYP) =  -462.124092650     A.U. after    1 cycles

  Exact polarizability: 127.655  -7.360 113.261  -0.081  -0.543  77.581
 Approx polarizability: 164.019 -20.174 167.359   0.230  -1.156 121.148

                      1                      2                      3
                      A                      A                      A
 Frequencies --     61.0931               110.9973               128.4954
 Red. masses --      2.4327                 2.5477                 1.1274
 Frc consts  --      0.0053                 0.0185                 0.0110
 IR Inten    --      1.1180                 1.3874                 0.1935

                      4                      5                      6
                      A                      A                      A
 Frequencies --    162.5691               181.7020               241.9073
 Red. masses --      1.0953                 2.2458                 2.0220
 Frc consts  --      0.0171                 0.0437                 0.0697
 IR Inten    --      0.6262                 2.1032                 3.2723

                      7                      8                      9
                      A                      A                      A
 Frequencies --    271.6380               301.4867               362.1277
 Red. masses --      2.7423                 2.2480                 2.6631
 Frc consts  --      0.1192                 0.1204                 0.2058
 IR Inten    --      0.3824                 2.8500                 1.2687

                     10                     11                     12
                      A                      A                      A
 Frequencies --    392.3816               402.6919               439.0768
 Red. masses --      2.9505                 2.7351                 3.9448
 Frc consts  --      0.2677                 0.2613                 0.4481
 IR Inten    --      7.8284                15.5130                 3.5996

                     13                     14                     15
                      A                      A                      A
 Frequencies --    492.6978               543.7191               572.3053
 Red. masses --      3.9072                 2.2292                 2.9092
 Frc consts  --      0.5588                 0.3883                 0.5614
 IR Inten    --      8.2904                21.1578                27.1931

                     16                     17                     18
                      A                      A                      A
 Frequencies --    592.7006               619.1548               707.3386
 Red. masses --      1.9188                 3.2618                 2.1026
 Frc consts  --      0.3971                 0.7367                 0.6198
 IR Inten    --     35.0487                39.3993                40.8301

                     19                     20                     21
                      A                      A                      A
 Frequencies --    737.1489               854.9435               879.3287
 Red. masses --      3.4444                 2.1753                 1.9263
 Frc consts  --      1.1027                 0.9368                 0.8776
 IR Inten    --      9.4311                11.4325                 3.3833

                     22                     23                     24
                      A                      A                      A
 Frequencies --    911.5918               931.1143               944.2861
 Red. masses --      1.5958                 2.3423                 2.5246
 Frc consts  --      0.7813                 1.1964                 1.3263
 IR Inten    --      2.5742                 4.5187                 2.0686

                     25                     26                     27
                      A                      A                      A
 Frequencies --    982.2524              1012.3560              1033.2100
 Red. masses --      1.7176                 1.6489                 1.5094
 Frc consts  --      0.9764                 0.9956                 0.9493
 IR Inten    --      1.1642                 0.3268                 3.0832

                     28                     29                     30
                      A                      A                      A
 Frequencies --   1063.3509              1071.6657              1078.7824
 Red. masses --      1.9959                 1.4498                 1.4678
 Frc consts  --      1.3296                 0.9810                 1.0064
 IR Inten    --      6.6099                 1.0194                 0.4165

                     31                     32                     33
                      A                      A                      A
 Frequencies --   1093.8636              1128.0489              1150.1833
 Red. masses --      2.3927                 1.9541                 2.0206
 Frc consts  --      1.6868                 1.4650                 1.5750
 IR Inten    --      6.3335                 2.2511                 3.2344

                     34                     35                     36
                      A                      A                      A
 Frequencies --   1182.2727              1199.1504              1210.1441
 Red. masses --      2.7874                 1.8187                 1.9992
 Frc consts  --      2.2956                 1.5408                 1.7250
 IR Inten    --     14.4764                43.5266                14.1299

                     37                     38                     39
                      A                      A                      A
 Frequencies --   1231.2917              1265.4718              1273.4128
 Red. masses --      1.4546                 1.3389                 2.8538
 Frc consts  --      1.2993                 1.2632                 2.7266
 IR Inten    --      3.4994                14.6455                39.7168

                     40                     41                     42
                      A                      A                      A
 Frequencies --   1297.2871              1318.9432              1339.8704
 Red. masses --      1.5112                 1.4635                 1.7788
 Frc consts  --      1.4985                 1.5000                 1.8815
 IR Inten    --     40.3261                 1.2385                13.3599

                     43                     44                     45
                      A                      A                      A
 Frequencies --   1352.9218              1367.8203              1378.5997
 Red. masses --      1.8493                 1.3581                 1.4776
 Frc consts  --      1.9944                 1.4971                 1.6545
 IR Inten    --     68.7408                29.8295                 0.9455

                     46                     47                     48
                      A                      A                      A
 Frequencies --   1397.7246              1408.0610              1436.4019
 Red. masses --      1.5156                 1.3860                 1.3503
 Frc consts  --      1.7446                 1.6190                 1.6415
 IR Inten    --     16.8430                25.3332                 1.5915

                     49                     50                     51
                      A                      A                      A
 Frequencies --   1456.0371              1499.5178              1507.3928
 Red. masses --      1.2545                 1.3442                 1.1089
 Frc consts  --      1.5670                 1.7807                 1.4845
 IR Inten    --      2.6640                20.8119                 5.0754

                     52                     53                     54
                      A                      A                      A
 Frequencies --   1513.1765              1515.5584              1524.5984
 Red. masses --      1.0594                 1.0926                 1.0639
 Frc consts  --      1.4292                 1.4786                 1.4571
 IR Inten    --     15.0421                 0.8698                 1.1061

                     55                     56                     57
                      A                      A                      A
 Frequencies --   1529.1588              1530.6007              1537.8425
 Red. masses --      1.0961                 1.1068                 1.0818
 Frc consts  --      1.5100                 1.5277                 1.5074
 IR Inten    --      5.5019                 2.6532                11.7018

                     58                     59                     60
                      A                      A                      A
 Frequencies --   1553.2890              1751.8323              2932.8510
 Red. masses --      1.0991                 6.2881                 1.0742
 Frc consts  --      1.5624                11.3698                 5.4440
 IR Inten    --      3.6081                16.3569                56.7628

                     61                     62                     63
                      A                      A                      A
 Frequencies --   2945.3644              3015.0130              3030.2763
 Red. masses --      1.0722                 1.0479                 1.0446
 Frc consts  --      5.4802                 5.6122                 5.6517
 IR Inten    --     90.2631                82.7734                38.5175

                     64                     65                     66
                      A                      A                      A
 Frequencies --   3044.5123              3051.4376              3057.9748
 Red. masses --      1.0843                 1.0697                 1.0955
 Frc consts  --      5.9214                 5.8686                 6.0358
 IR Inten    --     22.2403                36.5106                34.3649

                     67                     68                     69
                      A                      A                      A
 Frequencies --   3069.3817              3071.2706              3076.8262
 Red. masses --      1.0702                 1.0905                 1.0907
 Frc consts  --      5.9405                 6.0606                 6.0834
 IR Inten    --     16.0439                39.2418                53.3511

                     70                     71                     72
                      A                      A                      A
 Frequencies --   3098.8860              3112.4082              3123.1161
 Red. masses --      1.0869                 1.0963                 1.1056
 Frc consts  --      6.1498                 6.2573                 6.3538
 IR Inten    --     47.8728                35.7891                48.1157

                     73                     74                     75
                      A                      A                      A
 Frequencies --   3153.3173              3172.7472              3538.9458
 Red. masses --      1.0953                 1.0900                 1.0752
 Frc consts  --      6.4166                 6.4648                 7.9343
 IR Inten    --     17.4402                29.2525                 0.5174

 - Thermochemistry -
 -------------------
 Temperature   298.150 Kelvin.  Pressure   1.00000 Atm.
 Atom     1 has atomic number  6 and mass  12.00000

 Molecular mass:   152.13135 amu.
 Principal axes and moments of inertia in atomic units:
                           1         2         3
     Eigenvalues --   934.478371926.109712699.36831
           X            0.99991   0.01353  -0.00003
           Y           -0.01353   0.99990  -0.00302
           Z           -0.00001   0.00302   1.00000
 This molecule is an asymmetric top.
 Rotational symmetry number  1.
 Warning -- assumption of classical behavior for rotation
           may cause significant error
 Rotational temperatures (Kelvin)      0.09269     0.04497     0.03209
 Rotational constants (GHZ):           1.93128     0.93699     0.66858
 Zero-point vibrational energy     643165.7 (Joules/Mol)
                                  153.72030 (Kcal/Mol)
 Warning -- explicit consideration of  17 degrees of freedom as
           vibrations may cause significant error
 Vibrational temperatures:     87.90   159.70   184.88   233.90   261.43
          (Kelvin)            348.05   390.83   433.77   521.02   564.55
                              579.38   631.73   708.88   782.29   823.42
                              852.76   890.83  1017.70  1060.59  1230.07
                             1265.16  1311.58  1339.67  1358.62  1413.24
                             1456.55  1486.56  1529.92  1541.89  1552.13
                             1573.83  1623.01  1654.86  1701.03  1725.31
                             1741.13  1771.55  1820.73  1832.16  1866.51
                             1897.67  1927.77  1946.55  1967.99  1983.50
                             2011.01  2025.89  2066.66  2094.91  2157.47
                             2168.80  2177.12  2180.55  2193.56  2200.12
                             2202.19  2212.61  2234.84  2520.50  4219.72
                             4237.72  4337.93  4359.89  4380.37  4390.34
                             4399.74  4416.16  4418.87  4426.87  4458.61
                             4478.06  4493.47  4536.92  4564.88  5091.75

 Zero-point correction=                           0.244969 (Hartree/Particle)
 Thermal correction to Energy=                    0.255703
 Thermal correction to Enthalpy=                  0.256647
 Thermal correction to Gibbs Free Energy=         0.209076
 Sum of electronic and zero-point Energies=           -461.879124
 Sum of electronic and thermal Energies=              -461.868390
 Sum of electronic and thermal Enthalpies=            -461.867446
 Sum of electronic and thermal Free Energies=         -461.915017

                     E (Thermal)             CV                S
                      KCal/Mol        Cal/Mol-Kelvin    Cal/Mol-Kelvin
 Total                  160.456             41.968            100.122
 Electronic               0.000              0.000              0.000
 Translational            0.889              2.981             40.969
 Rotational               0.889              2.981             29.964
 Vibrational            158.679             36.007             29.190
 Vibration     1          0.597              1.973              4.422
 Vibration     2          0.607              1.940              3.251
 Vibration     3          0.611              1.925              2.968
 Vibration     4          0.623              1.888              2.520
 Vibration     5          0.630              1.865              2.311
 Vibration     6          0.658              1.776              1.789
 Vibration     7          0.675              1.726              1.586
 Vibration     8          0.693              1.671              1.409
 Vibration     9          0.736              1.550              1.113
 Vibration    10          0.760              1.486              0.991
 Vibration    11          0.768              1.464              0.953
 Vibration    12          0.799              1.385              0.830
 Vibration    13          0.848              1.266              0.677
 Vibration    14          0.899              1.153              0.557
 Vibration    15          0.929              1.091              0.500
 Vibration    16          0.950              1.047              0.462
 Vibration    17          0.979              0.991              0.418

                           ! Non-Optimized Parameters !

 1\1\GINC-NODE104\Freq\RB3LYP\6-31G(d)\C9H16N2\VSC10255\08-Dec-2020\0\\
 #N Geom=AllCheck Guess=TCheck SCRF=Check GenChk RB3LYP/6-31G(d) Freq\\
 CID_118586698_JID_1335_neutraal\\0,1\C,1.0555426142,-0.0207978364,0.04
 58219224\C,0.6772626597,-0.8222160754,-1.167229261\C,0.1553999248,-0.3
 330581361,-2.3183627789\N,0.0055595391,-1.1579557363,-3.4603432643\C,-
 1.2514926259,-1.1381554137,-4.2102914561\C,-1.0298622012,-2.2381547961
 ,-5.2479349024\C,-0.303706681,-3.3224044656,-4.4324343109\C,0.49705992
 22,-2.5419445083,-3.3686494239\C,0.2994980376,-3.0806174248,-1.9473166

 Normal termination of Gaussian 16 at Tue Dec  8 19:51:54 2020.

 ----------------------------------------------------------------------
 # B3LYP/6-311++G(d,p) empiricaldispersion=gd3bj scf=xqc pop=npa geom=c
 heck
 ----------------------------------------------------------------------

 ---------------------------------------
 CID_118586698_JID_1335_Energie_neutraal
 ---------------------------------------
 Structure from the checkpoint file:  "JID_1335.chk"
 Charge =  0 Multiplicity = 1

 SCF Done:  E(RB3LYP) =  -462.251194006     A.U. after   13 cycles
 Normal termination of Gaussian 16 at Tue Dec  8 19:54:43 2020.

 ----------------------------------------------------------------------
 # B3LYP/6-311++G(d,p) empiricaldispersion=gd3bj scf=xqc pop=npa geom=c
 heck
 ----------------------------------------------------------------------

 -------------------------------------
 CID_118586698_JID_1335_Energie_kation
 -------------------------------------
 Structure from the checkpoint file:  "JID_1335.chk"
 Charge =  1 Multiplicity = 2

 SCF Done:  E(UB3LYP) =  -462.017189893     A.U. after   17 cycles
 Normal termination of Gaussian 16 at Tue Dec  8 19:59:59 2020.
 Gaussian 16:  ES64L-G16RevA.03 25-Dec-2016

 ------------------------------------
 CID_118586698_JID_1335_Energie_anion
 ------------------------------------
 Structure from the checkpoint file:  "JID_1335.chk"
 Charge = -1 Multiplicity = 2

                         Standard orientation:
 ---------------------------------------------------------------------
 Center     Atomic      Atomic             Coordinates (Angstroms)
 Number     Number       Type             X           Y           Z
 ---------------------------------------------------------------------
      1          6           0        3.223876   -0.129903    0.041030
      2          6           0        1.727280   -0.251252   -0.007275
      3          6           0        0.844243    0.772659   -0.099893
      4          7           0       -0.534246    0.530172   -0.318971
      5          6           0       -1.532433    1.235480    0.486733
      6          6           0       -2.839508    0.594279    0.021720
      7          6           0       -2.450880   -0.888098   -0.117799
      8          6           0       -0.957494   -0.866606   -0.506796
      9          6           0       -0.095780   -1.800506    0.350332
     10          7           0        1.288055   -1.600031   -0.037047
     11          6           0        1.212942    2.231815   -0.091322
     12          1           0        3.622862   -0.489138    1.001747
     13          1           0        3.575220    0.892693   -0.096829
     14          1           0        3.677836   -0.749275   -0.744845
     15          1           0       -1.386884    1.077630    1.572728
     16          1           0       -1.495895    2.312913    0.300093
     17          1           0       -3.665422    0.756808    0.720667
     18          1           0       -3.125591    1.009251   -0.950789
     19          1           0       -2.573905   -1.396458    0.846924
     20          1           0       -3.061947   -1.424792   -0.848901
     21          1           0       -0.805625   -1.140487   -1.558021
     22          1           0       -0.372797   -2.848497    0.187210
     23          1           0       -0.282873   -1.556920    1.412894
     24          1           0        1.924970   -2.215091    0.458834
     25          1           0        0.787186    2.737937   -0.967652
     26          1           0        0.820664    2.745317    0.797235
     27          1           0        2.292062    2.389906   -0.099551
 ---------------------------------------------------------------------

 SCF Done:  E(UB3LYP) =  -462.233334097     A.U. after   32 cycles

 The electronic state is 2-A.
 Alpha  occ. eigenvalues --  -14.19900 -14.19832 -10.09026 -10.08563 -10.08291
 Alpha  occ. eigenvalues --  -10.07794 -10.07501 -10.06417 -10.06390 -10.05749
 Alpha  occ. eigenvalues --  -10.05543  -0.84682  -0.79702  -0.70092  -0.65571
 Alpha  occ. eigenvalues --   -0.62927  -0.60778  -0.56167  -0.52981  -0.48371
 Alpha  occ. eigenvalues --   -0.48065  -0.41590  -0.40061  -0.37930  -0.37502
 Alpha  occ. eigenvalues --   -0.33407  -0.32640  -0.31867  -0.30544  -0.30188
 Alpha  occ. eigenvalues --   -0.29336  -0.28797  -0.27479  -0.27332  -0.26019
 Alpha  occ. eigenvalues --   -0.23943  -0.23855  -0.23179  -0.22410  -0.18542
 Alpha  occ. eigenvalues --   -0.13448  -0.06048   0.04776
 Alpha virt. eigenvalues --    0.06802   0.07259   0.08196   0.08953   0.09160
 Alpha virt. eigenvalues --    0.10167   0.10595   0.10847   0.11621   0.11902
 Alpha virt. eigenvalues --    0.12209   0.13387   0.13847   0.14033   0.15349

  Beta  occ. eigenvalues --  -14.19898 -14.19808 -10.09022 -10.08543 -10.08266
  Beta  occ. eigenvalues --  -10.07793 -10.07498 -10.06399 -10.06371 -10.05714
  Beta  occ. eigenvalues --  -10.05520  -0.84666  -0.79674  -0.70068  -0.65537
  Beta  occ. eigenvalues --   -0.62891  -0.60736  -0.56111  -0.52926  -0.48327
  Beta  occ. eigenvalues --   -0.48004  -0.41550  -0.40021  -0.37878  -0.37463
  Beta  occ. eigenvalues --   -0.33375  -0.32586  -0.31841  -0.30504  -0.30153
  Beta  occ. eigenvalues --   -0.29301  -0.28762  -0.27448  -0.27294  -0.25983
  Beta  occ. eigenvalues --   -0.23908  -0.23820  -0.23149  -0.22376  -0.18514
  Beta  occ. eigenvalues --   -0.13427  -0.06025
  Beta virt. eigenvalues --    0.06986   0.07723   0.08145   0.08753   0.09512
  Beta virt. eigenvalues --    0.09822   0.10792   0.10902   0.11264   0.12083
  Beta virt. eigenvalues --    0.12372   0.12608   0.13746   0.14245   0.14470

 Mulliken charges and spin densities:
               1          2
     1  C    1.363226  -2.045372
     2  C   -0.717717   0.763269
     3  C   -0.805908   1.067153
     4  N    0.153967   0.051101
     5  C    0.809476  -1.089576
     6  C   -0.213287  -0.149316
     7  C    0.516903  -1.045385
     8  C   -1.658496   1.914114
     9  C    1.578819  -2.125657
    10  N   -0.350192   0.319363
    11  C    0.923565  -1.758970
    12  H   -0.408065   0.566148
    13  H   -0.073594   0.194621
    14  H   -0.155758   0.296076
    15  H   -0.087389   0.228161
    16  H   -0.062753   0.214682
    17  H   -0.455813   0.609141
    18  H    0.043550   0.098933
    19  H   -0.021865   0.161149
    20  H   -0.254070   0.397253
    21  H    0.045209   0.164797
    22  H   -0.494397   0.665539
    23  H   -0.212524   0.366347
    24  H   -0.100417   0.349241
    25  H   -0.027318   0.185986
    26  H   -0.119098   0.279728
    27  H   -0.216052   0.321474
 Sum of Mulliken charges =  -1.00000   1.00000

 Dipole moment (field-independent basis, Debye):
    X=             -1.0537    Y=              1.5726    Z=             -2.0360  Tot=              2.7801
 Quadrupole moment (field-independent basis, Debye-Ang):
   XX=           -129.2411   YY=           -115.8794   ZZ=           -100.9327
   XY=              2.3862   XZ=             -0.2537   YZ=              0.5526

 Summary of Natural Population Analysis:

                                       Natural Population
                Natural  -----------------------------------------------
    Atom  No    Charge         Core      Valence    Rydberg      Total
 -----------------------------------------------------------------------
      C    1   -0.29479      0.99963     2.28938    0.00578     3.29479
      C    2    0.05746      0.99944     1.93172    0.01137     2.94254
      C    3    0.05241      0.99943     1.93451    0.01365     2.94759
      N    4   -0.27146      0.99967     2.75977    0.01202     3.77146
      C    5   -0.08266      0.99962     2.07155    0.01149     3.08266
      C    6   -0.19197      0.99963     2.18398    0.00836     3.19197
      C    7   -0.19249      0.99962     2.18468    0.00819     3.19249
      C    8   -0.00246      0.99960     1.98985    0.01302     3.00246
      C    9   -0.08993      0.99959     2.07850    0.01184     3.08993
      N   10   -0.32579      0.99969     2.81318    0.01292     3.82579
      C   11   -0.29372      0.99964     2.28855    0.00553     3.29372
      H   12    0.10079      0.00000     0.39724    0.00197     0.39921
      H   13    0.10312      0.00000     0.39587    0.00101     0.39688
      H   14    0.10021      0.00000     0.39822    0.00157     0.39979
      H   15    0.08084      0.00000     0.41717    0.00199     0.41916
      H   16    0.09692      0.00000     0.40153    0.00156     0.40308
      H   17    0.10070      0.00000     0.39804    0.00126     0.39930
      H   18    0.09578      0.00000     0.40292    0.00129     0.40422
      H   19    0.09731      0.00000     0.40107    0.00162     0.40269
      H   20    0.10177      0.00000     0.39716    0.00107     0.39823
      H   21    0.09459      0.00000     0.40355    0.00186     0.40541
      H   22    0.09677      0.00000     0.40159    0.00163     0.40323
      H   23    0.08217      0.00000     0.41559    0.00224     0.41783
      H   24    0.18309      0.00000     0.31301    0.00390     0.31691
      H   25    0.09922      0.00000     0.39938    0.00141     0.40078
      H   26    0.09970      0.00000     0.39874    0.00156     0.40030
      H   27    0.10242      0.00000     0.39671    0.00087     0.39758
 =======================================================================
   * Total *    0.00000     10.99557    30.86345    0.14097    42.00000

 Normal termination of Gaussian 16 at Tue Dec  8 20:09:12 2020.
