 Gaussian 16, Revision A.03,

 -----------------------------------------------------------
 # opt freq B3LYP/6-31G(d) empiricaldispersion=gd3bj scf=xqc
 -----------------------------------------------------------

 ------------------------------
 CID_11571948_JID_4642_neutraal
 ------------------------------
 Symbolic Z-matrix:
 Charge =  0 Multiplicity = 1

 SCF Done:  E(RB3LYP) =  -653.274835178     A.U. after   14 cycles
 SCF Done:  E(RB3LYP) =  -653.278833557     A.U. after   12 cycles
 SCF Done:  E(RB3LYP) =  -653.279219499     A.U. after   11 cycles
 SCF Done:  E(RB3LYP) =  -653.279346342     A.U. after   11 cycles
 SCF Done:  E(RB3LYP) =  -653.279440631     A.U. after   11 cycles
 SCF Done:  E(RB3LYP) =  -653.279462037     A.U. after   11 cycles
 SCF Done:  E(RB3LYP) =  -653.279481161     A.U. after   11 cycles
 SCF Done:  E(RB3LYP) =  -653.279485696     A.U. after   10 cycles
 SCF Done:  E(RB3LYP) =  -653.279488082     A.U. after    9 cycles
 SCF Done:  E(RB3LYP) =  -653.279488666     A.U. after    8 cycles
 SCF Done:  E(RB3LYP) =  -653.279488803     A.U. after    7 cycles
 SCF Done:  E(RB3LYP) =  -653.279488844     A.U. after    7 cycles
 Optimization completed.
    -- Stationary point found.
 Normal termination of Gaussian 16 at Thu Dec 10 10:17:17 2020.

 --------------------------------------------------------------------
 #N Geom=AllCheck Guess=TCheck SCRF=Check GenChk RB3LYP/6-31G(d) Freq
 --------------------------------------------------------------------

 Structure from the checkpoint file:  "JID_4642.chk"
 ------------------------------
 CID_11571948_JID_4642_neutraal
 ------------------------------
 Charge =  0 Multiplicity = 1

 SCF Done:  E(RB3LYP) =  -653.279488844     A.U. after    1 cycles

  Exact polarizability: 164.728   4.445 124.727   7.720  -7.690  82.700
 Approx polarizability: 224.877  19.314 208.821  16.524 -21.103 127.511

                      1                      2                      3
                      A                      A                      A
 Frequencies --     19.0812                34.5691                54.6996
 Red. masses --      5.0517                 4.5589                 3.6128
 Frc consts  --      0.0011                 0.0032                 0.0064
 IR Inten    --      0.4501                 0.3029                 0.4466

                      4                      5                      6
                      A                      A                      A
 Frequencies --     67.5169               141.3838               173.2807
 Red. masses --      4.1534                 4.7849                 1.2224
 Frc consts  --      0.0112                 0.0564                 0.0216
 IR Inten    --      3.1003                 0.5372                 1.0417

                      7                      8                      9
                      A                      A                      A
 Frequencies --    200.8174               211.9050               236.3544
 Red. masses --      2.0033                 1.6741                 2.3407
 Frc consts  --      0.0476                 0.0443                 0.0770
 IR Inten    --     74.5372                77.6435                16.4073

                     10                     11                     12
                      A                      A                      A
 Frequencies --    255.0571               287.1195               319.2339
 Red. masses --      3.3048                 3.5785                 5.0131
 Frc consts  --      0.1267                 0.1738                 0.3010
 IR Inten    --      0.9977                 4.2684                 3.5031

                     13                     14                     15
                      A                      A                      A
 Frequencies --    329.6323               350.1152               365.3118
 Red. masses --      3.1734                 1.6571                 1.9385
 Frc consts  --      0.2032                 0.1197                 0.1524
 IR Inten    --      6.9999                43.1445                45.6440

                     16                     17                     18
                      A                      A                      A
 Frequencies --    435.5249               442.2949               484.1507
 Red. masses --      1.4643                 1.3771                 3.2149
 Frc consts  --      0.1636                 0.1587                 0.4440
 IR Inten    --     20.2721                75.4263                 1.8467

                     19                     20                     21
                      A                      A                      A
 Frequencies --    497.4470               545.1029               555.6205
 Red. masses --      4.9586                 3.6257                 3.9738
 Frc consts  --      0.7229                 0.6347                 0.7228
 IR Inten    --      2.0480                 8.9649                 0.5632

                     22                     23                     24
                      A                      A                      A
 Frequencies --    569.4943               585.3614               607.4595
 Red. masses --      4.7207                 3.9527                 4.9884
 Frc consts  --      0.9021                 0.7980                 1.0845
 IR Inten    --      9.0298                 1.1439                 2.9318

                     25                     26                     27
                      A                      A                      A
 Frequencies --    702.4297               722.4598               761.8312
 Red. masses --      5.3326                 3.4410                 1.4887
 Frc consts  --      1.5502                 1.0582                 0.5091
 IR Inten    --      5.2447                 9.7134                36.9990

                     28                     29                     30
                      A                      A                      A
 Frequencies --    812.5871               845.0380               863.8329
 Red. masses --      2.8508                 4.7264                 1.3809
 Frc consts  --      1.1091                 1.9885                 0.6071
 IR Inten    --      5.4814                12.8702                 0.2688

                     31                     32                     33
                      A                      A                      A
 Frequencies --    897.2635               933.7064               946.4067
 Red. masses --      1.6679                 1.2458                 1.7534
 Frc consts  --      0.7912                 0.6399                 0.9253
 IR Inten    --      8.5330                 0.8146                 6.3951

                     34                     35                     36
                      A                      A                      A
 Frequencies --    965.8930               998.0790              1029.7003
 Red. masses --      1.4818                 2.9969                 2.2581
 Frc consts  --      0.8145                 1.7590                 1.4106
 IR Inten    --     33.1908                79.0541                64.7451

                     37                     38                     39
                      A                      A                      A
 Frequencies --   1051.9700              1082.4703              1103.8324
 Red. masses --      4.6551                 1.5125                 1.8328
 Frc consts  --      3.0352                 1.0442                 1.3158
 IR Inten    --     77.8963                 0.7514                 7.7727

                     40                     41                     42
                      A                      A                      A
 Frequencies --   1113.6668              1181.2721              1183.9818
 Red. masses --      2.1643                 1.4292                 1.3558
 Frc consts  --      1.5815                 1.1750                 1.1198
 IR Inten    --     30.9966                 6.5727                89.2347

                     43                     44                     45
                      A                      A                      A
 Frequencies --   1195.7631              1218.8258              1254.2511
 Red. masses --      1.2028                 1.1858                 1.9539
 Frc consts  --      1.0133                 1.0379                 1.8110
 IR Inten    --     11.9715                 5.9011                22.0727

                     46                     47                     48
                      A                      A                      A
 Frequencies --   1270.7334              1290.8490              1330.9154
 Red. masses --      2.2576                 2.4617                 2.9778
 Frc consts  --      2.1479                 2.4168                 3.1078
 IR Inten    --     14.9815                35.1689               186.8059

                     49                     50                     51
                      A                      A                      A
 Frequencies --   1340.3695              1367.5603              1375.1340
 Red. masses --      1.4634                 1.4872                 1.2716
 Frc consts  --      1.5491                 1.6387                 1.4167
 IR Inten    --      5.4592                83.9844                17.6745

                     52                     53                     54
                      A                      A                      A
 Frequencies --   1404.2501              1415.5235              1430.8421
 Red. masses --      1.3351                 2.6518                 1.3409
 Frc consts  --      1.5511                 3.1306                 1.6175
 IR Inten    --     16.6815                29.2920                33.0858

                     55                     56                     57
                      A                      A                      A
 Frequencies --   1442.8147              1503.9957              1508.9064
 Red. masses --      1.2495                 1.0563                 1.0946
 Frc consts  --      1.5325                 1.4077                 1.4683
 IR Inten    --     38.2986                 4.6707                 5.7986

                     58                     59                     60
                      A                      A                      A
 Frequencies --   1527.7166              1527.9520              1542.2382
 Red. masses --      1.1132                 2.5532                 1.1031
 Frc consts  --      1.5308                 3.5120                 1.5458
 IR Inten    --     26.5847                60.6711                 0.6228

                     61                     62                     63
                      A                      A                      A
 Frequencies --   1558.7142              1660.2389              1683.2743
 Red. masses --      3.0280                 6.8282                 6.2817
 Frc consts  --      4.3345                11.0891                10.4867
 IR Inten    --     34.7659                16.3128                21.8376

                     64                     65                     66
                      A                      A                      A
 Frequencies --   1749.7836              3033.5418              3039.6851
 Red. masses --      6.7591                 1.0435                 1.0605
 Frc consts  --     12.1929                 5.6577                 5.7731
 IR Inten    --      0.5610                40.8204                41.3844

                     67                     68                     69
                      A                      A                      A
 Frequencies --   3056.7607              3082.8816              3092.5153
 Red. masses --      1.0655                 1.1022                 1.0921
 Frc consts  --      5.8660                 6.1719                 6.1536
 IR Inten    --     16.0034                47.3587                21.6398

                     70                     71                     72
                      A                      A                      A
 Frequencies --   3115.4169              3130.9942              3162.1505
 Red. masses --      1.0958                 1.1026                 1.0885
 Frc consts  --      6.2665                 6.3683                 6.4130
 IR Inten    --     13.7729                17.8339                18.4878

                     73                     74                     75
                      A                      A                      A
 Frequencies --   3172.7285              3186.8104              3210.5796
 Red. masses --      1.0885                 1.0886                 1.0954
 Frc consts  --      6.4560                 6.5138                 6.6528
 IR Inten    --     12.8766                14.2293                18.4113

                     76                     77                     78
                      A                      A                      A
 Frequencies --   3717.0835              3731.7049              3775.4561
 Red. masses --      1.0651                 1.0661                 1.0663
 Frc consts  --      8.6702                 8.7472                 8.9549
 IR Inten    --     91.4710                 9.3026                63.7429

 - Thermochemistry -
 -------------------
 Temperature   298.150 Kelvin.  Pressure   1.00000 Atm.
 Atom     1 has atomic number  6 and mass  12.00000

 Molecular mass:   194.09429 amu.
 Principal axes and moments of inertia in atomic units:
                           1         2         3
     Eigenvalues --  1313.976645442.861566091.71199
           X            0.99995  -0.00937  -0.00222
           Y            0.00940   0.99985   0.01465
           Z            0.00208  -0.01467   0.99989
 This molecule is an asymmetric top.
 Rotational symmetry number  1.
 Warning -- assumption of classical behavior for rotation
           may cause significant error
 Rotational temperatures (Kelvin)      0.06592     0.01591     0.01422
 Rotational constants (GHZ):           1.37350     0.33158     0.29626
 Zero-point vibrational energy     610537.6 (Joules/Mol)
                                  145.92199 (Kcal/Mol)
 Warning -- explicit consideration of  24 degrees of freedom as
           vibrations may cause significant error
 Vibrational temperatures:     27.45    49.74    78.70    97.14   203.42
          (Kelvin)            249.31   288.93   304.88   340.06   366.97
                              413.10   459.31   474.27   503.74   525.60
                              626.62   636.36   696.58   715.72   784.28
                              799.41   819.38   842.20   874.00  1010.64
                             1039.46  1096.11  1169.13  1215.82  1242.86
                             1290.96  1343.40  1361.67  1389.70  1436.01
                             1481.51  1513.55  1557.43  1588.17  1602.32
                             1699.59  1703.49  1720.44  1753.62  1804.59
                             1828.30  1857.24  1914.89  1928.49  1967.61
                             1978.51  2020.40  2036.62  2058.66  2075.89
                             2163.91  2170.98  2198.04  2198.38  2218.94
                             2242.64  2388.71  2421.86  2517.55  4364.59
                             4373.43  4398.00  4435.58  4449.44  4482.39
                             4504.80  4549.63  4564.85  4585.11  4619.31
                             5348.05  5369.09  5432.04

 Zero-point correction=                           0.232541 (Hartree/Particle)
 Thermal correction to Energy=                    0.247004
 Thermal correction to Enthalpy=                  0.247949
 Thermal correction to Gibbs Free Energy=         0.189755
 Sum of electronic and zero-point Energies=           -653.046947
 Sum of electronic and thermal Energies=              -653.032484
 Sum of electronic and thermal Enthalpies=            -653.031540
 Sum of electronic and thermal Free Energies=         -653.089734

                     E (Thermal)             CV                S
                      KCal/Mol        Cal/Mol-Kelvin    Cal/Mol-Kelvin
 Total                  154.998             54.221            122.478
 Electronic               0.000              0.000              0.000
 Translational            0.889              2.981             41.695
 Rotational               0.889              2.981             32.144
 Vibrational            153.220             48.259             48.640
 Vibration     1          0.593              1.986              6.728
 Vibration     2          0.594              1.983              5.548
 Vibration     3          0.596              1.976              4.640
 Vibration     4          0.598              1.970              4.224
 Vibration     5          0.615              1.912              2.785
 Vibration     6          0.627              1.875              2.400
 Vibration     7          0.638              1.839              2.126
 Vibration     8          0.643              1.823              2.027
 Vibration     9          0.655              1.785              1.830
 Vibration    10          0.665              1.754              1.695
 Vibration    11          0.684              1.698              1.491
 Vibration    12          0.705              1.637              1.314
 Vibration    13          0.712              1.616              1.262
 Vibration    14          0.727              1.575              1.166
 Vibration    15          0.739              1.544              1.099
 Vibration    16          0.796              1.393              0.841
 Vibration    17          0.802              1.378              0.819
 Vibration    18          0.840              1.285              0.699
 Vibration    19          0.853              1.256              0.665
 Vibration    20          0.900              1.150              0.554
 Vibration    21          0.911              1.127              0.533
 Vibration    22          0.926              1.097              0.505
 Vibration    23          0.942              1.063              0.476
 Vibration    24          0.966              1.016              0.437

                           ! Non-Optimized Parameters !
 Normal termination of Gaussian 16 at Thu Dec 10 10:24:33 2020.

 ----------------------------------------------------------------------
 # B3LYP/6-311++G(d,p) empiricaldispersion=gd3bj scf=xqc pop=npa geom=c
 heck
 ----------------------------------------------------------------------

 --------------------------------------
 CID_11571948_JID_4642_Energie_neutraal
 --------------------------------------
 Structure from the checkpoint file:  "JID_4642.chk"
 Charge =  0 Multiplicity = 1

 SCF Done:  E(RB3LYP) =  -653.489709219     A.U. after   15 cycles
 Normal termination of Gaussian 16 at Thu Dec 10 10:27:59 2020.

 ----------------------------------------------------------------------
 # B3LYP/6-311++G(d,p) empiricaldispersion=gd3bj scf=xqc pop=npa geom=c
 heck
 ----------------------------------------------------------------------

 ------------------------------------
 CID_11571948_JID_4642_Energie_kation
 ------------------------------------
 Structure from the checkpoint file:  "JID_4642.chk"
 Charge =  1 Multiplicity = 2

 SCF Done:  E(UB3LYP) =  -653.198325332     A.U. after   27 cycles
 Normal termination of Gaussian 16 at Thu Dec 10 10:36:52 2020.
 Gaussian 16:  ES64L-G16RevA.03 25-Dec-2016

 ----------------------------------------------------------------------
 # B3LYP/6-311++G(d,p) empiricaldispersion=gd3bj scf=xqc pop=npa geom=c
 heck
 ----------------------------------------------------------------------

 -----------------------------------
 CID_11571948_JID_4642_Energie_anion
 -----------------------------------
 Structure from the checkpoint file:  "JID_4642.chk"
 Charge = -1 Multiplicity = 2

                         Standard orientation:
 ---------------------------------------------------------------------
 Center     Atomic      Atomic             Coordinates (Angstroms)
 Number     Number       Type             X           Y           Z
 ---------------------------------------------------------------------
      1          6           0        3.292196   -1.279531   -1.411097
      2          6           0        2.566416   -0.428876   -0.398389
      3          6           0        1.437993   -0.851873    0.189935
      4          6           0        0.583906   -0.126441    1.203256
      5          6           0       -0.714160    0.354672    0.585551
      6          6           0       -1.753098   -0.550945    0.361421
      7          6           0       -2.948557   -0.125606   -0.235787
      8          6           0       -3.116938    1.199525   -0.619636
      9          6           0       -2.079478    2.110480   -0.402552
     10          6           0       -0.893766    1.686338    0.191958
     11          8           0       -3.896875   -1.114598   -0.396019
     12          8           0       -1.599744   -1.860284    0.728966
     13          6           0        3.233686    0.891723   -0.100528
     14          8           0        4.544760    0.720111    0.450213
     15          1           0        2.819433   -2.258710   -1.532306
     16          1           0        4.336784   -1.425685   -1.113660
     17          1           0        3.312881   -0.784798   -2.392331
     18          1           0        1.038436   -1.820679   -0.107686
     19          1           0        0.354132   -0.816703    2.024171
     20          1           0        1.109545    0.728371    1.636741
     21          1           0       -4.049192    1.515835   -1.082974
     22          1           0       -2.203757    3.147401   -0.698639
     23          1           0       -0.086981    2.394715    0.359741
     24          1           0       -4.688093   -0.739161   -0.809405
     25          1           0       -2.426006   -2.320491    0.502757
     26          1           0        3.392569    1.448071   -1.031765
     27          1           0        2.616817    1.522577    0.552208
     28          1           0        4.439096    0.170616    1.243083
 ---------------------------------------------------------------------

 SCF Done:  E(UB3LYP) =  -653.481982133     A.U. after   33 cycles
 SCF Done:  E(UB3LYP) =  -653.481982133     a.u. after    1 cycles

 The electronic state is 2-A.
 Alpha  occ. eigenvalues --  -19.05246 -19.05212 -19.03225 -10.13202 -10.12874
 Alpha  occ. eigenvalues --  -10.12567 -10.08256 -10.08187 -10.08053 -10.07562
 Alpha  occ. eigenvalues --  -10.07398 -10.07280 -10.07172 -10.07014  -0.97511
 Alpha  occ. eigenvalues --   -0.94672  -0.93127  -0.75721  -0.72118  -0.67698
 Alpha  occ. eigenvalues --   -0.63782  -0.61875  -0.59388  -0.55631  -0.52992
 Alpha  occ. eigenvalues --   -0.50467  -0.45118  -0.44648  -0.42809  -0.40261
 Alpha  occ. eigenvalues --   -0.39253  -0.36900  -0.36461  -0.35377  -0.34559
 Alpha  occ. eigenvalues --   -0.33151  -0.32326  -0.31430  -0.30712  -0.30264
 Alpha  occ. eigenvalues --   -0.28923  -0.27860  -0.26865  -0.26418  -0.25790
 Alpha  occ. eigenvalues --   -0.24928  -0.24256  -0.22885  -0.18859  -0.15704
 Alpha  occ. eigenvalues --   -0.13607  -0.11670   0.04162
 Alpha virt. eigenvalues --    0.05662   0.07353   0.07520   0.08383   0.08622
 Alpha virt. eigenvalues --    0.09023   0.10005   0.10118   0.10421   0.10969
 Alpha virt. eigenvalues --    0.11311   0.11978   0.12053   0.13230   0.13844

  Beta  occ. eigenvalues --  -19.05224 -19.05125 -19.03194 -10.13197 -10.12865
  Beta  occ. eigenvalues --  -10.12552 -10.08256 -10.08182 -10.08042 -10.07532
  Beta  occ. eigenvalues --  -10.07387 -10.07276 -10.07134 -10.07006  -0.97424
  Beta  occ. eigenvalues --   -0.94550  -0.93055  -0.75684  -0.72079  -0.67660
  Beta  occ. eigenvalues --   -0.63722  -0.61831  -0.59337  -0.55577  -0.52904
  Beta  occ. eigenvalues --   -0.50431  -0.45057  -0.44593  -0.42717  -0.40216
  Beta  occ. eigenvalues --   -0.39197  -0.36854  -0.36421  -0.35340  -0.34514
  Beta  occ. eigenvalues --   -0.33101  -0.32272  -0.31408  -0.30661  -0.30237
  Beta  occ. eigenvalues --   -0.28904  -0.27819  -0.26818  -0.26381  -0.25756
  Beta  occ. eigenvalues --   -0.24881  -0.24223  -0.22844  -0.18828  -0.15616
  Beta  occ. eigenvalues --   -0.13551  -0.11625
  Beta virt. eigenvalues --    0.06203   0.07414   0.07602   0.07833   0.08635
  Beta virt. eigenvalues --    0.09069   0.09260   0.10050   0.10433   0.10625
  Beta virt. eigenvalues --    0.10995   0.11340   0.12054   0.12568   0.13456

 Mulliken charges and spin densities:
               1          2
     1  C   -0.361482  -0.189734
     2  C   -0.770757   1.087846
     3  C    0.606904  -1.063155
     4  C    1.930731  -1.708984
     5  C    0.002960   1.212201
     6  C    0.572111  -1.261295
     7  C    0.647523  -1.088805
     8  C    0.174907  -0.123773
     9  C    0.288346  -0.664703
    10  C   -2.307493   1.789805
    11  O   -0.305154   0.009903
    12  O   -0.277682   0.014455
    13  C    0.149854  -0.709677
    14  O   -0.243448   0.024041
    15  H   -0.014395   0.158047
    16  H    0.099806   0.043248
    17  H    0.067768   0.064825
    18  H    0.232926  -0.038503
    19  H   -0.072624   0.285168
    20  H   -0.090794   0.237629
    21  H   -0.846107   1.001208
    22  H    0.041662   0.121177
    23  H    0.026467   0.084123
    24  H   -0.769593   1.084714
    25  H    0.155168   0.140638
    26  H    0.128066   0.023888
    27  H   -0.062337   0.225568
    28  H   -0.003334   0.240142
 Sum of Mulliken charges =  -1.00000   1.00000

 Dipole moment (field-independent basis, Debye):
    X=              6.6994    Y=              0.3695    Z=              1.0590  Tot=              6.7927
 Quadrupole moment (field-independent basis, Debye-Ang):
   XX=           -198.8491   YY=           -108.6373   ZZ=           -111.2079
   XY=             -6.2541   XZ=            -17.3994   YZ=             -0.7542

 Summary of Natural Population Analysis:

                                       Natural Population
                Natural  -----------------------------------------------
    Atom  No    Charge         Core      Valence    Rydberg      Total
 -----------------------------------------------------------------------
      C    1   -0.29449      0.99963     2.28978    0.00509     3.29449
      C    2   -0.03513      0.99948     2.02682    0.00883     3.03513
      C    3   -0.07050      0.99944     2.06197    0.00909     3.07050
      C    4   -0.21276      0.99959     2.20302    0.01015     3.21276
      C    5   -0.02888      0.99947     2.01979    0.00962     3.02888
      C    6    0.13751      0.99929     1.84920    0.01401     2.86249
      C    7    0.13367      0.99935     1.85341    0.01357     2.86633
      C    8   -0.13109      0.99953     2.12094    0.01062     3.13109
      C    9   -0.10623      0.99957     2.09731    0.00934     3.10623
      C   10   -0.10898      0.99952     2.10099    0.00847     3.10898
      O   11   -0.35686      0.99987     3.34890    0.00809     4.35686
      O   12   -0.34648      0.99988     3.34026    0.00634     4.34648
      C   13   -0.02349      0.99954     2.01048    0.01346     3.02349
      O   14   -0.36993      0.99990     3.36335    0.00668     4.36993
      H   15    0.10037      0.00000     0.39867    0.00096     0.39963
      H   16    0.10478      0.00000     0.39371    0.00151     0.39522
      H   17    0.09850      0.00000     0.40016    0.00134     0.40150
      H   18    0.09788      0.00000     0.40089    0.00123     0.40212
      H   19    0.11234      0.00000     0.38622    0.00143     0.38766
      H   20    0.10123      0.00000     0.39685    0.00193     0.39877
      H   21    0.10709      0.00000     0.39062    0.00230     0.39291
      H   22    0.09881      0.00000     0.40039    0.00080     0.40119
      H   23    0.09702      0.00000     0.40146    0.00152     0.40298
      H   24    0.25274      0.00000     0.19780    0.04946     0.24726
      H   25    0.24593      0.00000     0.25089    0.00318     0.25407
      H   26    0.08674      0.00000     0.41196    0.00130     0.41326
      H   27    0.08213      0.00000     0.41634    0.00153     0.41787
      H   28    0.22809      0.00000     0.26775    0.00415     0.27191
 =======================================================================
   * Total *    0.00000     13.99406    37.79993    0.20601    52.00000

 Normal termination of Gaussian 16 at Thu Dec 10 10:47:44 2020.
