 Gaussian 16, Revision A.03,

 -----------------------------------------------------------
 # opt freq B3LYP/6-31G(d) empiricaldispersion=gd3bj scf=xqc
 -----------------------------------------------------------

 ------------------------------
 CID_72372614_JID_2004_neutraal
 ------------------------------
 Symbolic Z-matrix:
 Charge =  0 Multiplicity = 1

 SCF Done:  E(RB3LYP) =  -465.632393056     A.U. after   14 cycles
 SCF Done:  E(RB3LYP) =  -465.639495028     A.U. after   12 cycles
 SCF Done:  E(RB3LYP) =  -465.640048978     A.U. after   11 cycles
 SCF Done:  E(RB3LYP) =  -465.640116072     A.U. after   10 cycles
 SCF Done:  E(RB3LYP) =  -465.640149891     A.U. after   10 cycles
 SCF Done:  E(RB3LYP) =  -465.640166599     A.U. after   10 cycles
 SCF Done:  E(RB3LYP) =  -465.640173148     A.U. after    9 cycles
 SCF Done:  E(RB3LYP) =  -465.640175800     A.U. after    8 cycles
 SCF Done:  E(RB3LYP) =  -465.640177800     A.U. after    8 cycles
 SCF Done:  E(RB3LYP) =  -465.640179305     A.U. after    9 cycles
 SCF Done:  E(RB3LYP) =  -465.640180162     A.U. after    8 cycles
 SCF Done:  E(RB3LYP) =  -465.640180289     A.U. after    7 cycles
 Optimization completed.
    -- Stationary point found.
 Normal termination of Gaussian 16 at Wed Dec  9 16:45:41 2020.

 --------------------------------------------------------------------
 #N Geom=AllCheck Guess=TCheck SCRF=Check GenChk RB3LYP/6-31G(d) Freq
 --------------------------------------------------------------------

 Structure from the checkpoint file:  "JID_2004.chk"
 ------------------------------
 CID_72372614_JID_2004_neutraal
 ------------------------------
 Charge =  0 Multiplicity = 1

 SCF Done:  E(RB3LYP) =  -465.640180289     A.U. after    1 cycles

  Exact polarizability: 156.871   7.384 101.716   3.719   7.434  88.887
 Approx polarizability: 217.670  19.145 160.984  10.766  18.377 148.198

                      1                      2                      3
                      A                      A                      A
 Frequencies --     62.6470               100.0577               131.6876
 Red. masses --      2.6639                 3.6103                 2.7607
 Frc consts  --      0.0062                 0.0213                 0.0282
 IR Inten    --      0.0961                 0.3118                 0.2237

                      4                      5                      6
                      A                      A                      A
 Frequencies --    164.1231               214.0746               273.6815
 Red. masses --      2.4594                 2.6593                 2.5372
 Frc consts  --      0.0390                 0.0718                 0.1120
 IR Inten    --      0.5691                 0.3666                 0.5166

                      7                      8                      9
                      A                      A                      A
 Frequencies --    303.7727               337.2414               390.4660
 Red. masses --      2.9824                 2.9150                 2.6725
 Frc consts  --      0.1621                 0.1953                 0.2401
 IR Inten    --      0.3868                 0.7874                 0.9861

                     10                     11                     12
                      A                      A                      A
 Frequencies --    425.2576               441.1607               499.2520
 Red. masses --      2.7080                 3.3361                 2.2826
 Frc consts  --      0.2885                 0.3825                 0.3352
 IR Inten    --      0.3211                 0.3164                 1.5308

                     13                     14                     15
                      A                      A                      A
 Frequencies --    554.8119               586.7291               670.0104
 Red. masses --      2.7115                 2.8577                 2.1621
 Frc consts  --      0.4918                 0.5796                 0.5719
 IR Inten    --      1.2017                 0.4626                 2.5426

                     16                     17                     18
                      A                      A                      A
 Frequencies --    705.9063               730.0875               747.1778
 Red. masses --      1.4157                 1.6019                 2.4215
 Frc consts  --      0.4156                 0.5031                 0.7965
 IR Inten    --     27.9867                 4.0766                 9.3918

                     19                     20                     21
                      A                      A                      A
 Frequencies --    753.0517               779.6433               814.8765
 Red. masses --      2.2140                 1.8639                 4.6612
 Frc consts  --      0.7397                 0.6675                 1.8236
 IR Inten    --      2.7006                42.2954                 5.4378

                     22                     23                     24
                      A                      A                      A
 Frequencies --    835.1974               863.6743               907.5108
 Red. masses --      2.1767                 3.5603                 2.5014
 Frc consts  --      0.8946                 1.5647                 1.2138
 IR Inten    --     23.4359                11.7824                 3.2381

                     25                     26                     27
                      A                      A                      A
 Frequencies --    943.7065               950.3175               951.0632
 Red. masses --      1.5019                 1.6008                 1.4947
 Frc consts  --      0.7881                 0.8518                 0.7966
 IR Inten    --      3.6360                 1.4428                 0.2850

                     28                     29                     30
                      A                      A                      A
 Frequencies --    967.6979               991.7703              1006.5935
 Red. masses --      2.0519                 1.6189                 2.2528
 Frc consts  --      1.1321                 0.9382                 1.3449
 IR Inten    --     19.6662                 2.8159                 3.2727

                     31                     32                     33
                      A                      A                      A
 Frequencies --   1011.7320              1022.9065              1035.4429
 Red. masses --      1.6202                 1.2117                 2.9726
 Frc consts  --      0.9771                 0.7470                 1.8778
 IR Inten    --      0.5972                28.7095                 1.8633

                     34                     35                     36
                      A                      A                      A
 Frequencies --   1071.5427              1088.4211              1110.5655
 Red. masses --      2.4590                 2.2743                 1.7146
 Frc consts  --      1.6635                 1.5874                 1.2460
 IR Inten    --      3.4850                 3.4027                 3.2822

                     37                     38                     39
                      A                      A                      A
 Frequencies --   1117.9713              1157.1885              1186.1177
 Red. masses --      1.3462                 1.3833                 1.5590
 Frc consts  --      0.9913                 1.0914                 1.2923
 IR Inten    --      5.1305                 1.5834                 3.0637

                     40                     41                     42
                      A                      A                      A
 Frequencies --   1214.3615              1255.0631              1300.3136
 Red. masses --      1.5894                 1.3797                 1.1983
 Frc consts  --      1.3809                 1.2804                 1.1937
 IR Inten    --      0.3594                 8.7282                 0.5458

                     43                     44                     45
                      A                      A                      A
 Frequencies --   1310.7750              1322.6539              1345.8757
 Red. masses --      1.2118                 1.3810                 1.3033
 Frc consts  --      1.2267                 1.4234                 1.3909
 IR Inten    --      0.6460                 1.2494                 1.5494

                     46                     47                     48
                      A                      A                      A
 Frequencies --   1361.6736              1368.4134              1373.4239
 Red. masses --      1.3485                 1.3878                 1.3542
 Frc consts  --      1.4732                 1.5311                 1.5050
 IR Inten    --      4.0956                 4.3726                 0.8122

                     49                     50                     51
                      A                      A                      A
 Frequencies --   1393.4629              1421.6220              1447.1301
 Red. masses --      1.3114                 1.9510                 1.2890
 Frc consts  --      1.5003                 2.3231                 1.5904
 IR Inten    --      3.3385                 3.8475                 3.0573

                     52                     53                     54
                      A                      A                      A
 Frequencies --   1509.1065              1510.3175              1521.6152
 Red. masses --      1.0974                 1.1001                 1.0825
 Frc consts  --      1.4724                 1.4785                 1.4767
 IR Inten    --      4.9606                 0.9010                 6.1898

                     55                     56                     57
                      A                      A                      A
 Frequencies --   1587.2362              1665.4242              1703.1126
 Red. masses --      6.5949                 5.5694                 6.0739
 Frc consts  --      9.7891                 9.1014                10.3801
 IR Inten    --      3.3858                 0.3017                 8.0993

                     58                     59                     60
                      A                      A                      A
 Frequencies --   1737.1663              3027.4892              3042.2301
 Red. masses --      6.3512                 1.0625                 1.0621
 Frc consts  --     11.2924                 5.7375                 5.7918
 IR Inten    --      2.5795                38.8576                21.1947

                     61                     62                     63
                      A                      A                      A
 Frequencies --   3053.9559              3069.0267              3075.0018
 Red. masses --      1.0669                 1.0992                 1.0936
 Frc consts  --      5.8625                 6.0998                 6.0924
 IR Inten    --     16.8303                34.4935                35.6761

                     64                     65                     66
                      A                      A                      A
 Frequencies --   3104.6395              3118.3591              3144.4901
 Red. masses --      1.1042                 1.0842                 1.0918
 Frc consts  --      6.2708                 6.2118                 6.3608
 IR Inten    --     23.2452                15.8601                79.0986

                     67                     68                     69
                      A                      A                      A
 Frequencies --   3148.8934              3153.6084              3206.7151
 Red. masses --      1.0922                 1.0859                 1.0851
 Frc consts  --      6.3805                 6.3629                 6.5744
 IR Inten    --      6.7088                31.2907                 3.1754

                     70                     71                     72
                      A                      A                      A
 Frequencies --   3215.9269              3231.9611              3240.7830
 Red. masses --      1.0877                 1.1010                 1.1055
 Frc consts  --      6.6281                 6.7758                 6.8409
 IR Inten    --     18.2265                24.0642                11.0179

 - Thermochemistry -
 -------------------
 Temperature   298.150 Kelvin.  Pressure   1.00000 Atm.
 Atom     1 has atomic number  6 and mass  12.00000

 Molecular mass:   158.10955 amu.
 Principal axes and moments of inertia in atomic units:
                           1         2         3
     Eigenvalues --   847.589972796.214543166.39394
           X            0.99999   0.00324  -0.00093
           Y           -0.00322   0.99986   0.01660
           Z            0.00098  -0.01660   0.99986
 This molecule is an asymmetric top.
 Rotational symmetry number  1.
 Warning -- assumption of classical behavior for rotation
           may cause significant error
 Rotational temperatures (Kelvin)      0.10219     0.03098     0.02735
 Rotational constants (GHZ):           2.12926     0.64542     0.56997
 Zero-point vibrational energy     592671.7 (Joules/Mol)
                                  141.65193 (Kcal/Mol)
 Warning -- explicit consideration of  14 degrees of freedom as
           vibrations may cause significant error
 Vibrational temperatures:     90.14   143.96   189.47   236.14   308.01
          (Kelvin)            393.77   437.06   485.22   561.79   611.85
                              634.73   718.31   798.25   844.17   964.00
                             1015.64  1050.43  1075.02  1083.47  1121.73
                             1172.43  1201.66  1242.63  1305.71  1357.78
                             1367.29  1368.37  1392.30  1426.94  1448.26
                             1455.66  1471.73  1489.77  1541.71  1566.00
                             1597.86  1608.51  1664.94  1706.56  1747.20
                             1805.76  1870.86  1885.91  1903.00  1936.41
                             1959.14  1968.84  1976.05  2004.88  2045.40
                             2082.10  2171.27  2173.01  2189.26  2283.68
                             2396.17  2450.40  2499.39  4355.88  4377.09
                             4393.96  4415.64  4424.24  4466.88  4486.62
                             4524.22  4530.56  4537.34  4613.75  4627.00
                             4650.07  4662.76

 Zero-point correction=                           0.225737 (Hartree/Particle)
 Thermal correction to Energy=                    0.236143
 Thermal correction to Enthalpy=                  0.237088
 Thermal correction to Gibbs Free Energy=         0.189958
 Sum of electronic and zero-point Energies=           -465.414444
 Sum of electronic and thermal Energies=              -465.404037
 Sum of electronic and thermal Enthalpies=            -465.403093
 Sum of electronic and thermal Free Energies=         -465.450222

                     E (Thermal)             CV                S
                      KCal/Mol        Cal/Mol-Kelvin    Cal/Mol-Kelvin
 Total                  148.182             42.199             99.192
 Electronic               0.000              0.000              0.000
 Translational            0.889              2.981             41.084
 Rotational               0.889              2.981             30.396
 Vibrational            146.405             36.237             27.712
 Vibration     1          0.597              1.972              4.372
 Vibration     2          0.604              1.949              3.453
 Vibration     3          0.612              1.922              2.921
 Vibration     4          0.623              1.887              2.502
 Vibration     5          0.644              1.820              2.009
 Vibration     6          0.676              1.722              1.573
 Vibration     7          0.695              1.667              1.396
 Vibration     8          0.718              1.601              1.225
 Vibration     9          0.758              1.491              0.998
 Vibration    10          0.787              1.415              0.874
 Vibration    11          0.801              1.380              0.823
 Vibration    12          0.855              1.252              0.660
 Vibration    13          0.910              1.129              0.534
 Vibration    14          0.944              1.060              0.473

 Optimization completed.
    -- Stationary point found.
 Normal termination of Gaussian 16 at Wed Dec  9 16:51:52 2020.

 ----------------------------------------------------------------------
 # B3LYP/6-311++G(d,p) empiricaldispersion=gd3bj scf=xqc pop=npa geom=c
 heck
 ----------------------------------------------------------------------

 --------------------------------------
 CID_72372614_JID_2004_Energie_neutraal
 --------------------------------------
 Structure from the checkpoint file:  "JID_2004.chk"
 Charge =  0 Multiplicity = 1

 SCF Done:  E(RB3LYP) =  -465.764719665     A.U. after   15 cycles
 Normal termination of Gaussian 16 at Wed Dec  9 16:54:06 2020.

 ----------------------------------------------------------------------
 # B3LYP/6-311++G(d,p) empiricaldispersion=gd3bj scf=xqc pop=npa geom=c
 heck
 ----------------------------------------------------------------------

 ------------------------------------
 CID_72372614_JID_2004_Energie_kation
 ------------------------------------
 Structure from the checkpoint file:  "JID_2004.chk"
 Charge =  1 Multiplicity = 2

 SCF Done:  E(UB3LYP) =  -465.472956069     A.U. after   25 cycles
 Normal termination of Gaussian 16 at Wed Dec  9 16:59:09 2020.
 Gaussian 16:  ES64L-G16RevA.03 25-Dec-2016

 ----------------------------------------------------------------------
 # B3LYP/6-311++G(d,p) empiricaldispersion=gd3bj scf=xqc pop=npa geom=c
 heck
 ----------------------------------------------------------------------

 -----------------------------------
 CID_72372614_JID_2004_Energie_anion
 -----------------------------------
 Structure from the checkpoint file:  "JID_2004.chk"
 Charge = -1 Multiplicity = 2

                         Standard orientation:
 ---------------------------------------------------------------------
 Center     Atomic      Atomic             Coordinates (Angstroms)
 Number     Number       Type             X           Y           Z
 ---------------------------------------------------------------------
      1          6           0       -1.078508    1.686816   -0.012778
      2          6           0        0.137467    1.095253   -0.786633
      3          6           0        0.941180   -0.010136   -0.007484
      4          6           0       -0.145584   -0.845591    0.643672
      5          6           0       -1.094738   -1.433628   -0.081440
      6          6           0       -2.518655   -1.424112    0.377746
      7          6           0       -3.093003   -0.070920   -0.027647
      8          6           0       -2.492474    1.121464   -0.204188
      9          6           0        1.905728    0.592910    0.991588
     10          6           0        3.168617    0.257799    0.668522
     11          6           0        3.149265   -0.588250   -0.535532
     12          6           0        1.874849   -0.760153   -0.933444
     13          1           0       -0.844655    1.709798    1.059498
     14          1           0       -1.145749    2.740728   -0.305130
     15          1           0       -0.222322    0.655862   -1.722257
     16          1           0        0.825995    1.905644   -1.053278
     17          1           0       -0.336827   -0.652211    1.698382
     18          1           0       -0.947113   -1.571638   -1.152459
     19          1           0       -3.126467   -2.222107   -0.066409
     20          1           0       -2.583917   -1.543608    1.468945
     21          1           0       -4.168090   -0.082478   -0.214043
     22          1           0       -3.191037    1.906467   -0.496702
     23          1           0        1.586231    1.203557    1.829070
     24          1           0        4.069172    0.553258    1.196794
     25          1           0        4.033098   -1.003211   -1.008758
     26          1           0        1.526809   -1.328777   -1.787958
 ---------------------------------------------------------------------

 SCF Done:  E(UB3LYP) =  -465.748332932     A.U. after   33 cycles
 SCF Done:  E(UB3LYP) =  -465.748332932     a.u. after    1 cycles

 The electronic state is 2-A.
 Alpha  occ. eigenvalues --  -10.06718 -10.06250 -10.05962 -10.05724 -10.05669
 Alpha  occ. eigenvalues --  -10.05581 -10.04726 -10.04638 -10.04332 -10.04230
 Alpha  occ. eigenvalues --  -10.03607 -10.03452  -0.74667  -0.70453  -0.65743
 Alpha  occ. eigenvalues --   -0.64940  -0.58382  -0.56490  -0.55985  -0.49358
 Alpha  occ. eigenvalues --   -0.45691  -0.41506  -0.40718  -0.39832  -0.38728
 Alpha  occ. eigenvalues --   -0.36512  -0.33875  -0.31995  -0.30619  -0.29040
 Alpha  occ. eigenvalues --   -0.27824  -0.27137  -0.26643  -0.25643  -0.25013
 Alpha  occ. eigenvalues --   -0.24189  -0.22970  -0.20586  -0.19613  -0.17620
 Alpha  occ. eigenvalues --   -0.13760  -0.12083  -0.10087   0.05415
 Alpha virt. eigenvalues --    0.07265   0.08059   0.08554   0.08937   0.09503
 Alpha virt. eigenvalues --    0.09980   0.10600   0.10927   0.11377   0.11660
 Alpha virt. eigenvalues --    0.12597   0.13083   0.13539   0.13997   0.14393

  Beta  occ. eigenvalues --  -10.06750 -10.06245 -10.05940 -10.05646 -10.05642
  Beta  occ. eigenvalues --  -10.05551 -10.04685 -10.04592 -10.04298 -10.04173
  Beta  occ. eigenvalues --  -10.03442 -10.03277  -0.74465  -0.70346  -0.65672
  Beta  occ. eigenvalues --   -0.64822  -0.58070  -0.56381  -0.55880  -0.49197
  Beta  occ. eigenvalues --   -0.45496  -0.41312  -0.40541  -0.39758  -0.38634
  Beta  occ. eigenvalues --   -0.36433  -0.33767  -0.31893  -0.30543  -0.28915
  Beta  occ. eigenvalues --   -0.27737  -0.27062  -0.26556  -0.25569  -0.24904
  Beta  occ. eigenvalues --   -0.24093  -0.22710  -0.20486  -0.19525  -0.17119
  Beta  occ. eigenvalues --   -0.13657  -0.11941  -0.09169
  Beta virt. eigenvalues --    0.07765   0.08316   0.08639   0.08903   0.09665
  Beta virt. eigenvalues --    0.09965   0.10319   0.10714   0.11212   0.11689
  Beta virt. eigenvalues --    0.11927   0.12894   0.13229   0.13633   0.14263

 Mulliken charges and spin densities:
               1          2
     1  C    0.103884  -0.489333
     2  C   -0.592304  -0.039583
     3  C    0.590436   0.442487
     4  C    1.019822  -1.808469
     5  C   -1.186553   1.654207
     6  C    0.701325  -1.288843
     7  C    0.488882  -0.833808
     8  C    0.155546  -0.122061
     9  C   -0.042923   0.003079
    10  C   -0.380028  -0.064601
    11  C   -0.369566   0.083850
    12  C   -0.300394   0.275225
    13  H    0.096648   0.048312
    14  H    0.118256   0.013154
    15  H    0.140250  -0.023813
    16  H    0.177947  -0.012239
    17  H   -0.178921   0.357692
    18  H   -0.011453   0.141136
    19  H   -0.289326   0.452869
    20  H   -0.343034   0.498727
    21  H   -0.759498   0.919483
    22  H   -0.385980   0.576540
    23  H   -0.014234   0.141966
    24  H    0.056559   0.054147
    25  H    0.093214   0.017749
    26  H    0.111444   0.002124
 Sum of Mulliken charges =  -1.00000   1.00000

 Dipole moment (field-independent basis, Debye):
    X=              6.1448    Y=              1.6355    Z=             -1.7082  Tot=              6.5842
 Quadrupole moment (field-independent basis, Debye-Ang):
   XX=           -146.3926   YY=           -101.1643   ZZ=            -95.2934
   XY=             -2.6183   XZ=              0.2137   YZ=              3.5056

 Summary of Natural Population Analysis:

                                       Natural Population
                Natural  -----------------------------------------------
    Atom  No    Charge         Core      Valence    Rydberg      Total
 -----------------------------------------------------------------------
      C    1   -0.21548      0.99960     2.20595    0.00992     3.21548
      C    2   -0.15750      0.99958     2.14894    0.00898     3.15750
      C    3   -0.08984      0.99953     2.07728    0.01303     3.08984
      C    4   -0.07062      0.99943     2.05900    0.01219     3.07062
      C    5   -0.08492      0.99947     2.07541    0.01003     3.08492
      C    6   -0.22467      0.99959     2.21336    0.01172     3.22467
      C    7   -0.08049      0.99951     2.06991    0.01107     3.08049
      C    8   -0.09449      0.99952     2.08380    0.01117     3.09449
      C    9   -0.05671      0.99952     2.04556    0.01162     3.05671
      C   10   -0.11535      0.99953     2.10631    0.00951     3.11535
      C   11   -0.11202      0.99953     2.10239    0.01010     3.11202
      C   12   -0.05378      0.99951     2.04486    0.00941     3.05378
      H   13    0.10378      0.00000     0.39496    0.00126     0.39622
      H   14    0.09880      0.00000     0.40026    0.00093     0.40120
      H   15    0.09605      0.00000     0.40282    0.00113     0.40395
      H   16    0.09727      0.00000     0.40180    0.00093     0.40273
      H   17    0.09480      0.00000     0.40356    0.00164     0.40520
      H   18    0.08951      0.00000     0.40922    0.00127     0.41049
      H   19    0.10233      0.00000     0.39592    0.00174     0.39767
      H   20    0.10816      0.00000     0.38973    0.00212     0.39184
      H   21    0.09738      0.00000     0.39892    0.00370     0.40262
      H   22    0.09371      0.00000     0.40504    0.00124     0.40629
      H   23    0.09449      0.00000     0.40447    0.00104     0.40551
      H   24    0.09309      0.00000     0.40600    0.00091     0.40691
      H   25    0.09240      0.00000     0.40651    0.00109     0.40760
      H   26    0.09408      0.00000     0.40499    0.00094     0.40592
 =======================================================================
   * Total *    0.00000     11.99434    30.85697    0.14869    43.00000

 Normal termination of Gaussian 16 at Wed Dec  9 17:06:04 2020.
