 Gaussian 16, Revision A.03,

 -----------------------------------------------------------
 # opt freq B3LYP/6-31G(d) empiricaldispersion=gd3bj scf=xqc
 -----------------------------------------------------------

 ------------------------------
 CID_62353573_JID_3840_neutraal
 ------------------------------
 Symbolic Z-matrix:
 Charge =  0 Multiplicity = 1

 SCF Done:  E(RB3LYP) =  -522.308959454     A.U. after   13 cycles
 SCF Done:  E(RB3LYP) =  -522.311941480     A.U. after   11 cycles
 SCF Done:  E(RB3LYP) =  -522.312147109     A.U. after   11 cycles
 SCF Done:  E(RB3LYP) =  -522.312307289     A.U. after   11 cycles
 SCF Done:  E(RB3LYP) =  -522.312345537     A.U. after   10 cycles
 SCF Done:  E(RB3LYP) =  -522.312374620     A.U. after   10 cycles
 SCF Done:  E(RB3LYP) =  -522.312394014     A.U. after    9 cycles
 SCF Done:  E(RB3LYP) =  -522.312445151     A.U. after   11 cycles
 SCF Done:  E(RB3LYP) =  -522.312497739     A.U. after    9 cycles
 SCF Done:  E(RB3LYP) =  -522.312534167     A.U. after    9 cycles
 SCF Done:  E(RB3LYP) =  -522.312535909     A.U. after   11 cycles
 SCF Done:  E(RB3LYP) =  -522.312540637     A.U. after   10 cycles
 SCF Done:  E(RB3LYP) =  -522.312542792     A.U. after    9 cycles
 Optimization completed.
    -- Stationary point found.
 Normal termination of Gaussian 16 at Mon Dec 14 16:32:07 2020.

 --------------------------------------------------------------------
 #N Geom=AllCheck Guess=TCheck SCRF=Check GenChk RB3LYP/6-31G(d) Freq
 --------------------------------------------------------------------

 Structure from the checkpoint file:  "JID_3840.chk"
 ------------------------------
 CID_62353573_JID_3840_neutraal
 ------------------------------
 Charge =  0 Multiplicity = 1

 SCF Done:  E(RB3LYP) =  -522.312542792     A.U. after    1 cycles

  Exact polarizability: 160.287   1.664  92.834   1.122   9.231 120.314
 Approx polarizability: 220.094   3.432 132.484   0.727  22.917 202.214

                      1                      2                      3
                      A                      A                      A
 Frequencies --     52.1111                65.6028               103.8124
 Red. masses --      3.4555                 2.3833                 3.2971
 Frc consts  --      0.0055                 0.0060                 0.0209
 IR Inten    --      0.0574                 0.4003                 0.3827

                      4                      5                      6
                      A                      A                      A
 Frequencies --    130.8792               179.7945               234.6866
 Red. masses --      1.8368                 3.0511                 1.8017
 Frc consts  --      0.0185                 0.0581                 0.0585
 IR Inten    --      0.0781                 0.0887                 1.5029

                      7                      8                      9
                      A                      A                      A
 Frequencies --    245.8429               272.7954               318.6845
 Red. masses --      2.0265                 2.0234                 4.2296
 Frc consts  --      0.0722                 0.0887                 0.2531
 IR Inten    --      0.2684                 2.8795                 0.0769

                     10                     11                     12
                      A                      A                      A
 Frequencies --    333.3374               344.8403               417.4209
 Red. masses --      3.1649                 2.1781                 3.0104
 Frc consts  --      0.2072                 0.1526                 0.3090
 IR Inten    --      0.3286                 1.1131                 0.0130

                     13                     14                     15
                      A                      A                      A
 Frequencies --    448.0205               470.9668               553.0974
 Red. masses --      2.9795                 2.6176                 2.9647
 Frc consts  --      0.3524                 0.3421                 0.5344
 IR Inten    --      0.2260                 2.1939                 6.8653

                     16                     17                     18
                      A                      A                      A
 Frequencies --    594.0377               638.1706               660.5082
 Red. masses --      2.3078                 6.1601                 5.3236
 Frc consts  --      0.4798                 1.4781                 1.3684
 IR Inten    --     43.2615                 0.8864                11.6116

                     19                     20                     21
                      A                      A                      A
 Frequencies --    717.8386               745.5190               774.2083
 Red. masses --      1.6931                 2.7522                 2.0853
 Frc consts  --      0.5140                 0.9013                 0.7364
 IR Inten    --     27.1029                 9.5334                21.0401

                     22                     23                     24
                      A                      A                      A
 Frequencies --    793.1015               816.8097               856.9281
 Red. masses --      1.2389                 1.8114                 1.2492
 Frc consts  --      0.4591                 0.7121                 0.5405
 IR Inten    --      3.9642                11.4567                 0.2036

                     25                     26                     27
                      A                      A                      A
 Frequencies --    887.4340               899.5301               924.5114
 Red. masses --      2.2389                 1.7048                 1.5790
 Frc consts  --      1.0388                 0.8128                 0.7952
 IR Inten    --     41.6318                 3.5406                 2.4333

                     28                     29                     30
                      A                      A                      A
 Frequencies --    956.0819               965.2659               969.0352
 Red. masses --      2.3598                 1.3870                 2.1196
 Frc consts  --      1.2709                 0.7614                 1.1727
 IR Inten    --      0.7057                 0.2163                 3.1163

                     31                     32                     33
                      A                      A                      A
 Frequencies --    991.2175              1002.1395              1022.3443
 Red. masses --      1.2431                 2.3031                 5.9688
 Frc consts  --      0.7196                 1.3628                 3.6756
 IR Inten    --      0.1779                 3.3719                 0.5066

                     34                     35                     36
                      A                      A                      A
 Frequencies --   1031.5931              1061.5655              1065.2056
 Red. masses --      2.0326                 1.8437                 1.8715
 Frc consts  --      1.2745                 1.2241                 1.2511
 IR Inten    --      0.4728                10.5545                 5.2675

                     37                     38                     39
                      A                      A                      A
 Frequencies --   1067.8473              1117.6485              1120.3518
 Red. masses --      1.9238                 2.0168                 1.6235
 Frc consts  --      1.2925                 1.4843                 1.2007
 IR Inten    --      0.4480                 8.1734                 5.2926

                     40                     41                     42
                      A                      A                      A
 Frequencies --   1124.3270              1167.0600              1194.4038
 Red. masses --      2.6651                 1.8919                 1.0913
 Frc consts  --      1.9850                 1.5183                 0.9173
 IR Inten    --      7.8694                 4.4285                 0.0583

                     43                     44                     45
                      A                      A                      A
 Frequencies --   1203.6847              1219.2843              1228.5043
 Red. masses --      2.3440                 1.3266                 1.2102
 Frc consts  --      2.0010                 1.1620                 1.0761
 IR Inten    --      1.0774                 0.5497                 0.3670

                     46                     47                     48
                      A                      A                      A
 Frequencies --   1244.4831              1273.3317              1298.7708
 Red. masses --      1.5999                 1.4490                 1.5412
 Frc consts  --      1.4599                 1.3842                 1.5317
 IR Inten    --      0.7933                 1.4984                 4.0978

                     49                     50                     51
                      A                      A                      A
 Frequencies --   1319.4208              1334.7443              1340.7626
 Red. masses --      1.3764                 1.4656                 1.4792
 Frc consts  --      1.4118                 1.5383                 1.5666
 IR Inten    --     25.6721                 2.3053                 0.9931

                     52                     53                     54
                      A                      A                      A
 Frequencies --   1352.1114              1374.4003              1385.9591
 Red. masses --      1.9589                 1.5816                 1.4228
 Frc consts  --      2.1100                 1.7602                 1.6102
 IR Inten    --      0.5424                 1.0931                 2.7642

                     55                     56                     57
                      A                      A                      A
 Frequencies --   1425.3302              1447.7480              1458.8141
 Red. masses --      1.4517                 1.2380                 1.3850
 Frc consts  --      1.7376                 1.5289                 1.7366
 IR Inten    --      0.3689                 2.4650                 6.4917

                     58                     59                     60
                      A                      A                      A
 Frequencies --   1495.4994              1510.0738              1518.5648
 Red. masses --      2.2325                 1.0613                 1.0654
 Frc consts  --      2.9418                 1.4258                 1.4476
 IR Inten    --      3.6525                 0.4021                 1.2543

                     61                     62                     63
                      A                      A                      A
 Frequencies --   1528.0313              1533.8807              1544.9618
 Red. masses --      1.0770                 1.0753                 1.0789
 Frc consts  --      1.4816                 1.4905                 1.5173
 IR Inten    --      5.5223                 6.8553                 1.9769

                     64                     65                     66
                      A                      A                      A
 Frequencies --   1549.6781              1560.0721              1642.1915
 Red. masses --      2.0666                 1.1236                 5.4113
 Frc consts  --      2.9241                 1.6112                 8.5980
 IR Inten    --     14.1999                 2.4311                 1.8864

                     67                     68                     69
                      A                      A                      A
 Frequencies --   1667.4261              2945.5684              2955.1924
 Red. masses --      5.5348                 1.0744                 1.0721
 Frc consts  --      9.0667                 5.4924                 5.5164
 IR Inten    --      8.7130                73.0863               101.1233

                     70                     71                     72
                      A                      A                      A
 Frequencies --   3032.0293              3055.4482              3065.5143
 Red. masses --      1.0601                 1.0409                 1.1016
 Frc consts  --      5.7419                 5.7254                 6.0995
 IR Inten    --     30.9053                36.1050                 8.8646

                     73                     74                     75
                      A                      A                      A
 Frequencies --   3074.4143              3077.4295              3089.3882
 Red. masses --      1.0904                 1.0799                 1.0717
 Frc consts  --      6.0725                 6.0256                 6.0265
 IR Inten    --     43.6287                26.5002                36.4464

                     76                     77                     78
                      A                      A                      A
 Frequencies --   3116.1925              3131.3669              3148.7428
 Red. masses --      1.0990                 1.1038                 1.0998
 Frc consts  --      6.2876                 6.3770                 6.4243
 IR Inten    --     48.2756                28.0056                24.5631

                     79                     80                     81
                      A                      A                      A
 Frequencies --   3178.4765              3185.3053              3196.1354
 Red. masses --      1.0844                 1.0872                 1.0908
 Frc consts  --      6.4545                 6.4991                 6.5654
 IR Inten    --      3.9216                 2.7160                26.4460

                     82                     83                     84
                      A                      A                      A
 Frequencies --   3202.7304              3210.6134              3506.5254
 Red. masses --      1.0931                 1.0976                 1.0749
 Frc consts  --      6.6063                 6.6663                 7.7867
 IR Inten    --     40.6738                14.7416                 1.9426

 - Thermochemistry -
 -------------------
 Temperature   298.150 Kelvin.  Pressure   1.00000 Atm.
 Atom     1 has atomic number  6 and mass  12.00000

 Molecular mass:   175.13610 amu.
 Principal axes and moments of inertia in atomic units:
                           1         2         3
     Eigenvalues --  1168.654013579.089113652.87410
           X            0.99998   0.00675   0.00137
           Y           -0.00677   0.99986   0.01539
           Z           -0.00126  -0.01540   0.99988
 This molecule is an asymmetric top.
 Rotational symmetry number  1.
 Warning -- assumption of classical behavior for rotation
           may cause significant error
 Rotational temperatures (Kelvin)      0.07411     0.02420     0.02371
 Rotational constants (GHZ):           1.54429     0.50425     0.49406
 Zero-point vibrational energy     705589.7 (Joules/Mol)
                                  168.63998 (Kcal/Mol)
 Warning -- explicit consideration of  16 degrees of freedom as
           vibrations may cause significant error
 Vibrational temperatures:     74.98    94.39   149.36   188.31   258.68
          (Kelvin)            337.66   353.71   392.49   458.52   479.60
                              496.15   600.58   644.60   677.62   795.78
                              854.69   918.19   950.32  1032.81  1072.64
                             1113.91  1141.10  1175.21  1232.93  1276.82
                             1294.22  1330.17  1375.59  1388.80  1394.23
                             1426.14  1441.86  1470.93  1484.23  1527.36
                             1532.59  1536.39  1608.05  1611.94  1617.66
                             1679.14  1718.48  1731.83  1754.28  1767.54
                             1790.53  1832.04  1868.64  1898.35  1920.40
                             1929.06  1945.39  1977.46  1994.09  2050.73
                             2082.99  2098.91  2151.69  2172.66  2184.88
                             2198.50  2206.91  2222.86  2229.64  2244.60
                             2362.75  2399.05  4238.02  4251.86  4362.41
                             4396.11  4410.59  4423.40  4427.73  4444.94
                             4483.51  4505.34  4530.34  4573.12  4582.94
                             4598.53  4608.01  4619.36  5045.11

 Zero-point correction=                           0.268745 (Hartree/Particle)
 Thermal correction to Energy=                    0.280556
 Thermal correction to Enthalpy=                  0.281501
 Thermal correction to Gibbs Free Energy=         0.230821
 Sum of electronic and zero-point Energies=           -522.043798
 Sum of electronic and thermal Energies=              -522.031986
 Sum of electronic and thermal Enthalpies=            -522.031042
 Sum of electronic and thermal Free Energies=         -522.081721

                     E (Thermal)             CV                S
                      KCal/Mol        Cal/Mol-Kelvin    Cal/Mol-Kelvin
 Total                  176.052             47.071            106.663
 Electronic               0.000              0.000              0.000
 Translational            0.889              2.981             41.388
 Rotational               0.889              2.981             31.103
 Vibrational            174.274             41.109             34.172
 Vibration     1          0.596              1.977              4.736
 Vibration     2          0.597              1.971              4.281
 Vibration     3          0.605              1.946              3.381
 Vibration     4          0.612              1.922              2.933
 Vibration     5          0.629              1.867              2.331
 Vibration     6          0.654              1.788              1.843
 Vibration     7          0.660              1.770              1.760
 Vibration     8          0.676              1.723              1.578
 Vibration     9          0.705              1.638              1.317
 Vibration    10          0.715              1.609              1.244
 Vibration    11          0.723              1.586              1.190
 Vibration    12          0.780              1.432              0.901
 Vibration    13          0.807              1.365              0.802
 Vibration    14          0.828              1.314              0.735
 Vibration    15          0.908              1.133              0.538
 Vibration    16          0.952              1.044              0.460

                           ! Non-Optimized Parameters !
 Normal termination of Gaussian 16 at Mon Dec 14 16:40:26 2020.

 ----------------------------------------------------------------------
 # B3LYP/6-311++G(d,p) empiricaldispersion=gd3bj scf=xqc pop=npa geom=c
 heck
 ----------------------------------------------------------------------

 --------------------------------------
 CID_62353573_JID_3840_Energie_neutraal
 --------------------------------------
 Structure from the checkpoint file:  "JID_3840.chk"
 Charge =  0 Multiplicity = 1

 SCF Done:  E(RB3LYP) =  -522.453024154     A.U. after   13 cycles
 Normal termination of Gaussian 16 at Mon Dec 14 16:43:53 2020.

 ----------------------------------------------------------------------
 # B3LYP/6-311++G(d,p) empiricaldispersion=gd3bj scf=xqc pop=npa geom=c
 heck
 ----------------------------------------------------------------------

 ------------------------------------
 CID_62353573_JID_3840_Energie_kation
 ------------------------------------
 Structure from the checkpoint file:  "JID_3840.chk"
 Charge =  1 Multiplicity = 2

 SCF Done:  E(UB3LYP) =  -522.155175297     A.U. after   25 cycles
 Normal termination of Gaussian 16 at Mon Dec 14 16:53:08 2020.
 Gaussian 16:  ES64L-G16RevA.03 25-Dec-2016

 ----------------------------------------------------------------------
 # B3LYP/6-311++G(d,p) empiricaldispersion=gd3bj scf=xqc pop=npa geom=c
 heck
 ----------------------------------------------------------------------

 -----------------------------------
 CID_62353573_JID_3840_Energie_anion
 -----------------------------------
 Structure from the checkpoint file:  "JID_3840.chk"
 Charge = -1 Multiplicity = 2

                         Standard orientation:
 ---------------------------------------------------------------------
 Center     Atomic      Atomic             Coordinates (Angstroms)
 Number     Number       Type             X           Y           Z
 ---------------------------------------------------------------------
      1          6           0        2.449208    1.996329   -0.449577
      2          6           0        0.974345    1.608855   -0.317791
      3          6           0        0.661365    0.116716   -0.001350
      4          6           0        1.325962   -0.329345    1.345757
      5          6           0        2.399729   -1.365427    0.958358
      6          7           0        2.654341   -1.079730   -0.454782
      7          6           0        1.335665   -0.827411   -1.031125
      8          6           0       -0.858644   -0.011138    0.006842
      9          6           0       -1.565436   -0.390337   -1.142421
     10          6           0       -2.959843   -0.442094   -1.150198
     11          6           0       -3.682200   -0.103654   -0.006674
     12          6           0       -2.994930    0.294590    1.140220
     13          6           0       -1.601535    0.342804    1.142064
     14          1           0        3.010089    1.791877    0.468059
     15          1           0        2.530235    3.069483   -0.659806
     16          1           0        2.944608    1.446962   -1.253408
     17          1           0        0.507514    2.216071    0.469353
     18          1           0        0.448332    1.868155   -1.246185
     19          1           0        0.595896   -0.771988    2.026531
     20          1           0        1.771876    0.527863    1.858127
     21          1           0        3.319823   -1.267365    1.544678
     22          1           0        2.004204   -2.384712    1.123158
     23          1           0        3.126509   -1.852056   -0.919462
     24          1           0        0.732504   -1.747414   -1.134764
     25          1           0        1.428291   -0.372102   -2.024003
     26          1           0       -1.025318   -0.647901   -2.048352
     27          1           0       -3.480682   -0.747399   -2.053851
     28          1           0       -4.767728   -0.145643   -0.009947
     29          1           0       -3.543588    0.569191    2.037225
     30          1           0       -1.085074    0.665759    2.041495
 ---------------------------------------------------------------------

 SCF Done:  E(UB3LYP) =  -522.437021550     A.U. after   33 cycles
 SCF Done:  E(UB3LYP) =  -522.437021550     a.u. after    1 cycles

 The electronic state is 2-A.
 Alpha  occ. eigenvalues --  -14.19117 -10.08733 -10.08699 -10.08510 -10.08110
 Alpha  occ. eigenvalues --  -10.07525 -10.07497 -10.07351 -10.07211 -10.07171
 Alpha  occ. eigenvalues --  -10.06630 -10.06352 -10.05290  -0.81834  -0.76008
 Alpha  occ. eigenvalues --   -0.70420  -0.64834  -0.64678  -0.63329  -0.60307
 Alpha  occ. eigenvalues --   -0.53316  -0.51301  -0.49944  -0.48129  -0.44284
 Alpha  occ. eigenvalues --   -0.42867  -0.38955  -0.38181  -0.35616  -0.35170
 Alpha  occ. eigenvalues --   -0.34843  -0.32819  -0.32174  -0.30854  -0.29361
 Alpha  occ. eigenvalues --   -0.28423  -0.27182  -0.26533  -0.26222  -0.25900
 Alpha  occ. eigenvalues --   -0.25278  -0.24309  -0.22403  -0.21544  -0.21152
 Alpha  occ. eigenvalues --   -0.15580  -0.14688  -0.12404   0.04493
 Alpha virt. eigenvalues --    0.06389   0.07024   0.07430   0.08405   0.08470
 Alpha virt. eigenvalues --    0.08618   0.08732   0.09502   0.10147   0.10677
 Alpha virt. eigenvalues --    0.10853   0.11181   0.12928   0.13043   0.13671

  Beta  occ. eigenvalues --  -14.19096 -10.08711 -10.08700 -10.08485 -10.08108
  Beta  occ. eigenvalues --  -10.07511 -10.07485 -10.07338 -10.07201 -10.07159
  Beta  occ. eigenvalues --  -10.06621 -10.06334 -10.05274  -0.81804  -0.75986
  Beta  occ. eigenvalues --   -0.70395  -0.64803  -0.64654  -0.63291  -0.60267
  Beta  occ. eigenvalues --   -0.53274  -0.51257  -0.49911  -0.48061  -0.44246
  Beta  occ. eigenvalues --   -0.42812  -0.38896  -0.38155  -0.35592  -0.35140
  Beta  occ. eigenvalues --   -0.34810  -0.32786  -0.32143  -0.30825  -0.29334
  Beta  occ. eigenvalues --   -0.28395  -0.27144  -0.26502  -0.26195  -0.25864
  Beta  occ. eigenvalues --   -0.25248  -0.24284  -0.22373  -0.21518  -0.21130
  Beta  occ. eigenvalues --   -0.15559  -0.14668  -0.12368
  Beta virt. eigenvalues --    0.06602   0.07261   0.07789   0.07996   0.08478
  Beta virt. eigenvalues --    0.08796   0.09092   0.09221   0.09926   0.10637
  Beta virt. eigenvalues --    0.10935   0.11226   0.11717   0.13205   0.13317

 Mulliken charges and spin densities:
               1          2
     1  C    0.280884  -0.832292
     2  C   -0.943487   0.416053
     3  C    0.839914   0.113594
     4  C   -0.284492  -0.229449
     5  C    0.919624  -1.315745
     6  N   -0.429152   0.319174
     7  C    0.782495  -1.524774
     8  C    1.148430  -0.390632
     9  C   -0.658463   0.449358
    10  C   -0.285764  -0.128609
    11  C    1.352926  -1.656940
    12  C   -0.501915   0.091008
    13  C   -0.694072   0.427645
    14  H    0.014667   0.119257
    15  H   -0.152417   0.289343
    16  H    0.095259   0.071288
    17  H    0.005329   0.147008
    18  H    0.075788   0.085027
    19  H    0.172979  -0.048735
    20  H   -0.069833   0.212730
    21  H   -0.166241   0.330493
    22  H   -0.277786   0.411906
    23  H   -0.131731   0.396956
    24  H   -0.096999   0.239625
    25  H   -0.298019   0.479658
    26  H   -0.161582   0.326732
    27  H   -0.501953   0.677472
    28  H   -0.226318   0.366898
    29  H   -0.509735   0.681035
    30  H   -0.298335   0.474915
 Sum of Mulliken charges =  -1.00000   1.00000

 Dipole moment (field-independent basis, Debye):
    X=              0.6246    Y=              1.6899    Z=              0.7679  Tot=              1.9585
 Quadrupole moment (field-independent basis, Debye-Ang):
   XX=           -151.2002   YY=           -119.5366   ZZ=           -121.7940
   XY=              2.9007   XZ=              2.5538   YZ=             -3.9105

 Summary of Natural Population Analysis:

                                       Natural Population
                Natural  -----------------------------------------------
    Atom  No    Charge         Core      Valence    Rydberg      Total
 -----------------------------------------------------------------------
      C    1   -0.28586      0.99966     2.28153    0.00468     3.28586
      C    2   -0.17803      0.99959     2.17073    0.00771     3.17803
      C    3   -0.04738      0.99953     2.03277    0.01508     3.04738
      C    4   -0.19150      0.99960     2.18273    0.00917     3.19150
      C    5   -0.08590      0.99963     2.07531    0.01096     3.08590
      N    6   -0.34236      0.99975     2.83027    0.01233     3.84236
      C    7   -0.08879      0.99959     2.07614    0.01306     3.08879
      C    8   -0.00349      0.99947     1.99082    0.01320     3.00349
      C    9   -0.10251      0.99950     2.09303    0.00999     3.10251
      C   10   -0.09787      0.99956     2.08800    0.01031     3.09787
      C   11   -0.10701      0.99956     2.09748    0.00998     3.10701
      C   12   -0.09833      0.99956     2.08843    0.01034     3.09833
      C   13   -0.10266      0.99950     2.09332    0.00983     3.10266
      H   14    0.09716      0.00000     0.40169    0.00115     0.40284
      H   15    0.09385      0.00000     0.40516    0.00099     0.40615
      H   16    0.10418      0.00000     0.39445    0.00137     0.39582
      H   17    0.09599      0.00000     0.40268    0.00133     0.40401
      H   18    0.09705      0.00000     0.40172    0.00123     0.40295
      H   19    0.10437      0.00000     0.39417    0.00146     0.39563
      H   20    0.09940      0.00000     0.39930    0.00130     0.40060
      H   21    0.09279      0.00000     0.40603    0.00118     0.40721
      H   22    0.07900      0.00000     0.41922    0.00178     0.42100
      H   23    0.17694      0.00000     0.31952    0.00353     0.32306
      H   24    0.08671      0.00000     0.41117    0.00212     0.41329
      H   25    0.09740      0.00000     0.40101    0.00159     0.40260
      H   26    0.10337      0.00000     0.39484    0.00180     0.39663
      H   27    0.10067      0.00000     0.39815    0.00118     0.39933
      H   28    0.10041      0.00000     0.39842    0.00117     0.39959
      H   29    0.10047      0.00000     0.39831    0.00122     0.39953
      H   30    0.10194      0.00000     0.39633    0.00173     0.39806
 =======================================================================
   * Total *    0.00000     12.99451    34.84271    0.16278    48.00000

 Normal termination of Gaussian 16 at Mon Dec 14 17:05:11 2020.
