 Gaussian 16, Revision A.03,

 -----------------------------------------------------------
 # opt freq B3LYP/6-31G(d) empiricaldispersion=gd3bj scf=xqc
 -----------------------------------------------------------

 ------------------------------
 CID_50982778_JID_9647_neutraal
 ------------------------------
 Symbolic Z-matrix:
 Charge =  0 Multiplicity = 1

 SCF Done:  E(RB3LYP) =  -1214.73241414     A.U. after   16 cycles
 SCF Done:  E(RB3LYP) =  -1214.73800139     A.U. after   13 cycles
 SCF Done:  E(RB3LYP) =  -1214.73881300     A.U. after   12 cycles
 SCF Done:  E(RB3LYP) =  -1214.73929738     A.U. after   12 cycles
 SCF Done:  E(RB3LYP) =  -1214.73957490     A.U. after   12 cycles
 SCF Done:  E(RB3LYP) =  -1214.73977737     A.U. after   13 cycles
 SCF Done:  E(RB3LYP) =  -1214.73990004     A.U. after   12 cycles
 SCF Done:  E(RB3LYP) =  -1214.74008971     A.U. after   13 cycles
 SCF Done:  E(RB3LYP) =  -1214.74014839     A.U. after   12 cycles
 SCF Done:  E(RB3LYP) =  -1214.74022073     A.U. after   13 cycles
 SCF Done:  E(RB3LYP) =  -1214.74157008     A.U. after    7 cycles
 SCF Done:  E(RB3LYP) =  -1214.74157007     A.U. after    8 cycles
 SCF Done:  E(RB3LYP) =  -1214.74157008     A.U. after    6 cycles
 SCF Done:  E(RB3LYP) =  -1214.74157009     A.U. after    6 cycles
 Optimization completed.
    -- Stationary point found.
 Normal termination of Gaussian 16 at Sat Dec 12 10:36:46 2020.

 --------------------------------------------------------------------
 #N Geom=AllCheck Guess=TCheck SCRF=Check GenChk RB3LYP/6-31G(d) Freq
 --------------------------------------------------------------------

 Structure from the checkpoint file:  "JID_9647.chk"
 ------------------------------
 CID_50982778_JID_9647_neutraal
 ------------------------------
 Charge =  0 Multiplicity = 1

 SCF Done:  E(RB3LYP) =  -1214.74157009     A.U. after    1 cycles

  Exact polarizability: 151.410  -5.799 186.791   5.613   2.845 159.840
 Approx polarizability: 198.352  -7.115 290.395  13.668 -13.358 312.194

                      1                      2                      3
                      A                      A                      A
 Frequencies --      8.2504                19.8946                31.7691
 Red. masses --      4.0665                 4.6403                 2.7803
 Frc consts  --      0.0002                 0.0011                 0.0017
 IR Inten    --      1.1690                 0.2248                 0.2050

                      4                      5                      6
                      A                      A                      A
 Frequencies --     43.3440                52.3218                58.9668
 Red. masses --      3.6608                 4.4611                 4.3419
 Frc consts  --      0.0041                 0.0072                 0.0089
 IR Inten    --      1.1642                 1.1130                 2.9711

                      7                      8                      9
                      A                      A                      A
 Frequencies --     83.3854               103.9009               127.7571
 Red. masses --      3.8109                 4.2911                 1.1366
 Frc consts  --      0.0156                 0.0273                 0.0109
 IR Inten    --      2.2388                 0.5271                 0.0672

                     10                     11                     12
                      A                      A                      A
 Frequencies --    137.9976               166.3553               176.1990
 Red. masses --      3.5167                 3.5635                 3.1658
 Frc consts  --      0.0395                 0.0581                 0.0579
 IR Inten    --      0.2414                 5.8357                 1.2601

                     13                     14                     15
                      A                      A                      A
 Frequencies --    211.5858               226.9624               227.8323
 Red. masses --      3.9966                 1.2595                 1.5869
 Frc consts  --      0.1054                 0.0382                 0.0485
 IR Inten    --      5.7500                 1.1366                 0.0582

                     16                     17                     18
                      A                      A                      A
 Frequencies --    252.6023               287.4234               305.7368
 Red. masses --      2.5092                 3.8156                 2.1652
 Frc consts  --      0.0943                 0.1857                 0.1192
 IR Inten    --      2.5713                 1.1771                 0.8789

                     19                     20                     21
                      A                      A                      A
 Frequencies --    325.9032               353.0441               378.7720
 Red. masses --      2.3689                 5.0008                 4.7607
 Frc consts  --      0.1482                 0.3672                 0.4024
 IR Inten    --      1.4282                 4.1004                 1.3243

                     22                     23                     24
                      A                      A                      A
 Frequencies --    390.1809               429.7351               459.8042
 Red. masses --      3.3114                 3.9604                 5.5865
 Frc consts  --      0.2970                 0.4309                 0.6959
 IR Inten    --      4.1697                 1.5045                 1.3706

                     25                     26                     27
                      A                      A                      A
 Frequencies --    522.5341               549.6693               593.5628
 Red. masses --      4.8536                 2.9924                 2.4062
 Frc consts  --      0.7808                 0.5327                 0.4995
 IR Inten    --      0.0771                22.4990                59.5625

                     28                     29                     30
                      A                      A                      A
 Frequencies --    598.5743               619.1447               629.6898
 Red. masses --      6.1939                 7.4227                 5.8600
 Frc consts  --      1.3075                 1.6765                 1.3690
 IR Inten    --      2.5174                10.8207                14.8111

                     31                     32                     33
                      A                      A                      A
 Frequencies --    668.3908               673.7966               685.1100
 Red. masses --      6.1813                 4.7698                 2.8457
 Frc consts  --      1.6270                 1.2759                 0.7870
 IR Inten    --     11.3277                 3.3578                29.8698

                     34                     35                     36
                      A                      A                      A
 Frequencies --    703.2661               724.5143               752.3450
 Red. masses --      4.7192                 3.2405                 3.4641
 Frc consts  --      1.3752                 1.0022                 1.1552
 IR Inten    --      5.8350                33.6549                11.9959

                     37                     38                     39
                      A                      A                      A
 Frequencies --    789.2324               799.7966               805.2809
 Red. masses --      6.1129                 1.2229                 1.6542
 Frc consts  --      2.2434                 0.4609                 0.6320
 IR Inten    --     32.0139                 3.3787                 3.8693

                     40                     41                     42
                      A                      A                      A
 Frequencies --    806.2984               872.9342               957.7708
 Red. masses --      2.8140                 1.3601                 2.5223
 Frc consts  --      1.0779                 0.6106                 1.3632
 IR Inten    --      2.6099                11.7854                44.4847

                     43                     44                     45
                      A                      A                      A
 Frequencies --    969.4089               987.0656               989.3179
 Red. masses --      2.1923                 2.0450                 2.3155
 Frc consts  --      1.2138                 1.1739                 1.3353
 IR Inten    --      9.6419                 6.1086                 5.3956

                     46                     47                     48
                      A                      A                      A
 Frequencies --   1065.6344              1072.1029              1080.1459
 Red. masses --      3.1492                 1.8779                 1.4918
 Frc consts  --      2.1070                 1.2717                 1.0255
 IR Inten    --     18.8197                 2.9122                 1.1156

                     49                     50                     51
                      A                      A                      A
 Frequencies --   1089.1054              1114.9819              1118.0223
 Red. masses --      2.4521                 2.3078                 1.5069
 Frc consts  --      1.7137                 1.6903                 1.1098
 IR Inten    --     19.8779                 4.8333                 1.3487

                     52                     53                     54
                      A                      A                      A
 Frequencies --   1119.4129              1141.3420              1158.1618
 Red. masses --      2.9352                 3.6041                 3.2092
 Frc consts  --      2.1670                 2.7662                 2.5362
 IR Inten    --      4.8300                55.6514                 3.5360

                     55                     56                     57
                      A                      A                      A
 Frequencies --   1196.5768              1211.1832              1223.4357
 Red. masses --      3.2376                 2.2710                 1.8494
 Frc consts  --      2.7312                 1.9629                 1.6310
 IR Inten    --     33.1981                 9.3324                 7.1646

                     58                     59                     60
                      A                      A                      A
 Frequencies --   1272.2024              1287.6206              1301.7193
 Red. masses --      2.6520                 1.5977                 1.1505
 Frc consts  --      2.5289                 1.5607                 1.1486
 IR Inten    --     59.4483                 4.0556                 0.2487

                     61                     62                     63
                      A                      A                      A
 Frequencies --   1328.8584              1358.6271              1386.2216
 Red. masses --      2.0853                 1.7884                 1.7527
 Frc consts  --      2.1696                 1.9450                 1.9844
 IR Inten    --    142.3972                 2.8731                14.7348

                     64                     65                     66
                      A                      A                      A
 Frequencies --   1394.5753              1405.4538              1429.4914
 Red. masses --      1.6887                 1.3362                 1.7629
 Frc consts  --      1.9350                 1.5551                 2.1224
 IR Inten    --      1.6841                33.4498                10.1068

                     67                     68                     69
                      A                      A                      A
 Frequencies --   1437.6303              1443.3096              1447.0180
 Red. masses --      1.2617                 1.2489                 2.2541
 Frc consts  --      1.5364                 1.5328                 2.7808
 IR Inten    --     11.7476                 4.3690                38.3247

                     70                     71                     72
                      A                      A                      A
 Frequencies --   1460.2952              1470.6713              1499.3033
 Red. masses --      2.9813                 1.4904                 1.2705
 Frc consts  --      3.7457                 1.8992                 1.6826
 IR Inten    --     61.5476                56.2150                 9.0447

                     73                     74                     75
                      A                      A                      A
 Frequencies --   1502.3275              1511.1475              1515.7710
 Red. masses --      1.2718                 1.2504                 1.1518
 Frc consts  --      1.6913                 1.6823                 1.5592
 IR Inten    --     20.9154                 6.9156                36.7073

                     76                     77                     78
                      A                      A                      A
 Frequencies --   1519.0683              1521.6702              1525.7595
 Red. masses --      1.0588                 1.0389                 1.1651
 Frc consts  --      1.4395                 1.4173                 1.5981
 IR Inten    --     10.0971                 5.8750                17.2293

                     79                     80                     81
                      A                      A                      A
 Frequencies --   1530.9266              1535.7037              1540.6018
 Red. masses --      1.0784                 1.0654                 2.2434
 Frc consts  --      1.4891                 1.4803                 3.1372
 IR Inten    --      3.6114                 4.6519                10.6870

                     82                     83                     84
                      A                      A                      A
 Frequencies --   1541.7116              1549.2926              1607.5451
 Red. masses --      5.8351                 4.1367                 5.5702
 Frc consts  --      8.1715                 5.8502                 8.4811
 IR Inten    --     11.5649                 7.8663               117.9654

                     85                     86                     87
                      A                      A                      A
 Frequencies --   1761.3368              3041.1908              3044.6329
 Red. masses --      7.9226                 1.0602                 1.0425
 Frc consts  --     14.4811                 5.7772                 5.6939
 IR Inten    --    271.9982                13.0255                20.3148

                     88                     89                     90
                      A                      A                      A
 Frequencies --   3060.2380              3067.1503              3070.4635
 Red. masses --      1.0353                 1.1017                 1.0362
 Frc consts  --      5.7126                 6.1063                 5.7558
 IR Inten    --     19.9694                10.8980                25.2040

                     91                     92                     93
                      A                      A                      A
 Frequencies --   3079.8606              3092.1230              3097.3076
 Red. masses --      1.0650                 1.0643                 1.0961
 Frc consts  --      5.9522                 5.9954                 6.1956
 IR Inten    --     20.2498                21.4779                14.6621

                     94                     95                     96
                      A                      A                      A
 Frequencies --   3125.7292              3132.0456              3139.1322
 Red. masses --      1.1035                 1.0993                 1.1018
 Frc consts  --      6.3523                 6.3538                 6.3967
 IR Inten    --     15.3416                 6.7926                19.2211

                     97                     98                     99
                      A                      A                      A
 Frequencies --   3141.0861              3152.1198              3153.7310
 Red. masses --      1.1024                 1.1032                 1.1059
 Frc consts  --      6.4086                 6.4580                 6.4805
 IR Inten    --     24.1942                17.7957                19.2022

                    100                    101                    102
                      A                      A                      A
 Frequencies --   3177.0090              3263.8397              3588.9822
 Red. masses --      1.0967                 1.0960                 1.0761
 Frc consts  --      6.5217                 6.8786                 8.1666
 IR Inten    --      0.0437                 4.4529                28.1811

 - Thermochemistry -
 -------------------
 Temperature   298.150 Kelvin.  Pressure   1.00000 Atm.
 Atom     1 has atomic number  6 and mass  12.00000

 Molecular mass:   279.11538 amu.
 Principal axes and moments of inertia in atomic units:
                           1         2         3
     Eigenvalues --  4193.095666383.517328282.84702
           X            0.99996  -0.00874  -0.00013
           Y            0.00874   0.99934   0.03522
           Z           -0.00018  -0.03522   0.99938
 This molecule is an asymmetric top.
 Rotational symmetry number  1.
 Warning -- assumption of classical behavior for rotation
           may cause significant error
 Rotational temperatures (Kelvin)      0.02066     0.01357     0.01046
 Rotational constants (GHZ):           0.43041     0.28272     0.21789
 Zero-point vibrational energy     769557.9 (Joules/Mol)
                                  183.92875 (Kcal/Mol)
 Warning -- explicit consideration of  29 degrees of freedom as
           vibrations may cause significant error
 Vibrational temperatures:     11.87    28.62    45.71    62.36    75.28
          (Kelvin)             84.84   119.97   149.49   183.81   198.55
                              239.35   253.51   304.42   326.55   327.80
                              363.44   413.54   439.89   468.90   507.95
                              544.97   561.38   618.29   661.56   751.81
                              790.85   854.00   861.21   890.81   905.98
                              961.67   969.44   985.72  1011.84  1042.41
                             1082.46  1135.53  1150.73  1158.62  1160.08
                             1255.96  1378.02  1394.76  1420.17  1423.41
                             1533.21  1542.52  1554.09  1566.98  1604.21
                             1608.58  1610.59  1642.14  1666.34  1721.61
                             1742.62  1760.25  1830.42  1852.60  1872.88
                             1911.93  1954.76  1994.46  2006.48  2022.13
                             2056.72  2068.43  2076.60  2081.94  2101.04
                             2115.97  2157.16  2161.51  2174.20  2180.86
                             2185.60  2189.34  2195.23  2202.66  2209.54
                             2216.58  2218.18  2229.09  2312.90  2534.17
                             4375.60  4380.55  4403.00  4412.95  4417.71
                             4431.23  4448.88  4456.33  4497.23  4506.32
                             4516.51  4519.32  4535.20  4537.52  4571.01
                             4695.94  5163.74

 Zero-point correction=                           0.293109 (Hartree/Particle)
 Thermal correction to Energy=                    0.312705
 Thermal correction to Enthalpy=                  0.313650
 Thermal correction to Gibbs Free Energy=         0.240871
 Sum of electronic and zero-point Energies=          -1214.448461
 Sum of electronic and thermal Energies=             -1214.428865
 Sum of electronic and thermal Enthalpies=           -1214.427920
 Sum of electronic and thermal Free Energies=        -1214.500699

                     E (Thermal)             CV                S
                      KCal/Mol        Cal/Mol-Kelvin    Cal/Mol-Kelvin
 Total                  196.226             70.507            153.175
 Electronic               0.000              0.000              0.000
 Translational            0.889              2.981             42.778
 Rotational               0.889              2.981             33.760
 Vibrational            194.448             64.545             76.637
 Vibration     1          0.593              1.987              8.393
 Vibration     2          0.593              1.986              6.645
 Vibration     3          0.594              1.983              5.716
 Vibration     4          0.595              1.980              5.100
 Vibration     5          0.596              1.977              4.728
 Vibration     6          0.596              1.974              4.491
 Vibration     7          0.600              1.961              3.810
 Vibration     8          0.605              1.946              3.380
 Vibration     9          0.611              1.925              2.980
 Vibration    10          0.614              1.915              2.831
 Vibration    11          0.624              1.884              2.476
 Vibration    12          0.628              1.872              2.368
 Vibration    13          0.643              1.823              2.030
 Vibration    14          0.651              1.800              1.903
 Vibration    15          0.651              1.799              1.896
 Vibration    16          0.664              1.758              1.712
 Vibration    17          0.685              1.697              1.489
 Vibration    18          0.696              1.663              1.385
 Vibration    19          0.710              1.624              1.280
 Vibration    20          0.729              1.569              1.153
 Vibration    21          0.749              1.515              1.044
 Vibration    22          0.758              1.491              0.999
 Vibration    23          0.791              1.405              0.860
 Vibration    24          0.818              1.339              0.767
 Vibration    25          0.877              1.200              0.604
 Vibration    26          0.905              1.140              0.545
 Vibration    27          0.951              1.045              0.461
 Vibration    28          0.957              1.035              0.452
 Vibration    29          0.979              0.991              0.418

                           ! Non-Optimized Parameters !
 Normal termination of Gaussian 16 at Sat Dec 12 10:53:47 2020.

 ----------------------------------------------------------------------
 # B3LYP/6-311++G(d,p) empiricaldispersion=gd3bj scf=xqc pop=npa geom=c
 heck
 ----------------------------------------------------------------------

 --------------------------------------
 CID_50982778_JID_9647_Energie_neutraal
 --------------------------------------
 Structure from the checkpoint file:  "JID_9647.chk"
 Charge =  0 Multiplicity = 1

 SCF Done:  E(RB3LYP) =  -1214.99077818     A.U. after   17 cycles
 Normal termination of Gaussian 16 at Sat Dec 12 11:02:38 2020.

 ----------------------------------------------------------------------
 # B3LYP/6-311++G(d,p) empiricaldispersion=gd3bj scf=xqc pop=npa geom=c
 heck
 ----------------------------------------------------------------------

 ------------------------------------
 CID_50982778_JID_9647_Energie_kation
 ------------------------------------
 Structure from the checkpoint file:  "JID_9647.chk"
 Charge =  1 Multiplicity = 2

 SCF Done:  E(UB3LYP) =  -1214.67880047     A.U. after   33 cycles
 SCF Done:  E(UB3LYP) =  -1214.67880047     a.u. after    1 cycles
 Normal termination of Gaussian 16 at Sat Dec 12 11:26:55 2020.
 Gaussian 16:  ES64L-G16RevA.03 25-Dec-2016

 ----------------------------------------------------------------------
 # B3LYP/6-311++G(d,p) empiricaldispersion=gd3bj scf=xqc pop=npa geom=c
 heck
 ----------------------------------------------------------------------

 -----------------------------------
 CID_50982778_JID_9647_Energie_anion
 -----------------------------------
 Structure from the checkpoint file:  "JID_9647.chk"
 Charge = -1 Multiplicity = 2

                         Standard orientation:
 ---------------------------------------------------------------------
 Center     Atomic      Atomic             Coordinates (Angstroms)
 Number     Number       Type             X           Y           Z
 ---------------------------------------------------------------------
      1          6           0        3.572430    3.145152    0.074614
      2          6           0        3.299520    1.876966    0.886681
      3          6           0        2.632602    0.800651    0.079263
      4          7           0        2.340162    0.908799   -1.183733
      5          7           0        1.719097   -0.202793   -1.697599
      6          6           0        1.553669   -1.146083   -0.821353
      7         16           0        2.154923   -0.742995    0.777486
      8          6           0        0.896770   -2.463074   -1.144069
      9          7           0        0.030287   -2.975266   -0.088066
     10          6           0       -0.876722   -2.214040    0.635704
     11          8           0       -1.162214   -2.534942    1.786878
     12          6           0       -1.453945   -1.039072   -0.039486
     13          6           0       -1.784409    0.159637    0.596199
     14          7           0       -2.271275    0.972394   -0.375670
     15          7           0       -2.318116    0.373905   -1.597157
     16          6           0       -1.810459   -0.834101   -1.397836
     17          6           0       -2.815132    2.315459   -0.234821
     18          6           0       -4.330775    2.301486   -0.040103
     19          6           0       -1.626794    0.575923    2.020942
     20          1           0        4.222372    2.930821   -0.777633
     21          1           0        4.057081    3.895826    0.706910
     22          1           0        2.642843    3.564351   -0.319579
     23          1           0        4.237128    1.479773    1.297777
     24          1           0        2.667898    2.108727    1.754625
     25          1           0        0.363301   -2.328375   -2.087702
     26          1           0        1.663574   -3.224693   -1.320912
     27          1           0        0.410969   -3.721663    0.481461
     28          1           0       -1.742645   -1.527032   -2.225077
     29          1           0       -2.310993    2.794268    0.609270
     30          1           0       -2.543115    2.857610   -1.143241
     31          1           0       -4.604421    1.767612    0.876113
     32          1           0       -4.715009    3.324870    0.027841
     33          1           0       -4.810822    1.801805   -0.886323
     34          1           0       -2.573570    0.931262    2.443932
     35          1           0       -1.296433   -0.283885    2.604373
     36          1           0       -0.890824    1.383476    2.124517
 ---------------------------------------------------------------------

 SCF Done:  E(UB3LYP) =  -1214.99048955     A.U. after   33 cycles
 SCF Done:  E(UB3LYP) =  -1214.99048955     a.u. after    1 cycles

 The electronic state is 2-A.
 Alpha  occ. eigenvalues --  -88.75782 -18.98893 -14.29043 -14.23248 -14.23056
 Alpha  occ. eigenvalues --  -14.21131 -14.20785 -10.17657 -10.12540 -10.11998
 Alpha  occ. eigenvalues --  -10.11633 -10.10744 -10.10378 -10.09646 -10.08741
 Alpha  occ. eigenvalues --  -10.08137 -10.07955 -10.07288 -10.07020  -7.84456
 Alpha  occ. eigenvalues --   -5.80710  -5.80399  -5.80065  -0.95416  -0.93788
 Alpha  occ. eigenvalues --   -0.89921  -0.82185  -0.75795  -0.72536  -0.71478
 Alpha  occ. eigenvalues --   -0.68792  -0.65689  -0.65416  -0.61929  -0.60437
 Alpha  occ. eigenvalues --   -0.56691  -0.54699  -0.53551  -0.49019  -0.47227
 Alpha  occ. eigenvalues --   -0.44658  -0.42833  -0.42000  -0.39568  -0.38648
 Alpha  occ. eigenvalues --   -0.37690  -0.36879  -0.36512  -0.35621  -0.34233
 Alpha  occ. eigenvalues --   -0.33085  -0.32747  -0.32098  -0.31859  -0.31588
 Alpha  occ. eigenvalues --   -0.30126  -0.29927  -0.29654  -0.28756  -0.28601
 Alpha  occ. eigenvalues --   -0.27829  -0.27272  -0.26920  -0.26073  -0.25850
 Alpha  occ. eigenvalues --   -0.20276  -0.18434  -0.17504  -0.16811  -0.15889
 Alpha  occ. eigenvalues --   -0.15506  -0.14969  -0.14221  -0.14054   0.03895
 Alpha virt. eigenvalues --    0.05467   0.06770   0.07404   0.07991   0.08200
 Alpha virt. eigenvalues --    0.08555   0.09226   0.09723   0.10118   0.10299
 Alpha virt. eigenvalues --    0.10525   0.11075   0.11592   0.11879   0.12118

  Beta  occ. eigenvalues --  -88.75762 -18.98893 -14.29031 -14.23212 -14.23055
  Beta  occ. eigenvalues --  -14.21151 -14.20721 -10.17651 -10.12529 -10.11950
  Beta  occ. eigenvalues --  -10.11646 -10.10457 -10.10084 -10.09646 -10.08763
  Beta  occ. eigenvalues --  -10.08109 -10.07943 -10.07294 -10.07019  -7.84437
  Beta  occ. eigenvalues --   -5.80709  -5.80396  -5.79981  -0.95394  -0.93778
  Beta  occ. eigenvalues --   -0.89716  -0.82108  -0.75773  -0.72241  -0.71422
  Beta  occ. eigenvalues --   -0.68549  -0.65661  -0.65333  -0.61893  -0.60370
  Beta  occ. eigenvalues --   -0.56634  -0.54615  -0.53518  -0.48886  -0.47040
  Beta  occ. eigenvalues --   -0.44582  -0.42610  -0.41944  -0.39404  -0.38586
  Beta  occ. eigenvalues --   -0.37615  -0.36741  -0.36295  -0.35575  -0.34189
  Beta  occ. eigenvalues --   -0.32992  -0.32594  -0.32023  -0.31707  -0.31533
  Beta  occ. eigenvalues --   -0.30071  -0.29602  -0.29542  -0.28693  -0.28470
  Beta  occ. eigenvalues --   -0.27778  -0.27190  -0.26873  -0.25926  -0.25739
  Beta  occ. eigenvalues --   -0.20260  -0.18342  -0.17270  -0.16389  -0.15803
  Beta  occ. eigenvalues --   -0.15421  -0.14479  -0.14047  -0.13484
  Beta virt. eigenvalues --    0.06095   0.06810   0.07344   0.08108   0.08217
  Beta virt. eigenvalues --    0.08652   0.09000   0.09298   0.10041   0.10202
  Beta virt. eigenvalues --    0.10500   0.10570   0.11370   0.11703   0.11953

 Mulliken charges and spin densities:
               1          2
     1  C   -0.631593  -0.025973
     2  C   -0.073078   0.009007
     3  C   -0.278454  -0.009687
     4  N   -0.131538  -0.008865
     5  N    0.104171   0.046550
     6  C    0.316217  -0.052718
     7  S   -0.000118   0.134933
     8  C   -0.142429  -0.306564
     9  N   -0.194789   0.035467
    10  C   -0.359090  -0.088598
    11  O   -0.301426   0.001900
    12  C    1.450743  -0.021481
    13  C   -1.187232   0.242434
    14  N    0.505331   0.021325
    15  N   -0.199216   0.006289
    16  C   -0.445735   0.015393
    17  C   -0.385998   0.244272
    18  C    0.448362  -0.899847
    19  C   -0.081528  -0.626359
    20  H    0.162456   0.000427
    21  H    0.096926   0.022935
    22  H    0.153144   0.004894
    23  H    0.120643   0.030512
    24  H    0.057325   0.111292
    25  H    0.214798  -0.027579
    26  H   -0.457264   0.661817
    27  H    0.113391   0.199023
    28  H    0.142950  -0.000872
    29  H   -0.141293   0.286966
    30  H    0.080727   0.097266
    31  H    0.025372   0.121553
    32  H   -0.317366   0.459007
    33  H    0.118823   0.038472
    34  H   -0.045176   0.186565
    35  H    0.213928  -0.011510
    36  H    0.048012   0.101755
 Sum of Mulliken charges =  -1.00000   1.00000

 Dipole moment (field-independent basis, Debye):
    X=              0.6261    Y=              1.0895    Z=              1.1131  Tot=              1.6787
 Quadrupole moment (field-independent basis, Debye-Ang):
   XX=           -169.8626   YY=           -168.8733   ZZ=           -153.1932
   XY=             12.4817   XZ=             10.3642   YZ=              6.2691

 Summary of Natural Population Analysis:

                                       Natural Population
                Natural  -----------------------------------------------
    Atom  No    Charge         Core      Valence    Rydberg      Total
 -----------------------------------------------------------------------
      C    1   -0.28213      0.99967     2.27710    0.00536     3.28213
      C    2   -0.21162      0.99959     2.20502    0.00702     3.21162
      C    3    0.07301      0.99962     1.91005    0.01732     2.92699
      N    4   -0.16627      0.99961     2.65319    0.01346     3.66627
      N    5   -0.14851      0.99961     2.63472    0.01418     3.64851
      C    6    0.06292      0.99961     1.91856    0.01891     2.93708
      S    7    0.16310      4.99940     2.81935    0.01816     7.83690
      C    8   -0.11242      0.99954     2.09904    0.01384     3.11242
      N    9   -0.31874      0.99968     2.80892    0.01014     3.81874
      C   10    0.34237      0.99960     1.63558    0.02245     2.65763
      O   11   -0.32472      0.99988     3.31954    0.00530     4.32472
      C   12   -0.13260      0.99940     2.12248    0.01072     3.13260
      C   13    0.12768      0.99950     1.86177    0.01104     2.87232
      N   14   -0.10901      0.99961     2.59644    0.01297     3.60901
      N   15   -0.15425      0.99973     2.64327    0.01124     3.65425
      C   16    0.00914      0.99960     1.97779    0.01347     2.99086
      C   17   -0.08409      0.99963     2.07362    0.01084     3.08409
      C   18   -0.29007      0.99966     2.28577    0.00465     3.29007
      C   19   -0.30995      0.99963     2.30470    0.00562     3.30995
      H   20    0.10263      0.00000     0.39657    0.00079     0.39737
      H   21    0.09128      0.00000     0.40801    0.00070     0.40872
      H   22    0.10424      0.00000     0.39472    0.00104     0.39576
      H   23    0.10285      0.00000     0.39623    0.00092     0.39715
      H   24    0.10379      0.00000     0.39455    0.00166     0.39621
      H   25    0.10635      0.00000     0.39223    0.00142     0.39365
      H   26    0.11323      0.00000     0.38288    0.00389     0.38677
      H   27    0.19362      0.00000     0.30364    0.00274     0.30638
      H   28    0.09856      0.00000     0.40064    0.00080     0.40144
      H   29    0.10087      0.00000     0.39780    0.00133     0.39913
      H   30    0.10577      0.00000     0.39286    0.00137     0.39423
      H   31    0.09917      0.00000     0.39992    0.00090     0.40083
      H   32    0.10109      0.00000     0.39754    0.00137     0.39891
      H   33    0.10373      0.00000     0.39532    0.00095     0.39627
      H   34    0.10565      0.00000     0.39339    0.00097     0.39435
      H   35    0.12626      0.00000     0.37288    0.00086     0.37374
      H   36    0.10709      0.00000     0.39187    0.00104     0.39291
 =======================================================================
   * Total *   -0.00000     22.99257    50.75797    0.24946    74.00000

 Normal termination of Gaussian 16 at Sat Dec 12 11:51:32 2020.
