 Gaussian 16, Revision A.03,

 -----------------------------------------------------------
 # opt freq B3LYP/6-31G(d) empiricaldispersion=gd3bj scf=xqc
 -----------------------------------------------------------

 -------------------------------
 CID_106834768_JID_7370_neutraal
 -------------------------------
 Symbolic Z-matrix:
 Charge =  0 Multiplicity = 1

 SCF Done:  E(RB3LYP) =  -1106.66163094     A.U. after   15 cycles
 SCF Done:  E(RB3LYP) =  -1106.66566982     A.U. after   13 cycles
 SCF Done:  E(RB3LYP) =  -1106.66571911     A.U. after   13 cycles
 SCF Done:  E(RB3LYP) =  -1106.66774406     A.U. after   12 cycles
 SCF Done:  E(RB3LYP) =  -1106.66868520     A.U. after   13 cycles
 SCF Done:  E(RB3LYP) =  -1106.66925171     A.U. after   13 cycles
 SCF Done:  E(RB3LYP) =  -1106.66971069     A.U. after   12 cycles
 SCF Done:  E(RB3LYP) =  -1106.66978941     A.U. after   11 cycles
 SCF Done:  E(RB3LYP) =  -1106.66982282     A.U. after   11 cycles
 SCF Done:  E(RB3LYP) =  -1106.66983514     A.U. after   10 cycles
 SCF Done:  E(RB3LYP) =  -1106.66984820     A.U. after    8 cycles
 SCF Done:  E(RB3LYP) =  -1106.66984827     A.U. after    7 cycles
 SCF Done:  E(RB3LYP) =  -1106.66984833     A.U. after    7 cycles
 SCF Done:  E(RB3LYP) =  -1106.66984837     A.U. after    7 cycles
 SCF Done:  E(RB3LYP) =  -1106.66984838     A.U. after    7 cycles
 Optimization completed.
    -- Stationary point found.
 Normal termination of Gaussian 16 at Sun Dec 13 12:34:06 2020.

 --------------------------------------------------------------------
 #N Geom=AllCheck Guess=TCheck SCRF=Check GenChk RB3LYP/6-31G(d) Freq
 --------------------------------------------------------------------

 Structure from the checkpoint file:  "JID_7370.chk"
 -------------------------------
 CID_106834768_JID_7370_neutraal
 -------------------------------
 Charge =  0 Multiplicity = 1

 SCF Done:  E(RB3LYP) =  -1106.66984838     A.U. after    1 cycles

  Exact polarizability: 193.859  -5.832 161.393  20.641  -2.379 124.042
 Approx polarizability: 298.244 -21.150 263.341  60.306 -19.275 215.555

                      1                      2                      3
                      A                      A                      A
 Frequencies --     16.6873                37.8255                42.8594
 Red. masses --      4.8385                 5.8077                 6.1519
 Frc consts  --      0.0008                 0.0049                 0.0067
 IR Inten    --      0.9825                 0.2528                 0.7574

                      4                      5                      6
                      A                      A                      A
 Frequencies --     79.7497               109.5891               123.3947
 Red. masses --      6.9166                 2.8588                 1.0884
 Frc consts  --      0.0259                 0.0202                 0.0098
 IR Inten    --      1.1694                 0.4212                 0.1822

                      7                      8                      9
                      A                      A                      A
 Frequencies --    155.7297               165.0018               183.2051
 Red. masses --      1.4356                 2.3011                 5.9326
 Frc consts  --      0.0205                 0.0369                 0.1173
 IR Inten    --      1.9081                 1.9062                 3.2614

                     10                     11                     12
                      A                      A                      A
 Frequencies --    202.7991               252.9877               279.8370
 Red. masses --      4.9223                 2.7246                 3.0935
 Frc consts  --      0.1193                 0.1027                 0.1427
 IR Inten    --      1.1847                 8.4053                 2.0110

                     13                     14                     15
                      A                      A                      A
 Frequencies --    293.2798               321.1766               340.7002
 Red. masses --      3.0494                 1.6921                 2.8800
 Frc consts  --      0.1545                 0.1028                 0.1970
 IR Inten    --      2.0445                73.7981                22.1692

                     16                     17                     18
                      A                      A                      A
 Frequencies --    350.2151               389.2877               431.6822
 Red. masses --      6.1198                 4.3902                 4.9277
 Frc consts  --      0.4422                 0.3920                 0.5410
 IR Inten    --      2.4050                 3.0852                 7.1704

                     19                     20                     21
                      A                      A                      A
 Frequencies --    460.4971               464.3596               491.6208
 Red. masses --      4.1466                 3.0068                 5.1705
 Frc consts  --      0.5181                 0.3820                 0.7363
 IR Inten    --      9.5402                 2.6741                 2.7035

                     22                     23                     24
                      A                      A                      A
 Frequencies --    509.2057               549.5735               581.7796
 Red. masses --      2.1212                 3.0188                 3.2546
 Frc consts  --      0.3241                 0.5372                 0.6490
 IR Inten    --     33.1126                24.4413                 6.8367

                     25                     26                     27
                      A                      A                      A
 Frequencies --    592.7794               614.7518               655.7950
 Red. masses --      3.4424                 5.4665                 4.5764
 Frc consts  --      0.7127                 1.2172                 1.1596
 IR Inten    --     11.3194                10.6133                 5.6459

                     28                     29                     30
                      A                      A                      A
 Frequencies --    684.3866               717.7667               724.9361
 Red. masses --      7.8263                 3.7157                 1.2446
 Frc consts  --      2.1598                 1.1279                 0.3854
 IR Inten    --      2.3290                10.2335                37.0561

                     31                     32                     33
                      A                      A                      A
 Frequencies --    740.0699               750.0710               763.4473
 Red. masses --      5.4429                 5.5499                 6.4200
 Frc consts  --      1.7564                 1.8397                 2.2047
 IR Inten    --      5.0251                46.4557                 5.8945

                     34                     35                     36
                      A                      A                      A
 Frequencies --    788.1845               861.5473               874.9224
 Red. masses --      4.8917                 1.3206                 4.0060
 Frc consts  --      1.7905                 0.5775                 1.8068
 IR Inten    --     10.3270                 2.8945                16.2046

                     37                     38                     39
                      A                      A                      A
 Frequencies --    879.7424               890.8661               914.2541
 Red. masses --      1.3730                 1.7961                 2.0273
 Frc consts  --      0.6261                 0.8399                 0.9984
 IR Inten    --      8.4032                 2.8933                12.5491

                     40                     41                     42
                      A                      A                      A
 Frequencies --    925.1152              1019.8657              1043.7524
 Red. masses --      1.3674                 1.6054                 1.4142
 Frc consts  --      0.6895                 0.9838                 0.9077
 IR Inten    --      1.9230                19.8394                 2.3904

                     43                     44                     45
                      A                      A                      A
 Frequencies --   1054.5511              1069.3884              1076.2397
 Red. masses --      3.0865                 1.4622                 1.4995
 Frc consts  --      2.0223                 0.9852                 1.0233
 IR Inten    --     36.7564                 0.6712                 7.3984

                     46                     47                     48
                      A                      A                      A
 Frequencies --   1103.1579              1122.7250              1140.9031
 Red. masses --      1.9595                 1.3854                 3.2169
 Frc consts  --      1.4050                 1.0289                 2.4671
 IR Inten    --     18.7008                21.0532                 6.4435

                     49                     50                     51
                      A                      A                      A
 Frequencies --   1188.3530              1237.7739              1258.6271
 Red. masses --      1.7018                 1.8590                 1.8988
 Frc consts  --      1.4159                 1.6780                 1.7722
 IR Inten    --     41.3834                17.8419               147.9578

                     52                     53                     54
                      A                      A                      A
 Frequencies --   1273.1346              1308.7710              1348.8814
 Red. masses --      1.4550                 1.6669                 7.9713
 Frc consts  --      1.3895                 1.6823                 8.5453
 IR Inten    --     14.4612                54.8445               109.5236

                     55                     56                     57
                      A                      A                      A
 Frequencies --   1373.0537              1380.6415              1403.1210
 Red. masses --      3.4404                 3.1414                 2.6940
 Frc consts  --      3.8215                 3.5281                 3.1249
 IR Inten    --     50.1010               178.0232                89.0370

                     58                     59                     60
                      A                      A                      A
 Frequencies --   1437.4823              1444.6651              1454.8389
 Red. masses --      1.3524                 1.2300                 2.0875
 Frc consts  --      1.6465                 1.5125                 2.6032
 IR Inten    --      3.1991                 0.9166                71.9891

                     61                     62                     63
                      A                      A                      A
 Frequencies --   1474.8027              1479.8627              1510.8976
 Red. masses --      2.6937                 4.5475                 1.0573
 Frc consts  --      3.4520                 5.8677                 1.4220
 IR Inten    --     24.9242                60.5734                 8.1752

                     64                     65                     66
                      A                      A                      A
 Frequencies --   1520.2025              1520.4321              1538.5662
 Red. masses --      1.0430                 1.0968                 1.2722
 Frc consts  --      1.4202                 1.4939                 1.7743
 IR Inten    --      7.4906                 9.6455                 9.7154

                     67                     68                     69
                      A                      A                      A
 Frequencies --   1557.9745              1584.0182              1633.5901
 Red. masses --      3.1856                 5.0256                 6.1408
 Frc consts  --      4.5557                 7.4295                 9.6553
 IR Inten    --    158.7165                17.0867                24.6230

                     70                     71                     72
                      A                      A                      A
 Frequencies --   1688.7094              1745.6872              3020.7460
 Red. masses --      6.4892                 8.4225                 1.0418
 Frc consts  --     10.9031                15.1225                 5.6011
 IR Inten    --      7.8170               355.7890                36.2774

                     73                     74                     75
                      A                      A                      A
 Frequencies --   3046.0874              3064.2919              3103.0347
 Red. masses --      1.0417                 1.1012                 1.0945
 Frc consts  --      5.6946                 6.0920                 6.2090
 IR Inten    --     25.8008                21.9718                13.7745

                     76                     77                     78
                      A                      A                      A
 Frequencies --   3136.6432              3138.6210              3199.6618
 Red. masses --      1.0952                 1.1027                 1.0910
 Frc consts  --      6.3485                 6.4000                 6.5809
 IR Inten    --      8.3392                16.9726                 8.0743

                     79                     80                     81
                      A                      A                      A
 Frequencies --   3207.5410              3222.9111              3260.6168
 Red. masses --      1.0909                 1.0900                 1.0932
 Frc consts  --      6.6124                 6.6707                 6.8479
 IR Inten    --      5.9483                 7.4621                 0.4727

                     82                     83                     84
                      A                      A                      A
 Frequencies --   3266.7436              3563.0059              3764.7534
 Red. masses --      1.0976                 1.0748                 1.0654
 Frc consts  --      6.9015                 8.0390                 8.8969
 IR Inten    --      1.4995                33.5247                51.8667

 - Thermochemistry -
 -------------------
 Temperature   298.150 Kelvin.  Pressure   1.00000 Atm.
 Atom     1 has atomic number  6 and mass  12.00000

 Molecular mass:   247.06670 amu.
 Principal axes and moments of inertia in atomic units:
                           1         2         3
     Eigenvalues --  2626.016266534.689327542.68712
           X            0.99997   0.00072  -0.00823
           Y           -0.00025   0.99843   0.05609
           Z            0.00826  -0.05609   0.99839
 This molecule is an asymmetric top.
 Rotational symmetry number  1.
 Warning -- assumption of classical behavior for rotation
           may cause significant error
 Rotational temperatures (Kelvin)      0.03298     0.01325     0.01148
 Rotational constants (GHZ):           0.68725     0.27618     0.23927
 Zero-point vibrational energy     617279.1 (Joules/Mol)
                                  147.53325 (Kcal/Mol)
 Warning -- explicit consideration of  26 degrees of freedom as
           vibrations may cause significant error
 Vibrational temperatures:     24.01    54.42    61.67   114.74   157.67
          (Kelvin)            177.54   224.06   237.40   263.59   291.78
                              363.99   402.62   421.96   462.10   490.19
                              503.88   560.10   621.09   662.55   668.11
                              707.33   732.63   790.71   837.05   852.88
                              884.49   943.54   984.68  1032.71  1043.02
                             1064.80  1079.18  1098.43  1134.02  1239.57
                             1258.82  1265.75  1281.76  1315.41  1331.03
                             1467.36  1501.73  1517.26  1538.61  1548.47
                             1587.20  1615.35  1641.51  1709.77  1780.88
                             1810.88  1831.76  1883.03  1940.74  1975.52
                             1986.44  2018.78  2068.22  2078.55  2093.19
                             2121.91  2129.19  2173.84  2187.23  2187.56
                             2213.65  2241.58  2279.05  2350.37  2429.68
                             2511.65  4346.18  4382.64  4408.83  4464.57
                             4512.93  4515.78  4603.60  4614.94  4637.05
                             4691.30  4700.12  5126.37  5416.64

 Zero-point correction=                           0.235109 (Hartree/Particle)
 Thermal correction to Energy=                    0.251390
 Thermal correction to Enthalpy=                  0.252335
 Thermal correction to Gibbs Free Energy=         0.189684
 Sum of electronic and zero-point Energies=          -1106.434739
 Sum of electronic and thermal Energies=             -1106.418458
 Sum of electronic and thermal Enthalpies=           -1106.417514
 Sum of electronic and thermal Free Energies=        -1106.480165

                     E (Thermal)             CV                S
                      KCal/Mol        Cal/Mol-Kelvin    Cal/Mol-Kelvin
 Total                  157.750             61.480            131.860
 Electronic               0.000              0.000              0.000
 Translational            0.889              2.981             42.414
 Rotational               0.889              2.981             33.226
 Vibrational            155.972             55.519             56.220
 Vibration     1          0.593              1.986              6.994
 Vibration     2          0.594              1.982              5.370
 Vibration     3          0.595              1.980              5.122
 Vibration     4          0.600              1.963              3.897
 Vibration     5          0.606              1.942              3.276
 Vibration     6          0.610              1.930              3.047
 Vibration     7          0.620              1.896              2.601
 Vibration     8          0.623              1.885              2.492
 Vibration     9          0.631              1.863              2.296
 Vibration    10          0.639              1.836              2.108
 Vibration    11          0.664              1.758              1.710
 Vibration    12          0.680              1.711              1.535
 Vibration    13          0.688              1.686              1.455
 Vibration    14          0.707              1.633              1.304
 Vibration    15          0.720              1.594              1.209
 Vibration    16          0.727              1.575              1.165
 Vibration    17          0.757              1.493              1.003
 Vibration    18          0.793              1.401              0.853
 Vibration    19          0.818              1.338              0.765
 Vibration    20          0.822              1.329              0.754
 Vibration    21          0.847              1.269              0.679
 Vibration    22          0.864              1.230              0.636
 Vibration    23          0.905              1.141              0.545
 Vibration    24          0.939              1.071              0.482
 Vibration    25          0.950              1.047              0.462
 Vibration    26          0.974              1.001              0.425

 Optimization completed.
    -- Stationary point found.
 Normal termination of Gaussian 16 at Sun Dec 13 12:45:22 2020.

 ----------------------------------------------------------------------
 # B3LYP/6-311++G(d,p) empiricaldispersion=gd3bj scf=xqc pop=npa geom=c
 heck
 ----------------------------------------------------------------------

 ---------------------------------------
 CID_106834768_JID_7370_Energie_neutraal
 ---------------------------------------
 Structure from the checkpoint file:  "JID_7370.chk"
 Charge =  0 Multiplicity = 1

 SCF Done:  E(RB3LYP) =  -1106.89839038     A.U. after   16 cycles
 Normal termination of Gaussian 16 at Sun Dec 13 12:51:06 2020.

 ----------------------------------------------------------------------
 # B3LYP/6-311++G(d,p) empiricaldispersion=gd3bj scf=xqc pop=npa geom=c
 heck
 ----------------------------------------------------------------------

 -------------------------------------
 CID_106834768_JID_7370_Energie_kation
 -------------------------------------
 Structure from the checkpoint file:  "JID_7370.chk"
 Charge =  1 Multiplicity = 2

 SCF Done:  E(UB3LYP) =  -1106.60890854     A.U. after   29 cycles
 Normal termination of Gaussian 16 at Sun Dec 13 13:05:19 2020.
 Gaussian 16:  ES64L-G16RevA.03 25-Dec-2016

 ----------------------------------------------------------------------
 # B3LYP/6-311++G(d,p) empiricaldispersion=gd3bj scf=xqc pop=npa geom=c
 heck
 ----------------------------------------------------------------------

 ------------------------------------
 CID_106834768_JID_7370_Energie_anion
 ------------------------------------
 Structure from the checkpoint file:  "JID_7370.chk"
 Charge = -1 Multiplicity = 2

                         Standard orientation:
 ---------------------------------------------------------------------
 Center     Atomic      Atomic             Coordinates (Angstroms)
 Number     Number       Type             X           Y           Z
 ---------------------------------------------------------------------
      1          6           0        2.595441   -2.237064   -1.524346
      2          6           0        2.271645   -0.951852   -0.803961
      3          6           0        1.143770   -0.197017   -1.121887
      4          6           0        0.830780    0.982124   -0.443220
      5          6           0        1.673285    1.458586    0.575493
      6          6           0        2.814736    0.718555    0.886021
      7          6           0        3.110125   -0.469838    0.216111
      8          8           0        4.242870   -1.131914    0.601697
      9          6           0        1.340306    2.725847    1.319252
     10          7           0       -0.355484    1.699689   -0.772922
     11          6           0       -1.657573    1.249776   -0.750968
     12          8           0       -2.539114    1.862484   -1.349945
     13          6           0       -1.983615    0.042528    0.042268
     14          6           0       -1.306627   -0.665042    1.012670
     15          6           0       -2.074466   -1.731352    1.556579
     16          6           0       -3.321824   -1.821520    0.992450
     17         16           0       -3.591625   -0.598547   -0.195447
     18          1           0        3.566316   -2.190440   -2.038162
     19          1           0        2.623667   -3.097042   -0.839993
     20          1           0        1.840468   -2.456917   -2.283459
     21          1           0        0.474164   -0.540076   -1.905070
     22          1           0        3.491186    1.050097    1.667654
     23          1           0        4.341760   -1.933835    0.066939
     24          1           0        1.995282    2.856064    2.185150
     25          1           0        1.453691    3.610974    0.679998
     26          1           0        0.300580    2.716397    1.662950
     27          1           0       -0.266924    2.569122   -1.287906
     28          1           0       -0.299497   -0.431667    1.330141
     29          1           0       -1.713691   -2.399876    2.330385
     30          1           0       -4.098543   -2.540815    1.216177
 ---------------------------------------------------------------------

 SCF Done:  E(UB3LYP) =  -1106.90197293     A.U. after   33 cycles
 SCF Done:  E(UB3LYP) =  -1106.90197293     a.u. after    1 cycles

 The electronic state is 2-A.
 Alpha  occ. eigenvalues --  -88.73857 -19.05665 -18.95182 -14.21711 -10.13950
 Alpha  occ. eigenvalues --  -10.13501 -10.10297 -10.08719 -10.08438 -10.07904
 Alpha  occ. eigenvalues --  -10.07802 -10.07440 -10.07321 -10.06375 -10.06322
 Alpha  occ. eigenvalues --  -10.05092 -10.04424  -7.82488  -5.78776  -5.78408
 Alpha  occ. eigenvalues --   -5.78116  -0.96772  -0.90858  -0.81558  -0.75098
 Alpha  occ. eigenvalues --   -0.74874  -0.69487  -0.64016  -0.63170  -0.61023
 Alpha  occ. eigenvalues --   -0.60649  -0.56834  -0.52555  -0.50958  -0.49543
 Alpha  occ. eigenvalues --   -0.43776  -0.43448  -0.42364  -0.40979  -0.39692
 Alpha  occ. eigenvalues --   -0.38180  -0.34352  -0.34212  -0.33409  -0.32828
 Alpha  occ. eigenvalues --   -0.31823  -0.31062  -0.30233  -0.29673  -0.29637
 Alpha  occ. eigenvalues --   -0.28780  -0.28070  -0.27649  -0.26698  -0.25741
 Alpha  occ. eigenvalues --   -0.24996  -0.24164  -0.22986  -0.21482  -0.15854
 Alpha  occ. eigenvalues --   -0.15134  -0.13592  -0.12856  -0.12016  -0.11155
 Alpha  occ. eigenvalues --    0.03917
 Alpha virt. eigenvalues --    0.05578   0.07377   0.07997   0.08496   0.08947
 Alpha virt. eigenvalues --    0.09345   0.09788   0.10038   0.10545   0.10932
 Alpha virt. eigenvalues --    0.11591   0.12554   0.12907   0.13198   0.13996

  Beta  occ. eigenvalues --  -88.73811 -19.05625 -18.94998 -14.21689 -10.13781
  Beta  occ. eigenvalues --  -10.13476 -10.10292 -10.08696 -10.08441 -10.07905
  Beta  occ. eigenvalues --  -10.07746 -10.07435 -10.07328 -10.06256 -10.06043
  Beta  occ. eigenvalues --  -10.05168 -10.04266  -7.82447  -5.78756  -5.78389
  Beta  occ. eigenvalues --   -5.77960  -0.96687  -0.90530  -0.81441  -0.75008
  Beta  occ. eigenvalues --   -0.74651  -0.69452  -0.63958  -0.63117  -0.60677
  Beta  occ. eigenvalues --   -0.60312  -0.56781  -0.52407  -0.50908  -0.49201
  Beta  occ. eigenvalues --   -0.43698  -0.43289  -0.42180  -0.40854  -0.39599
  Beta  occ. eigenvalues --   -0.38067  -0.34329  -0.34147  -0.33351  -0.32780
  Beta  occ. eigenvalues --   -0.31632  -0.31024  -0.30088  -0.29565  -0.29255
  Beta  occ. eigenvalues --   -0.28704  -0.27675  -0.27486  -0.26548  -0.25597
  Beta  occ. eigenvalues --   -0.24813  -0.23709  -0.22727  -0.21261  -0.15535
  Beta  occ. eigenvalues --   -0.14935  -0.13290  -0.12175  -0.11522  -0.10211
  Beta virt. eigenvalues --    0.06610   0.07349   0.08020   0.08331   0.08522
  Beta virt. eigenvalues --    0.09111   0.09703   0.09909   0.10291   0.10570
  Beta virt. eigenvalues --    0.11222   0.11686   0.12649   0.12966   0.13209

 Mulliken charges and spin densities:
               1          2
     1  C    2.211838  -2.850076
     2  C   -0.947581   1.794601
     3  C   -0.323740   0.468069
     4  C   -0.917519   0.436893
     5  C    0.979518  -0.089453
     6  C   -0.005397  -0.540198
     7  C   -0.599727  -0.461794
     8  O   -0.240798   0.012718
     9  C   -0.374483  -0.007892
    10  N   -0.188998   0.001579
    11  C   -0.581479   0.113120
    12  O   -0.366236   0.067640
    13  C    0.473207   0.004110
    14  C    0.118687   0.188632
    15  C   -0.341027  -0.073445
    16  C   -0.119750   0.176786
    17  S   -0.444180   0.082397
    18  H   -0.349212   0.513697
    19  H   -0.223459   0.392276
    20  H    0.027825   0.133429
    21  H    0.127605   0.054494
    22  H    0.140590   0.033190
    23  H   -0.266680   0.557485
    24  H    0.129013   0.000517
    25  H    0.151401   0.001480
    26  H    0.176092   0.003125
    27  H    0.308632  -0.000843
    28  H    0.157356  -0.021825
    29  H    0.105389   0.021769
    30  H    0.183113  -0.012479
 Sum of Mulliken charges =  -1.00000   1.00000

 Dipole moment (field-independent basis, Debye):
    X=              0.8426    Y=              2.6399    Z=              2.2024  Tot=              3.5397
 Quadrupole moment (field-independent basis, Debye-Ang):
   XX=           -182.6110   YY=           -135.2701   ZZ=           -126.4040
   XY=             24.7155   XZ=             -1.2095   YZ=              1.3403

 Summary of Natural Population Analysis:

                                       Natural Population
                Natural  -----------------------------------------------
    Atom  No    Charge         Core      Valence    Rydberg      Total
 -----------------------------------------------------------------------
      C    1   -0.30294      0.99964     2.29629    0.00702     3.30294
      C    2   -0.05208      0.99948     2.04358    0.00902     3.05208
      C    3   -0.08335      0.99948     2.07470    0.00917     3.08335
      C    4    0.05846      0.99942     1.93041    0.01171     2.94154
      C    5   -0.01514      0.99948     2.00697    0.00869     3.01514
      C    6   -0.12459      0.99945     2.11587    0.00927     3.12459
      C    7    0.16474      0.99934     1.82205    0.01387     2.83526
      O    8   -0.34270      0.99988     3.33613    0.00669     4.34270
      C    9   -0.28985      0.99960     2.28564    0.00461     3.28985
      N   10   -0.32501      0.99965     2.81401    0.01135     3.82501
      C   11    0.34692      0.99958     1.63308    0.02042     2.65308
      O   12   -0.31491      0.99988     3.30966    0.00536     4.31491
      C   13   -0.13332      0.99943     2.12009    0.01381     3.13332
      C   14   -0.08907      0.99951     2.07788    0.01169     3.08907
      C   15   -0.15516      0.99954     2.14639    0.00923     3.15516
      C   16   -0.14631      0.99956     2.13590    0.01085     3.14631
      S   17    0.23404      4.99944     2.74463    0.02188     7.76596
      H   18    0.10418      0.00000     0.39371    0.00211     0.39582
      H   19    0.10508      0.00000     0.39342    0.00150     0.39492
      H   20    0.10921      0.00000     0.39000    0.00080     0.39079
      H   21    0.10552      0.00000     0.39289    0.00159     0.39448
      H   22    0.10084      0.00000     0.39778    0.00138     0.39916
      H   23    0.24028      0.00000     0.25468    0.00505     0.25972
      H   24    0.09778      0.00000     0.40144    0.00078     0.40222
      H   25    0.10040      0.00000     0.39864    0.00096     0.39960
      H   26    0.11118      0.00000     0.38783    0.00099     0.38882
      H   27    0.19230      0.00000     0.30624    0.00146     0.30770
      H   28    0.10659      0.00000     0.39179    0.00162     0.39341
      H   29    0.09935      0.00000     0.39960    0.00105     0.40065
      H   30    0.09759      0.00000     0.40154    0.00087     0.40241
 =======================================================================
   * Total *    0.00004     20.99235    43.80281    0.20480    64.99996

 Normal termination of Gaussian 16 at Sun Dec 13 13:21:47 2020.
