 Gaussian 16, Revision A.03,

 -----------------------------------------------------------
 # opt freq B3LYP/6-31G(d) empiricaldispersion=gd3bj scf=xqc
 -----------------------------------------------------------

 --------------------------------
 CID_107116940_JID_10202_neutraal
 --------------------------------
 Symbolic Z-matrix:
 Charge =  0 Multiplicity = 1

 SCF Done:  E(RB3LYP) =  -1280.12116373     A.U. after   14 cycles
 SCF Done:  E(RB3LYP) =  -1280.12750484     A.U. after   12 cycles
 SCF Done:  E(RB3LYP) =  -1280.12926627     A.U. after   12 cycles
 SCF Done:  E(RB3LYP) =  -1280.13026180     A.U. after   12 cycles
 SCF Done:  E(RB3LYP) =  -1280.13063596     A.U. after   11 cycles
 SCF Done:  E(RB3LYP) =  -1280.13074098     A.U. after   12 cycles
 SCF Done:  E(RB3LYP) =  -1280.13078899     A.U. after   10 cycles
 SCF Done:  E(RB3LYP) =  -1280.13080806     A.U. after   10 cycles
 SCF Done:  E(RB3LYP) =  -1280.13081680     A.U. after    9 cycles
 SCF Done:  E(RB3LYP) =  -1280.13081974     A.U. after    9 cycles
 SCF Done:  E(RB3LYP) =  -1280.13082062     A.U. after   10 cycles
 SCF Done:  E(RB3LYP) =  -1280.13082052     A.U. after   10 cycles
 SCF Done:  E(RB3LYP) =  -1280.13082046     A.U. after    8 cycles
 SCF Done:  E(RB3LYP) =  -1280.13082036     A.U. after    9 cycles
 SCF Done:  E(RB3LYP) =  -1280.13082055     A.U. after   10 cycles
 SCF Done:  E(RB3LYP) =  -1280.13082047     A.U. after    9 cycles
 Optimization completed on the basis of negligible forces.
    -- Stationary point found.
 Normal termination of Gaussian 16 at Mon Dec 14 13:45:52 2020.

 --------------------------------------------------------------------
 #N Geom=AllCheck Guess=TCheck SCRF=Check GenChk RB3LYP/6-31G(d) Freq
 --------------------------------------------------------------------

 Structure from the checkpoint file:  "JID_10202.chk"
 --------------------------------
 CID_107116940_JID_10202_neutraal
 --------------------------------
 Charge =  0 Multiplicity = 1

 SCF Done:  E(RB3LYP) =  -1280.13082047     A.U. after    1 cycles

  Exact polarizability: 236.387  -1.504 183.833   9.694  -1.751 134.782
 Approx polarizability: 305.932 -11.133 316.217  28.840  -4.372 205.276

                      1                      2                      3
                      A                      A                      A
 Frequencies --     12.4043                31.3486                48.5305
 Red. masses --      4.0760                 4.5781                 3.8279
 Frc consts  --      0.0004                 0.0027                 0.0053
 IR Inten    --      0.6072                 0.9905                 0.6506

                      4                      5                      6
                      A                      A                      A
 Frequencies --     55.6848                69.1636                96.8764
 Red. masses --      2.7178                 4.4988                 3.9151
 Frc consts  --      0.0050                 0.0127                 0.0216
 IR Inten    --      0.9807                 0.9083                 0.0945

                      7                      8                      9
                      A                      A                      A
 Frequencies --    137.0178               158.4308               190.5406
 Red. masses --      4.0375                 3.9814                 1.9161
 Frc consts  --      0.0447                 0.0589                 0.0410
 IR Inten    --      0.2304                 1.8219                 1.3329

                     10                     11                     12
                      A                      A                      A
 Frequencies --    206.2904               213.9660               222.0489
 Red. masses --      2.8356                 1.2215                 4.1006
 Frc consts  --      0.0711                 0.0329                 0.1191
 IR Inten    --      1.0322                 0.8505                 1.7289

                     13                     14                     15
                      A                      A                      A
 Frequencies --    230.9184               243.9179               266.1815
 Red. masses --      2.7426                 2.1023                 3.4443
 Frc consts  --      0.0862                 0.0737                 0.1438
 IR Inten    --      0.5857                 3.5244                 1.7914

                     16                     17                     18
                      A                      A                      A
 Frequencies --    294.4543               310.9169               329.5792
 Red. masses --      3.1436                 3.2117                 5.3650
 Frc consts  --      0.1606                 0.1829                 0.3434
 IR Inten    --      0.5642                 2.4850                 2.8086

                     19                     20                     21
                      A                      A                      A
 Frequencies --    350.8727               354.6212               365.9056
 Red. masses --      2.8693                 3.3259                 2.9143
 Frc consts  --      0.2081                 0.2464                 0.2299
 IR Inten    --      3.7967                 8.2678                 0.7145

                     22                     23                     24
                      A                      A                      A
 Frequencies --    377.3704               418.3736               462.6182
 Red. masses --      3.5746                 2.3354                 3.6224
 Frc consts  --      0.2999                 0.2408                 0.4568
 IR Inten    --      4.5870                 0.7481                 0.3945

                     25                     26                     27
                      A                      A                      A
 Frequencies --    473.3520               476.9842               492.4846
 Red. masses --      5.4691                 4.7090                 2.0715
 Frc consts  --      0.7220                 0.6312                 0.2960
 IR Inten    --      9.1937                 7.1079                 2.0843

                     28                     29                     30
                      A                      A                      A
 Frequencies --    512.9142               532.6262               550.7166
 Red. masses --      1.2377                 3.7973                 3.1452
 Frc consts  --      0.1919                 0.6347                 0.5620
 IR Inten    --     47.6864                 2.8151                15.2806

                     31                     32                     33
                      A                      A                      A
 Frequencies --    563.1631               585.7894               587.5026
 Red. masses --      3.4063                 6.3721                 5.0117
 Frc consts  --      0.6365                 1.2883                 1.0192
 IR Inten    --     25.5549                61.1927                 7.4170

                     34                     35                     36
                      A                      A                      A
 Frequencies --    622.2632               657.2194               674.9076
 Red. masses --      1.4519                 3.3389                 4.6145
 Frc consts  --      0.3312                 0.8497                 1.2384
 IR Inten    --    145.3059                21.5692                83.8950

                     37                     38                     39
                      A                      A                      A
 Frequencies --    711.7481               734.1782               774.0361
 Red. masses --      4.9554                 3.7324                 1.5823
 Frc consts  --      1.4790                 1.1853                 0.5585
 IR Inten    --     84.9519               185.9896                17.8435

                     40                     41                     42
                      A                      A                      A
 Frequencies --    791.0780               811.6986               834.6336
 Red. masses --      1.4868                 3.5022                 2.5434
 Frc consts  --      0.5482                 1.3595                 1.0439
 IR Inten    --      0.6289                 0.9907                16.6941

                     43                     44                     45
                      A                      A                      A
 Frequencies --    855.8511               874.9928               886.8955
 Red. masses --      4.8579                 2.2028                 2.4940
 Frc consts  --      2.0965                 0.9936                 1.1558
 IR Inten    --     16.0809                 3.4724                 1.2371

                     46                     47                     48
                      A                      A                      A
 Frequencies --    897.2353               905.6678               940.3720
 Red. masses --      1.8805                 1.4217                 3.3215
 Frc consts  --      0.8919                 0.6871                 1.7306
 IR Inten    --     10.5127                 4.0427               168.5100

                     49                     50                     51
                      A                      A                      A
 Frequencies --    946.5390               951.7074              1001.2953
 Red. masses --      1.2433                 1.4144                 3.4031
 Frc consts  --      0.6563                 0.7548                 2.0102
 IR Inten    --      0.7926                 5.1887                50.8567

                     52                     53                     54
                      A                      A                      A
 Frequencies --   1044.0242              1049.9044              1058.8739
 Red. masses --      2.5288                 1.9058                 1.6135
 Frc consts  --      1.6240                 1.2377                 1.0659
 IR Inten    --      7.7447                 4.4477                 8.2624

                     55                     56                     57
                      A                      A                      A
 Frequencies --   1078.3786              1093.3816              1096.3160
 Red. masses --      1.5484                 5.8790                 1.7093
 Frc consts  --      1.0609                 4.1409                 1.2104
 IR Inten    --     13.8528               105.8552                 4.2094

                     58                     59                     60
                      A                      A                      A
 Frequencies --   1118.5867              1124.3267              1131.1680
 Red. masses --      1.8609                 2.1214                 1.2847
 Frc consts  --      1.3718                 1.5800                 0.9685
 IR Inten    --      8.6372                53.2975                 4.5644

                     61                     62                     63
                      A                      A                      A
 Frequencies --   1154.5856              1165.6644              1184.5481
 Red. masses --      1.0647                 2.2034                 1.3952
 Frc consts  --      0.8363                 1.7639                 1.1534
 IR Inten    --      0.7114                29.0656                 4.4008

                     64                     65                     66
                      A                      A                      A
 Frequencies --   1187.7265              1194.6792              1219.4893
 Red. masses --      1.6011                 1.2105                 3.7413
 Frc consts  --      1.3308                 1.0179                 3.2782
 IR Inten    --      6.3993                32.7130                46.5908

                     67                     68                     69
                      A                      A                      A
 Frequencies --   1251.9649              1277.0746              1283.6062
 Red. masses --      4.0273                 1.3116                 1.9907
 Frc consts  --      3.7192                 1.2603                 1.9325
 IR Inten    --    426.7967                12.3868                23.3619

                     70                     71                     72
                      A                      A                      A
 Frequencies --   1292.5244              1294.7056              1307.5027
 Red. masses --      4.7892                 2.6295                 1.2258
 Frc consts  --      4.7140                 2.5970                 1.2347
 IR Inten    --     78.3277                 8.5590                 3.9667

                     73                     74                     75
                      A                      A                      A
 Frequencies --   1312.8767              1335.3293              1367.2273
 Red. masses --      1.2152                 2.1035                 1.4679
 Frc consts  --      1.2341                 2.2099                 1.6167
 IR Inten    --      6.5391                51.1209                 2.9629

                     76                     77                     78
                      A                      A                      A
 Frequencies --   1375.3518              1382.9622              1399.8056
 Red. masses --      1.4353                 1.4874                 3.0913
 Frc consts  --      1.5997                 1.6761                 3.5688
 IR Inten    --      4.3800                 8.8357                 8.1062

                     79                     80                     81
                      A                      A                      A
 Frequencies --   1401.3857              1414.2441              1416.3059
 Red. masses --      1.5660                 1.5352                 1.4302
 Frc consts  --      1.8120                 1.8091                 1.6902
 IR Inten    --      0.3419                 2.1058                 2.1226

                     82                     83                     84
                      A                      A                      A
 Frequencies --   1421.7894              1460.8728              1490.8311
 Red. masses --      1.3951                 1.1463                 1.1591
 Frc consts  --      1.6616                 1.4414                 1.5178
 IR Inten    --     11.9401                 0.4647                 0.7924

                     85                     86                     87
                      A                      A                      A
 Frequencies --   1503.3193              1504.0569              1512.5309
 Red. masses --      1.1710                 1.9275                 1.1028
 Frc consts  --      1.5593                 2.5690                 1.4864
 IR Inten    --      2.1312                 7.0686                 7.7545

                     88                     89                     90
                      A                      A                      A
 Frequencies --   1514.2452              1518.2435              1520.8251
 Red. masses --      1.1290                 1.0979                 1.1017
 Frc consts  --      1.5253                 1.4911                 1.5013
 IR Inten    --     19.8382                 5.1181                14.4043

                     91                     92                     93
                      A                      A                      A
 Frequencies --   1522.5228              1530.0572              1532.8274
 Red. masses --      1.0776                 1.0438                 1.7204
 Frc consts  --      1.4717                 1.4398                 2.3815
 IR Inten    --      5.3690                13.1841               127.3272

                     94                     95                     96
                      A                      A                      A
 Frequencies --   1536.4135              1542.9125              1624.1754
 Red. masses --      1.3825                 1.1245                 2.9922
 Frc consts  --      1.9228                 1.5773                 4.6505
 IR Inten    --     34.5105                24.1861                41.1690

                     97                     98                     99
                      A                      A                      A
 Frequencies --   1642.8168              1675.1369              3021.6982
 Red. masses --      2.6567                 2.2334                 1.0494
 Frc consts  --      4.2244                 3.6925                 5.6456
 IR Inten    --     27.3777                79.1354                58.2353

                    100                    101                    102
                      A                      A                      A
 Frequencies --   3023.1079              3032.8850              3035.7174
 Red. masses --      1.0679                 1.0460                 1.0776
 Frc consts  --      5.7502                 5.6687                 5.8508
 IR Inten    --     24.7611                51.1937                11.9435

                    103                    104                    105
                      A                      A                      A
 Frequencies --   3042.2421              3046.4126              3048.1323
 Red. masses --      1.0678                 1.0626                 1.0620
 Frc consts  --      5.8230                 5.8101                 5.8138
 IR Inten    --     11.5148                15.3054                10.5097

                    106                    107                    108
                      A                      A                      A
 Frequencies --   3055.4808              3078.3411              3085.4352
 Red. masses --      1.0733                 1.0926                 1.1005
 Frc consts  --      5.9037                 6.1004                 6.1725
 IR Inten    --     71.0453                51.4098                57.0553

                    109                    110                    111
                      A                      A                      A
 Frequencies --   3090.7671              3098.2390              3102.7601
 Red. masses --      1.1010                 1.1012                 1.0980
 Frc consts  --      6.1969                 6.2281                 6.2278
 IR Inten    --     45.5755                43.6157                50.8443

                    112                    113                    114
                      A                      A                      A
 Frequencies --   3111.5728              3115.2088              3168.2201
 Red. masses --      1.0903                 1.0930                 1.1006
 Frc consts  --      6.2197                 6.2498                 6.5089
 IR Inten    --     21.1887                23.9827                 6.5975

                    115                    116                    117
                      A                      A                      A
 Frequencies --   3184.5804              3206.4458              3222.0966
 Red. masses --      1.0991                 1.0868                 1.0922
 Frc consts  --      6.5671                 6.5835                 6.6810
 IR Inten    --      2.3856                10.3274                11.1585

                    118                    119                    120
                      A                      A                      A
 Frequencies --   3237.5601              3541.8552              3669.8096
 Red. masses --      1.0938                 1.0485                 1.0989
 Frc consts  --      6.7552                 7.7494                 8.7198
 IR Inten    --      4.1216                67.4761               107.1223

 - Thermochemistry -
 -------------------
 Temperature   298.150 Kelvin.  Pressure   1.00000 Atm.
 Atom     1 has atomic number  6 and mass  12.00000

 Molecular mass:   298.13511 amu.
 Principal axes and moments of inertia in atomic units:
                           1         2         3
     Eigenvalues --  2603.68517********************
           X            0.99992  -0.00136  -0.01246
           Y            0.00097   0.99952  -0.03104
           Z            0.01250   0.03103   0.99944
 This molecule is an asymmetric top.
 Rotational symmetry number  1.
 Warning -- assumption of classical behavior for rotation
           may cause significant error
 Rotational temperatures (Kelvin)      0.03327     0.00790     0.00743
 Rotational constants (GHZ):           0.69315     0.16464     0.15491
 Zero-point vibrational energy     941356.7 (Joules/Mol)
                                  224.98965 (Kcal/Mol)
 Warning -- explicit consideration of  33 degrees of freedom as
           vibrations may cause significant error
 Vibrational temperatures:     17.85    45.10    69.82    80.12    99.51
          (Kelvin)            139.38   197.14   227.95   274.15   296.81
                              307.85   319.48   332.24   350.94   382.98
                              423.65   447.34   474.19   504.83   510.22
                              526.46   542.95   601.95   665.60   681.05
                              686.27   708.58   737.97   766.33   792.36
                              810.27   842.82   845.29   895.30   945.59
                              971.04  1024.05  1056.32  1113.67  1138.18
                             1167.85  1200.85  1231.38  1258.92  1276.04
                             1290.92  1303.05  1352.99  1361.86  1369.29
                             1440.64  1502.12  1510.58  1523.48  1551.55
                             1573.13  1577.35  1609.40  1617.66  1627.50
                             1661.19  1677.13  1704.30  1708.87  1718.88
                             1754.57  1801.30  1837.43  1846.82  1859.65
                             1862.79  1881.20  1888.94  1921.24  1967.14
                             1978.82  1989.77  2014.01  2016.28  2034.78
                             2037.75  2045.64  2101.87  2144.97  2162.94
                             2164.00  2176.19  2178.66  2184.41  2188.13
                             2190.57  2201.41  2205.40  2210.56  2219.91
                             2336.83  2363.65  2410.15  4347.55  4349.58
                             4363.65  4367.72  4377.11  4383.11  4385.58
                             4396.16  4429.05  4439.25  4446.92  4457.67
                             4464.18  4476.86  4482.09  4558.36  4581.90
                             4613.36  4635.88  4658.13  5095.94  5280.04

 Zero-point correction=                           0.358544 (Hartree/Particle)
 Thermal correction to Energy=                    0.378264
 Thermal correction to Enthalpy=                  0.379208
 Thermal correction to Gibbs Free Energy=         0.309289
 Sum of electronic and zero-point Energies=          -1279.772277
 Sum of electronic and thermal Energies=             -1279.752556
 Sum of electronic and thermal Enthalpies=           -1279.751612
 Sum of electronic and thermal Free Energies=        -1279.821532

                     E (Thermal)             CV                S
                      KCal/Mol        Cal/Mol-Kelvin    Cal/Mol-Kelvin
 Total                  237.364             77.077            147.158
 Electronic               0.000              0.000              0.000
 Translational            0.889              2.981             42.974
 Rotational               0.889              2.981             34.163
 Vibrational            235.587             71.116             70.021
 Vibration     1          0.593              1.987              7.583
 Vibration     2          0.594              1.983              5.742
 Vibration     3          0.595              1.978              4.876
 Vibration     4          0.596              1.975              4.605
 Vibration     5          0.598              1.969              4.177
 Vibration     6          0.603              1.951              3.516
 Vibration     7          0.614              1.916              2.845
 Vibration     8          0.621              1.893              2.568
 Vibration     9          0.634              1.853              2.223
 Vibration    10          0.641              1.831              2.076
 Vibration    11          0.644              1.820              2.010
 Vibration    12          0.648              1.808              1.942
 Vibration    13          0.653              1.794              1.872
 Vibration    14          0.659              1.773              1.774
 Vibration    15          0.672              1.735              1.621
 Vibration    16          0.689              1.684              1.448
 Vibration    17          0.700              1.653              1.357
 Vibration    18          0.712              1.616              1.262
 Vibration    19          0.728              1.573              1.162
 Vibration    20          0.730              1.566              1.146
 Vibration    21          0.739              1.542              1.097
 Vibration    22          0.748              1.518              1.050
 Vibration    23          0.781              1.430              0.898
 Vibration    24          0.820              1.333              0.759
 Vibration    25          0.830              1.309              0.728
 Vibration    26          0.834              1.301              0.718
 Vibration    27          0.848              1.267              0.677
 Vibration    28          0.868              1.221              0.627
 Vibration    29          0.888              1.178              0.581
 Vibration    30          0.906              1.138              0.543
 Vibration    31          0.919              1.111              0.518
 Vibration    32          0.943              1.062              0.475
 Vibration    33          0.945              1.058              0.472

 Optimization completed.
    -- Stationary point found.
 Normal termination of Gaussian 16 at Mon Dec 14 14:08:43 2020.

 ----------------------------------------------------------------------
 # B3LYP/6-311++G(d,p) empiricaldispersion=gd3bj scf=xqc pop=npa geom=c
 heck
 ----------------------------------------------------------------------

 ----------------------------------------
 CID_107116940_JID_10202_Energie_neutraal
 ----------------------------------------
 Structure from the checkpoint file:  "JID_10202.chk"
 Charge =  0 Multiplicity = 1

 SCF Done:  E(RB3LYP) =  -1280.40523571     A.U. after   16 cycles
 Normal termination of Gaussian 16 at Mon Dec 14 14:19:05 2020.

 ----------------------------------------------------------------------
 # B3LYP/6-311++G(d,p) empiricaldispersion=gd3bj scf=xqc pop=npa geom=c
 heck
 ----------------------------------------------------------------------

 --------------------------------------
 CID_107116940_JID_10202_Energie_kation
 --------------------------------------
 Structure from the checkpoint file:  "JID_10202.chk"
 Charge =  1 Multiplicity = 2

 SCF Done:  E(UB3LYP) =  -1280.12610434     A.U. after   26 cycles
 Normal termination of Gaussian 16 at Mon Dec 14 14:41:27 2020.
 Gaussian 16:  ES64L-G16RevA.03 25-Dec-2016

 ----------------------------------------------------------------------
 # B3LYP/6-311++G(d,p) empiricaldispersion=gd3bj scf=xqc pop=npa geom=c
 heck
 ----------------------------------------------------------------------

 -------------------------------------
 CID_107116940_JID_10202_Energie_anion
 -------------------------------------
 Structure from the checkpoint file:  "JID_10202.chk"
 Charge = -1 Multiplicity = 2

                         Standard orientation:
 ---------------------------------------------------------------------
 Center     Atomic      Atomic             Coordinates (Angstroms)
 Number     Number       Type             X           Y           Z
 ---------------------------------------------------------------------
      1          6           0       -5.146758   -0.585674    0.514998
      2          7           0       -3.715603   -0.347878    0.742821
      3          6           0       -3.127211   -1.244276    1.742992
      4         16           0       -2.812886   -0.257029   -0.696118
      5          8           0       -2.391774   -1.605622   -1.136198
      6          8           0       -3.597112    0.575166   -1.612253
      7          6           0       -1.368217    0.645018   -0.173720
      8          6           0       -1.478132    2.044078   -0.182276
      9          6           0       -0.395230    2.823631    0.182805
     10          6           0        0.809936    2.208211    0.552774
     11          6           0        0.924765    0.827425    0.554288
     12          6           0       -0.170353   -0.003374    0.186803
     13          7           0       -0.004100   -1.367347    0.260380
     14          8           0        2.052956    0.134163    0.912912
     15          6           0        3.352224    0.713204    0.662983
     16          6           0        4.359708   -0.277072    1.247985
     17          6           0        4.386171   -1.603062    0.474617
     18          6           0        4.611635   -1.374598   -1.026280
     19          6           0        3.578065   -0.398969   -1.605401
     20          6           0        3.576688    0.929584   -0.837808
     21          1           0       -5.664032   -0.405243    1.461958
     22          1           0       -5.357134   -1.613884    0.185167
     23          1           0       -5.513890    0.117186   -0.232354
     24          1           0       -3.218200   -2.302974    1.462307
     25          1           0       -2.071373   -1.007817    1.885366
     26          1           0       -3.649990   -1.075193    2.688815
     27          1           0       -2.415617    2.490430   -0.491891
     28          1           0       -0.470287    3.905844    0.178073
     29          1           0        1.662095    2.817940    0.832128
     30          1           0       -0.624819   -1.919022   -0.321046
     31          1           0        0.961011   -1.661732    0.315410
     32          1           0        3.424735    1.665362    1.203953
     33          1           0        5.350994    0.193896    1.208648
     34          1           0        4.122739   -0.446664    2.304118
     35          1           0        3.433716   -2.126791    0.626553
     36          1           0        5.167917   -2.253333    0.884741
     37          1           0        4.577685   -2.329638   -1.564334
     38          1           0        5.619975   -0.962899   -1.180793
     39          1           0        2.577434   -0.847222   -1.550537
     40          1           0        3.778696   -0.212790   -2.666737
     41          1           0        2.814657    1.606352   -1.237775
     42          1           0        4.545479    1.432818   -0.960533
 ---------------------------------------------------------------------

 SCF Done:  E(UB3LYP) =  -1280.39983239     A.U. after   32 cycles

 The electronic state is 2-A.
 Alpha  occ. eigenvalues --  -88.95459 -19.04818 -19.01321 -19.01161 -14.24721
 Alpha  occ. eigenvalues --  -14.21392 -10.13476 -10.12235 -10.12025 -10.10930
 Alpha  occ. eigenvalues --  -10.10906 -10.08847 -10.07721 -10.07503 -10.07307
 Alpha  occ. eigenvalues --  -10.07241 -10.07215 -10.06857 -10.06697 -10.06497
 Alpha  occ. eigenvalues --   -8.01643  -5.97923  -5.97905  -5.97722  -1.01314
 Alpha  occ. eigenvalues --   -0.96497  -0.90357  -0.83992  -0.82293  -0.74621
 Alpha  occ. eigenvalues --   -0.73668  -0.67188  -0.65654  -0.65419  -0.63027
 Alpha  occ. eigenvalues --   -0.62140  -0.60280  -0.54710  -0.52881  -0.52060
 Alpha  occ. eigenvalues --   -0.50159  -0.48726  -0.45883  -0.43714  -0.43001
 Alpha  occ. eigenvalues --   -0.40890  -0.40430  -0.39984  -0.38666  -0.38377
 Alpha  occ. eigenvalues --   -0.36929  -0.36540  -0.35676  -0.35477  -0.34488
 Alpha  occ. eigenvalues --   -0.33368  -0.32217  -0.32009  -0.31585  -0.30900
 Alpha  occ. eigenvalues --   -0.30137  -0.29386  -0.29168  -0.29035  -0.28457
 Alpha  occ. eigenvalues --   -0.26818  -0.26198  -0.24731  -0.24400  -0.23964
 Alpha  occ. eigenvalues --   -0.23034  -0.22403  -0.21579  -0.21408  -0.21168
 Alpha  occ. eigenvalues --   -0.20539  -0.19747  -0.16408  -0.14295  -0.10585
 Alpha  occ. eigenvalues --    0.03898
 Alpha virt. eigenvalues --    0.05395   0.06326   0.06894   0.07595   0.07852
 Alpha virt. eigenvalues --    0.08366   0.08872   0.09381   0.09770   0.09967
 Alpha virt. eigenvalues --    0.10298   0.10521   0.11025   0.11464   0.11949

  Beta  occ. eigenvalues --  -88.95445 -19.04815 -19.01295 -19.01139 -14.24700
  Beta  occ. eigenvalues --  -14.21371 -10.13467 -10.12196 -10.11969 -10.10922
  Beta  occ. eigenvalues --  -10.10869 -10.08735 -10.07708 -10.07492 -10.07288
  Beta  occ. eigenvalues --  -10.07233 -10.07195 -10.06776 -10.06717 -10.06315
  Beta  occ. eigenvalues --   -8.01628  -5.97912  -5.97858  -5.97714  -1.01226
  Beta  occ. eigenvalues --   -0.96471  -0.90302  -0.83928  -0.82208  -0.74503
  Beta  occ. eigenvalues --   -0.73567  -0.66986  -0.65536  -0.65377  -0.62979
  Beta  occ. eigenvalues --   -0.61989  -0.60132  -0.54512  -0.52801  -0.51975
  Beta  occ. eigenvalues --   -0.50104  -0.48663  -0.45825  -0.43621  -0.42938
  Beta  occ. eigenvalues --   -0.40759  -0.40366  -0.39912  -0.38599  -0.38337
  Beta  occ. eigenvalues --   -0.36857  -0.36496  -0.35645  -0.35424  -0.34428
  Beta  occ. eigenvalues --   -0.33291  -0.32116  -0.31938  -0.31558  -0.30844
  Beta  occ. eigenvalues --   -0.29970  -0.29336  -0.29130  -0.28973  -0.28353
  Beta  occ. eigenvalues --   -0.26722  -0.26111  -0.24689  -0.24321  -0.23843
  Beta  occ. eigenvalues --   -0.22956  -0.22323  -0.21484  -0.21233  -0.21024
  Beta  occ. eigenvalues --   -0.20462  -0.19652  -0.16262  -0.13605  -0.10173
  Beta virt. eigenvalues --    0.06012   0.06245   0.07202   0.07532   0.07963
  Beta virt. eigenvalues --    0.08143   0.08466   0.08998   0.09532   0.09840
  Beta virt. eigenvalues --    0.10186   0.10507   0.10671   0.11134   0.11549

 Mulliken charges and spin densities:
               1          2
     1  C    0.131738  -0.374334
     2  N   -0.141268   0.170528
     3  C   -0.293659  -0.161074
     4  S    0.490234  -0.380586
     5  O   -0.162674   0.012068
     6  O   -0.198582  -0.009092
     7  C   -0.050976  -0.136256
     8  C   -0.201947   0.143213
     9  C   -0.406664  -0.048083
    10  C    0.224158  -0.059236
    11  C   -0.553145   0.247787
    12  C   -0.087048   0.197064
    13  N   -0.320025   0.017310
    14  O   -0.070704  -0.014376
    15  C   -0.109648   0.508916
    16  C    0.079386  -0.766883
    17  C   -0.333752   0.185360
    18  C    0.550427  -1.103206
    19  C   -0.418861   0.294400
    20  C    0.169911  -0.738791
    21  H   -0.150935   0.298770
    22  H    0.006962   0.129111
    23  H    0.090011   0.076676
    24  H    0.141578   0.058851
    25  H    0.094032   0.047027
    26  H    0.038171   0.107326
    27  H    0.160229   0.022780
    28  H    0.111712   0.044637
    29  H    0.094315   0.006374
    30  H    0.208151   0.060529
    31  H    0.384619  -0.058584
    32  H    0.032913   0.182053
    33  H   -0.191846   0.342628
    34  H    0.108586   0.061778
    35  H    0.062048   0.051454
    36  H   -0.184361   0.366948
    37  H   -0.120233   0.276606
    38  H   -0.089008   0.225321
    39  H    0.115389   0.011438
    40  H    0.036102   0.133153
    41  H    0.153965   0.006155
    42  H   -0.399305   0.564239
 Sum of Mulliken charges =  -1.00000   1.00000

 Dipole moment (field-independent basis, Debye):
    X=             -2.1337    Y=             -0.1123    Z=              2.3212  Tot=              3.1549
 Quadrupole moment (field-independent basis, Debye-Ang):
   XX=           -238.6104   YY=           -156.9790   ZZ=           -159.7751
   XY=              1.6005   XZ=             -2.1277   YZ=             -0.6327

 Summary of Natural Population Analysis:

                                       Natural Population
                Natural  -----------------------------------------------
    Atom  No    Charge         Core      Valence    Rydberg      Total
 -----------------------------------------------------------------------
      C    1   -0.18472      0.99964     2.17546    0.00962     3.18472
      N    2   -0.36249      0.99976     2.84909    0.01364     3.86249
      C    3   -0.18489      0.99963     2.17690    0.00836     3.18489
      S    4    1.11714      4.99914     1.78631    0.09741     6.88286
      O    5   -0.48080      0.99990     3.47535    0.00554     4.48080
      O    6   -0.46517      0.99991     3.45970    0.00557     4.46517
      C    7   -0.15133      0.99935     2.13893    0.01305     3.15133
      C    8   -0.07549      0.99952     2.06566    0.01031     3.07549
      C    9   -0.12855      0.99957     2.11871    0.01027     3.12855
      C   10   -0.09040      0.99953     2.08356    0.00731     3.09040
      C   11    0.14470      0.99935     1.84342    0.01253     2.85530
      C   12    0.08539      0.99943     1.90300    0.01218     2.91461
      N   13   -0.39884      0.99969     2.89062    0.00852     3.89884
      O   14   -0.29966      0.99985     3.28948    0.01032     4.29966
      C   15    0.07180      0.99953     1.91554    0.01313     2.92820
      C   16   -0.19578      0.99960     2.18648    0.00970     3.19578
      C   17   -0.19045      0.99963     2.18200    0.00882     3.19045
      C   18   -0.19029      0.99963     2.18242    0.00824     3.19029
      C   19   -0.19298      0.99963     2.18410    0.00925     3.19298
      C   20   -0.20639      0.99960     2.19805    0.00873     3.20639
      H   21    0.09751      0.00000     0.40122    0.00127     0.40249
      H   22    0.08755      0.00000     0.41109    0.00136     0.41245
      H   23    0.11139      0.00000     0.38749    0.00111     0.38861
      H   24    0.09065      0.00000     0.40778    0.00157     0.40935
      H   25    0.11079      0.00000     0.38797    0.00123     0.38921
      H   26    0.09605      0.00000     0.40275    0.00119     0.40395
      H   27    0.11011      0.00000     0.38875    0.00114     0.38989
      H   28    0.09824      0.00000     0.40095    0.00080     0.40176
      H   29    0.09873      0.00000     0.39990    0.00138     0.40127
      H   30    0.20574      0.00000     0.29237    0.00189     0.29426
      H   31    0.19364      0.00000     0.30446    0.00191     0.30636
      H   32    0.08601      0.00000     0.41219    0.00180     0.41399
      H   33    0.10031      0.00000     0.39840    0.00129     0.39969
      H   34    0.10207      0.00000     0.39696    0.00098     0.39793
      H   35    0.09400      0.00000     0.40458    0.00143     0.40600
      H   36    0.09917      0.00000     0.39984    0.00098     0.40083
      H   37    0.09748      0.00000     0.40163    0.00089     0.40252
      H   38    0.09398      0.00000     0.40450    0.00152     0.40602
      H   39    0.09707      0.00000     0.40120    0.00173     0.40293
      H   40    0.09896      0.00000     0.40024    0.00079     0.40104
      H   41    0.10863      0.00000     0.39029    0.00109     0.39137
      H   42    0.10110      0.00000     0.39743    0.00147     0.39890
 =======================================================================
   * Total *   -0.00000     23.99190    55.69678    0.31132    80.00000

 Normal termination of Gaussian 16 at Mon Dec 14 15:08:46 2020.
