 Gaussian 16, Revision A.03,

 -----------------------------------------------------------
 # opt freq B3LYP/6-31G(d) empiricaldispersion=gd3bj scf=xqc
 -----------------------------------------------------------

 -------------------------------
 CID_137238574_JID_3667_neutraal
 -------------------------------
 Symbolic Z-matrix:
 Charge =  0 Multiplicity = 1

 SCF Done:  E(RB3LYP) =  -962.811494261     A.U. after   15 cycles
 SCF Done:  E(RB3LYP) =  -962.814239178     A.U. after   12 cycles
 SCF Done:  E(RB3LYP) =  -962.814720539     A.U. after   11 cycles
 SCF Done:  E(RB3LYP) =  -962.814814893     A.U. after   11 cycles
 SCF Done:  E(RB3LYP) =  -962.814888778     A.U. after   11 cycles
 SCF Done:  E(RB3LYP) =  -962.814960035     A.U. after   11 cycles
 SCF Done:  E(RB3LYP) =  -962.815080767     A.U. after   12 cycles
 SCF Done:  E(RB3LYP) =  -962.815253441     A.U. after   11 cycles
 SCF Done:  E(RB3LYP) =  -962.815564779     A.U. after   13 cycles
 SCF Done:  E(RB3LYP) =  -962.815589814     A.U. after   10 cycles
 SCF Done:  E(RB3LYP) =  -962.815597693     A.U. after   10 cycles
 SCF Done:  E(RB3LYP) =  -962.815600356     A.U. after    9 cycles
 SCF Done:  E(RB3LYP) =  -962.815600493     A.U. after    7 cycles
 Optimization completed.
    -- Stationary point found.
 Normal termination of Gaussian 16 at Wed Dec  9 23:54:37 2020.

 --------------------------------------------------------------------
 #N Geom=AllCheck Guess=TCheck SCRF=Check GenChk RB3LYP/6-31G(d) Freq
 --------------------------------------------------------------------

 Structure from the checkpoint file:  "JID_3667.chk"
 -------------------------------
 CID_137238574_JID_3667_neutraal
 -------------------------------
 Charge =  0 Multiplicity = 1

 SCF Done:  E(RB3LYP) =  -962.815600493     A.U. after    1 cycles

  Exact polarizability: 198.613  -3.313 127.996   0.001   0.002  51.385
 Approx polarizability: 297.561 -28.959 252.573   0.001   0.004  81.934

                      1                      2                      3
                      A                      A                      A
 Frequencies --     51.0073                74.2158                92.3564
 Red. masses --      8.3643                 6.5935                 3.9095
 Frc consts  --      0.0128                 0.0214                 0.0196
 IR Inten    --      0.3162                 0.1298                 0.0153

                      4                      5                      6
                      A                      A                      A
 Frequencies --    110.6142               159.7459               167.3949
 Red. masses --      1.1023                 7.9842                 8.5541
 Frc consts  --      0.0079                 0.1200                 0.1412
 IR Inten    --      0.2414                13.5585                13.3828

                      7                      8                      9
                      A                      A                      A
 Frequencies --    219.8632               278.9085               300.0706
 Red. masses --      3.6051                 4.0194                 4.3267
 Frc consts  --      0.1027                 0.1842                 0.2295
 IR Inten    --      0.0431                11.5299                 1.4100

                     10                     11                     12
                      A                      A                      A
 Frequencies --    348.0893               366.9847               454.7849
 Red. masses --      5.0932                 4.8052                 6.8216
 Frc consts  --      0.3636                 0.3813                 0.8313
 IR Inten    --     24.1909                 0.0572                 2.0275

                     13                     14                     15
                      A                      A                      A
 Frequencies --    518.9080               576.8558               587.5196
 Red. masses --      7.1609                 9.0891                 6.8126
 Frc consts  --      1.1361                 1.7820                 1.3855
 IR Inten    --      0.9686                 0.1459                 1.1132

                     16                     17                     18
                      A                      A                      A
 Frequencies --    645.7878               678.6635               685.0821
 Red. masses --      3.7068                 1.8973                 2.1130
 Frc consts  --      0.9108                 0.5149                 0.5843
 IR Inten    --      1.3254                82.1799                17.9134

                     19                     20                     21
                      A                      A                      A
 Frequencies --    735.5867               747.5062               784.2652
 Red. masses --     10.0514                 5.8461                 4.7577
 Frc consts  --      3.2044                 1.9246                 1.7241
 IR Inten    --      1.2448                 0.5994                51.7669

                     22                     23                     24
                      A                      A                      A
 Frequencies --    804.2104               873.4413               922.4665
 Red. masses --      9.4043                 1.3439                 9.1489
 Frc consts  --      3.5836                 0.6041                 4.5869
 IR Inten    --     23.1823                19.5269                31.9636

                     25                     26                     27
                      A                      A                      A
 Frequencies --   1006.6983              1008.9468              1041.8786
 Red. masses --      3.8951                 1.7126                 1.8184
 Frc consts  --      2.3258                 1.0271                 1.1630
 IR Inten    --     12.5915                 0.0236                 4.7589

                     28                     29                     30
                      A                      A                      A
 Frequencies --   1048.2057              1078.1402              1091.1175
 Red. masses --      3.6099                 1.5552                 3.3582
 Frc consts  --      2.3369                 1.0651                 2.3556
 IR Inten    --      4.3568                 3.5755                12.8156

                     31                     32                     33
                      A                      A                      A
 Frequencies --   1210.9942              1238.5493              1322.6171
 Red. masses --      1.7779                 2.4929                 3.6669
 Frc consts  --      1.5362                 2.2531                 3.7794
 IR Inten    --     21.9133               310.1000                 4.8254

                     34                     35                     36
                      A                      A                      A
 Frequencies --   1338.8129              1392.9231              1411.4806
 Red. masses --      4.5009                 2.1115                 6.2956
 Frc consts  --      4.7533                 2.4138                 7.3899
 IR Inten    --     77.9621                 1.3843               112.7840

                     37                     38                     39
                      A                      A                      A
 Frequencies --   1432.0241              1457.3880              1472.6027
 Red. masses --      1.5620                 2.7186                 3.4586
 Frc consts  --      1.8873                 3.4021                 4.4190
 IR Inten    --      6.7885                 4.6198                24.5031

                     40                     41                     42
                      A                      A                      A
 Frequencies --   1494.9539              1506.9271              1543.4854
 Red. masses --      1.5376                 1.0445                 2.7293
 Frc consts  --      2.0247                 1.3975                 3.8310
 IR Inten    --     29.3408                 7.8090                51.0513

                     43                     44                     45
                      A                      A                      A
 Frequencies --   1576.2739              1619.8721              1767.7039
 Red. masses --      5.1201                 7.2275                 9.0522
 Frc consts  --      7.4954                11.1737                16.6656
 IR Inten    --     47.3987                25.7935               352.1030

                     46                     47                     48
                      A                      A                      A
 Frequencies --   2968.4282              3066.0385              3123.4177
 Red. masses --      1.0859                 1.0376                 1.1012
 Frc consts  --      5.6378                 5.7472                 6.3294
 IR Inten    --    135.6027                10.6806                 9.1835

                     49                     50                     51
                      A                      A                      A
 Frequencies --   3173.3674              3265.7774              3630.7345
 Red. masses --      1.1017                 1.0970                 1.0810
 Frc consts  --      6.5364                 6.8934                 8.3960
 IR Inten    --      5.0353                 4.2287                89.3981

 - Thermochemistry -
 -------------------
 Temperature   298.150 Kelvin.  Pressure   1.00000 Atm.
 Atom     1 has atomic number  6 and mass  12.00000

 Molecular mass:   194.02623 amu.
 Principal axes and moments of inertia in atomic units:
                           1         2         3
     Eigenvalues --  1110.421514662.982685762.17912
           X            0.99951   0.03135  -0.00000
           Y           -0.03135   0.99951  -0.00000
           Z            0.00000   0.00000   1.00000
 This molecule is an asymmetric top.
 Rotational symmetry number  1.
 Warning -- assumption of classical behavior for rotation
           may cause significant error
 Rotational temperatures (Kelvin)      0.07800     0.01857     0.01503
 Rotational constants (GHZ):           1.62528     0.38704     0.31320
 Zero-point vibrational energy     349750.3 (Joules/Mol)
                                   83.59233 (Kcal/Mol)
 Warning -- explicit consideration of  15 degrees of freedom as
           vibrations may cause significant error
 Vibrational temperatures:     73.39   106.78   132.88   159.15   229.84
          (Kelvin)            240.84   316.33   401.29   431.73   500.82
                              528.01   654.33   746.59   829.97   845.31
                              929.14   976.45   985.68  1058.35  1075.49
                             1128.38  1157.08  1256.69  1327.22  1448.41
                             1451.65  1499.03  1508.13  1551.20  1569.87
                             1742.35  1782.00  1902.95  1926.25  2004.11
                             2030.81  2060.36  2096.86  2118.75  2150.91
                             2168.13  2220.73  2267.91  2330.63  2543.33
                             4270.91  4411.35  4493.90  4565.77  4698.73
                             5223.82

 Zero-point correction=                           0.133213 (Hartree/Particle)
 Thermal correction to Energy=                    0.144413
 Thermal correction to Enthalpy=                  0.145357
 Thermal correction to Gibbs Free Energy=         0.094666
 Sum of electronic and zero-point Energies=           -962.682388
 Sum of electronic and thermal Energies=              -962.671187
 Sum of electronic and thermal Enthalpies=            -962.670243
 Sum of electronic and thermal Free Energies=         -962.720935

                     E (Thermal)             CV                S
                      KCal/Mol        Cal/Mol-Kelvin    Cal/Mol-Kelvin
 Total                   90.621             40.541            106.690
 Electronic               0.000              0.000              0.000
 Translational            0.889              2.981             41.694
 Rotational               0.889              2.981             31.768
 Vibrational             88.843             34.579             33.229
 Vibration     1          0.595              1.977              4.778
 Vibration     2          0.599              1.966              4.038
 Vibration     3          0.602              1.955              3.610
 Vibration     4          0.606              1.941              3.258
 Vibration     5          0.622              1.892              2.553
 Vibration     6          0.624              1.883              2.465
 Vibration     7          0.647              1.811              1.960
 Vibration     8          0.679              1.713              1.540
 Vibration     9          0.693              1.674              1.417
 Vibration    10          0.726              1.579              1.175
 Vibration    11          0.740              1.540              1.092
 Vibration    12          0.813              1.350              0.781
 Vibration    13          0.874              1.208              0.612
 Vibration    14          0.933              1.081              0.491
 Vibration    15          0.945              1.058              0.472

 Optimization completed.
    -- Stationary point found.
 Normal termination of Gaussian 16 at Wed Dec  9 23:58:11 2020.

 ----------------------------------------------------------------------
 # B3LYP/6-311++G(d,p) empiricaldispersion=gd3bj scf=xqc pop=npa geom=c
 heck
 ----------------------------------------------------------------------

 ---------------------------------------
 CID_137238574_JID_3667_Energie_neutraal
 ---------------------------------------
 Structure from the checkpoint file:  "JID_3667.chk"
 Charge =  0 Multiplicity = 1

 SCF Done:  E(RB3LYP) =  -962.996548778     A.U. after   15 cycles
 Normal termination of Gaussian 16 at Wed Dec  9 23:59:24 2020.

 ----------------------------------------------------------------------
 # B3LYP/6-311++G(d,p) empiricaldispersion=gd3bj scf=xqc pop=npa geom=c
 heck
 ----------------------------------------------------------------------

 -------------------------------------
 CID_137238574_JID_3667_Energie_kation
 -------------------------------------
 Structure from the checkpoint file:  "JID_3667.chk"
 Charge =  1 Multiplicity = 2

 SCF Done:  E(UB3LYP) =  -962.672967246     A.U. after   23 cycles
 Normal termination of Gaussian 16 at Thu Dec 10 00:02:02 2020.
 Gaussian 16:  ES64L-G16RevA.03 25-Dec-2016

 ----------------------------------------------------------------------
 # B3LYP/6-311++G(d,p) empiricaldispersion=gd3bj scf=xqc pop=npa geom=c
 heck
 ----------------------------------------------------------------------

 ------------------------------------
 CID_137238574_JID_3667_Energie_anion
 ------------------------------------
 Structure from the checkpoint file:  "JID_3667.chk"
 Charge = -1 Multiplicity = 2

                         Standard orientation:
 ---------------------------------------------------------------------
 Center     Atomic      Atomic             Coordinates (Angstroms)
 Number     Number       Type             X           Y           Z
 ---------------------------------------------------------------------
      1          6           0        3.559649    2.085537   -0.000035
      2          6           0        2.719024    0.847317    0.000143
      3          7           0        3.270222   -0.350265    0.000006
      4         16           0        2.045863   -1.501796   -0.000073
      5          6           0        0.829394   -0.258847    0.000032
      6          7           0        1.345352    0.948632    0.000045
      7          6           0       -0.589585   -0.521216    0.000037
      8          7           0       -1.159175   -1.729720    0.000026
      9          6           0       -2.497333   -1.493664    0.000035
     10          6           0       -2.757345   -0.125064    0.000013
     11          7           0       -1.515969    0.470239    0.000022
     12          6           0       -3.978390    0.659493   -0.000008
     13          8           0       -3.981548    1.881130   -0.000071
     14          1           0        3.337740    2.694847   -0.882751
     15          1           0        3.338962    2.694366    0.883299
     16          1           0        4.617914    1.820468   -0.000862
     17          1           0       -3.216310   -2.302005    0.000029
     18          1           0       -1.338076    1.467080    0.000066
     19          1           0       -4.917154    0.071398   -0.000036
 ---------------------------------------------------------------------

 SCF Done:  E(UB3LYP) =  -963.043187809     A.U. after   23 cycles

 The electronic state is 2-A.
 Alpha  occ. eigenvalues --  -88.75402 -18.95966 -14.22241 -14.18831 -14.17350
 Alpha  occ. eigenvalues --  -14.17297 -10.11157 -10.10179 -10.09904 -10.09612
 Alpha  occ. eigenvalues --  -10.07128 -10.06924 -10.06637  -7.83920  -5.80309
 Alpha  occ. eigenvalues --   -5.79832  -5.79472  -0.90162  -0.88595  -0.86701
 Alpha  occ. eigenvalues --   -0.74888  -0.73857  -0.67400  -0.63424  -0.58563
 Alpha  occ. eigenvalues --   -0.53025  -0.49436  -0.47686  -0.44130  -0.43129
 Alpha  occ. eigenvalues --   -0.38154  -0.34098  -0.33630  -0.33042  -0.32026
 Alpha  occ. eigenvalues --   -0.31724  -0.30342  -0.28581  -0.27803  -0.27518
 Alpha  occ. eigenvalues --   -0.25052  -0.24554  -0.18401  -0.18117  -0.16813
 Alpha  occ. eigenvalues --   -0.16228  -0.14829  -0.14615  -0.11883  -0.10285
 Alpha  occ. eigenvalues --    0.01330
 Alpha virt. eigenvalues --    0.08221   0.08583   0.09274   0.11676   0.11699
 Alpha virt. eigenvalues --    0.11748   0.12222   0.13352   0.14263   0.14380
 Alpha virt. eigenvalues --    0.14744   0.15149   0.16119   0.16508   0.16877

  Beta  occ. eigenvalues --  -88.75336 -18.95536 -14.21929 -14.18573 -14.17305
  Beta  occ. eigenvalues --  -14.17134 -10.11226 -10.09959 -10.09749 -10.09362
  Beta  occ. eigenvalues --  -10.07144 -10.06865 -10.06634  -7.83862  -5.80279
  Beta  occ. eigenvalues --   -5.79805  -5.79255  -0.89616  -0.88047  -0.86380
  Beta  occ. eigenvalues --   -0.74573  -0.73337  -0.67142  -0.63133  -0.58266
  Beta  occ. eigenvalues --   -0.52269  -0.49223  -0.47421  -0.43798  -0.42960
  Beta  occ. eigenvalues --   -0.37878  -0.33950  -0.33186  -0.32896  -0.31438
  Beta  occ. eigenvalues --   -0.31223  -0.30248  -0.28170  -0.27371  -0.26950
  Beta  occ. eigenvalues --   -0.24301  -0.23125  -0.18052  -0.16596  -0.16146
  Beta  occ. eigenvalues --   -0.15666  -0.14556  -0.13608  -0.11521  -0.09034
  Beta virt. eigenvalues --    0.07075   0.08219   0.09263   0.10581   0.11690
  Beta virt. eigenvalues --    0.11743   0.11764   0.12254   0.13427   0.14307
  Beta virt. eigenvalues --    0.14488   0.14751   0.15710   0.16150   0.16659

 Mulliken charges and spin densities:
               1          2
     1  C   -0.565001   0.000768
     2  C   -0.359257  -0.047426
     3  N   -0.110176   0.110840
     4  S    0.115741   0.120935
     5  C   -0.065699   0.127722
     6  N   -0.023486   0.110494
     7  C   -0.028529   0.095279
     8  N   -0.124271  -0.008987
     9  C   -0.030206   0.011391
    10  C    0.373587   0.032822
    11  N   -0.270825   0.136264
    12  C   -0.443137   0.189648
    13  O   -0.393043   0.144185
    14  H    0.143625  -0.001250
    15  H    0.143609  -0.001256
    16  H    0.139430  -0.000476
    17  H    0.136421   0.002266
    18  H    0.319611  -0.007613
    19  H    0.041604  -0.015606
 Sum of Mulliken charges =  -1.00000   1.00000

 Dipole moment (field-independent basis, Debye):
    X=              2.4483    Y=             -0.2714    Z=              0.0001  Tot=              2.4633
 Quadrupole moment (field-independent basis, Debye-Ang):
   XX=           -131.8658   YY=           -101.5433   ZZ=            -87.6480
   XY=             18.9299   XZ=             -0.0008   YZ=              0.0004

 Summary of Natural Population Analysis:

                                       Natural Population
                Natural  -----------------------------------------------
    Atom  No    Charge         Core      Valence    Rydberg      Total
 -----------------------------------------------------------------------
      C    1   -0.29813      0.99962     2.29392    0.00459     3.29813
      C    2    0.16918      0.99966     1.81389    0.01727     2.83082
      N    3   -0.30377      0.99969     2.78911    0.01497     3.80377
      S    4    0.29790      4.99946     2.67636    0.02628     7.70210
      C    5    0.05134      0.99957     1.93222    0.01686     2.94866
      N    6   -0.24184      0.99964     2.73087    0.01133     3.74184
      C    7    0.19573      0.99944     1.78792    0.01690     2.80427
      N    8   -0.25771      0.99971     2.74792    0.01008     3.75771
      C    9   -0.02182      0.99957     2.00723    0.01502     3.02182
      C   10    0.01485      0.99955     1.97496    0.01063     2.98515
      N   11   -0.21227      0.99962     2.70197    0.01068     3.71227
      C   12    0.21372      0.99968     1.76654    0.02007     2.78628
      O   13   -0.25781      0.99989     3.24985    0.00807     4.25781
      H   14    0.10219      0.00000     0.39681    0.00100     0.39781
      H   15    0.10218      0.00000     0.39682    0.00100     0.39782
      H   16    0.10392      0.00000     0.39516    0.00092     0.39608
      H   17    0.09053      0.00000     0.40849    0.00098     0.40947
      H   18    0.21235      0.00000     0.28596    0.00169     0.28765
      H   19    0.03947      0.00000     0.45785    0.00268     0.46053
 =======================================================================
   * Total *    0.00003     16.99511    32.81384    0.19103    49.99997

 Normal termination of Gaussian 16 at Thu Dec 10 00:04:32 2020.
