 Gaussian 16, Revision A.03,

 -----------------------------------------------------------
 # opt freq B3LYP/6-31G(d) empiricaldispersion=gd3bj scf=xqc
 -----------------------------------------------------------

 -------------------------------
 CID_142223043_JID_3761_neutraal
 -------------------------------
 Symbolic Z-matrix:
 Charge =  0 Multiplicity = 1

 SCF Done:  E(RB3LYP) =  -934.259393909     A.U. after   15 cycles
 SCF Done:  E(RB3LYP) =  -934.266769742     A.U. after   13 cycles
 SCF Done:  E(RB3LYP) =  -934.268516457     A.U. after   13 cycles
 SCF Done:  E(RB3LYP) =  -934.268697106     A.U. after   12 cycles
 SCF Done:  E(RB3LYP) =  -934.268620074     A.U. after   13 cycles
 SCF Done:  E(RB3LYP) =  -934.268932695     A.U. after   12 cycles
 SCF Done:  E(RB3LYP) =  -934.268981644     A.U. after   10 cycles
 SCF Done:  E(RB3LYP) =  -934.269010061     A.U. after   11 cycles
 SCF Done:  E(RB3LYP) =  -934.269037390     A.U. after   11 cycles
 SCF Done:  E(RB3LYP) =  -934.269082342     A.U. after   11 cycles
 SCF Done:  E(RB3LYP) =  -934.275447690     A.U. after   11 cycles
 SCF Done:  E(RB3LYP) =  -934.275488211     A.U. after   11 cycles
 SCF Done:  E(RB3LYP) =  -934.275503338     A.U. after   10 cycles
 SCF Done:  E(RB3LYP) =  -934.275508351     A.U. after    9 cycles
 SCF Done:  E(RB3LYP) =  -934.275509653     A.U. after    9 cycles
 SCF Done:  E(RB3LYP) =  -934.275509818     A.U. after    8 cycles
 Optimization completed.
    -- Stationary point found.
 Normal termination of Gaussian 16 at Mon Dec 14 13:20:10 2020.

 --------------------------------------------------------------------
 #N Geom=AllCheck Guess=TCheck SCRF=Check GenChk RB3LYP/6-31G(d) Freq
 --------------------------------------------------------------------

 Structure from the checkpoint file:  "JID_3761.chk"
 -------------------------------
 CID_142223043_JID_3761_neutraal
 -------------------------------
 Charge =  0 Multiplicity = 1

 SCF Done:  E(RB3LYP) =  -934.275509818     A.U. after    1 cycles

  Exact polarizability: 183.992  -1.792 117.880  -5.186 -10.746  92.581
 Approx polarizability: 257.294 -10.924 206.895 -13.508 -23.658 141.084

                      1                      2                      3
                      A                      A                      A
 Frequencies --     46.2831                57.6596                90.1488
 Red. masses --      3.5665                 3.4608                 3.1198
 Frc consts  --      0.0045                 0.0068                 0.0149
 IR Inten    --      0.3244                 1.0694                 0.1989

                      4                      5                      6
                      A                      A                      A
 Frequencies --    111.8172               145.2299               173.9040
 Red. masses --      3.7721                 5.6743                 3.5941
 Frc consts  --      0.0278                 0.0705                 0.0640
 IR Inten    --      6.1987                 4.0173                 4.8638

                      7                      8                      9
                      A                      A                      A
 Frequencies --    219.8436               241.3833               253.7493
 Red. masses --      2.3365                 1.7260                 1.5797
 Frc consts  --      0.0665                 0.0593                 0.0599
 IR Inten    --     21.7932                18.1947                 1.6135

                     10                     11                     12
                      A                      A                      A
 Frequencies --    258.3319               274.4572               287.6269
 Red. masses --      1.1079                 3.5602                 2.2769
 Frc consts  --      0.0436                 0.1580                 0.1110
 IR Inten    --      0.6100                16.2775                35.9550

                     13                     14                     15
                      A                      A                      A
 Frequencies --    316.0088               344.8138               398.5892
 Red. masses --      2.7094                 3.7567                 4.1163
 Frc consts  --      0.1594                 0.2632                 0.3853
 IR Inten    --     29.3067                 1.1410                14.1718

                     16                     17                     18
                      A                      A                      A
 Frequencies --    423.1177               447.2155               500.8676
 Red. masses --      3.2600                 3.4527                 3.0929
 Frc consts  --      0.3439                 0.4069                 0.4572
 IR Inten    --      0.0422                 0.2334                19.8935

                     19                     20                     21
                      A                      A                      A
 Frequencies --    506.4074               551.4115               575.6654
 Red. masses --      4.9830                 2.9703                 3.3671
 Frc consts  --      0.7529                 0.5321                 0.6574
 IR Inten    --      4.7578                45.6768                70.8727

                     22                     23                     24
                      A                      A                      A
 Frequencies --    601.0925               647.8138               687.6664
 Red. masses --      2.4575                 6.2318                 2.8195
 Frc consts  --      0.5231                 1.5409                 0.7856
 IR Inten    --     23.3938                 6.2008                56.4895

                     25                     26                     27
                      A                      A                      A
 Frequencies --    721.7962               820.7827               834.5396
 Red. masses --      3.8471                 1.4676                 2.9841
 Frc consts  --      1.1809                 0.5825                 1.2245
 IR Inten    --      2.6186                29.9193                22.5869

                     28                     29                     30
                      A                      A                      A
 Frequencies --    866.7610               886.5654               932.0835
 Red. masses --      1.3806                 2.5813                 1.8064
 Frc consts  --      0.6111                 1.1954                 0.9247
 IR Inten    --     23.4639                 1.2733               129.3549

                     31                     32                     33
                      A                      A                      A
 Frequencies --    942.2767               955.3158               978.0914
 Red. masses --      1.2770                 1.1424                 1.3534
 Frc consts  --      0.6680                 0.6143                 0.7628
 IR Inten    --      1.3748                 0.8651                 0.6234

                     34                     35                     36
                      A                      A                      A
 Frequencies --    992.8166              1026.6748              1056.5519
 Red. masses --      1.2757                 3.3849                11.6712
 Frc consts  --      0.7409                 2.1022                 7.6762
 IR Inten    --      0.1473                 4.5097                97.7265

                     37                     38                     39
                      A                      A                      A
 Frequencies --   1088.9695              1103.8787              1132.3496
 Red. masses --      1.3525                 3.2839                 1.6530
 Frc consts  --      0.9450                 2.3577                 1.2488
 IR Inten    --     12.3167                49.5583                 3.3349

                     40                     41                     42
                      A                      A                      A
 Frequencies --   1145.4842              1161.1087              1205.1717
 Red. masses --      2.3830                 1.9609                 1.1716
 Frc consts  --      1.8422                 1.5576                 1.0026
 IR Inten    --      0.7882                12.6739                15.1780

                     43                     44                     45
                      A                      A                      A
 Frequencies --   1207.3998              1297.6300              1311.6172
 Red. masses --      1.8492                 1.3079                 1.9814
 Frc consts  --      1.5883                 1.2976                 2.0083
 IR Inten    --      3.5626                42.6360                17.1434

                     46                     47                     48
                      A                      A                      A
 Frequencies --   1326.2123              1334.5278              1364.5667
 Red. masses --      1.2586                 1.6367                 1.3867
 Frc consts  --      1.3043                 1.7174                 1.5214
 IR Inten    --     15.3781                 7.8319                 0.2045

                     49                     50                     51
                      A                      A                      A
 Frequencies --   1371.8742              1424.5494              1442.5424
 Red. masses --      4.0815                 1.2583                 1.2313
 Frc consts  --      4.5258                 1.5045                 1.5096
 IR Inten    --     46.2732                 9.4171                 3.1729

                     52                     53                     54
                      A                      A                      A
 Frequencies --   1449.0503              1516.8927              1521.4758
 Red. masses --      2.7738                 1.0482                 1.0450
 Frc consts  --      3.4316                 1.4210                 1.4253
 IR Inten    --      3.6174                 3.6110                 2.9667

                     55                     56                     57
                      A                      A                      A
 Frequencies --   1530.5899              1532.3693              1542.6276
 Red. masses --      1.1217                 1.3937                 1.0856
 Frc consts  --      1.5483                 1.9282                 1.5221
 IR Inten    --      4.3873                 9.2690                29.9775

                     58                     59                     60
                      A                      A                      A
 Frequencies --   1546.4506              1638.5276              1658.7391
 Red. masses --      2.3098                 4.6987                 4.7259
 Frc consts  --      3.2546                 7.4325                 7.6610
 IR Inten    --     64.6898                 0.8775               113.3739

                     61                     62                     63
                      A                      A                      A
 Frequencies --   1719.5817              3048.7337              3054.6166
 Red. masses --      1.1436                 1.0367                 1.0386
 Frc consts  --      1.9923                 5.6773                 5.7098
 IR Inten    --     31.3689                20.5436                22.4606

                     64                     65                     66
                      A                      A                      A
 Frequencies --   3057.0745              3111.2555              3120.3051
 Red. masses --      1.0803                 1.1020                 1.1012
 Frc consts  --      5.9484                 6.2852                 6.3173
 IR Inten    --     10.9828                21.4018                19.2295

                     67                     68                     69
                      A                      A                      A
 Frequencies --   3132.3848              3142.9284              3170.7568
 Red. masses --      1.1013                 1.1025                 1.0873
 Frc consts  --      6.3665                 6.4164                 6.4405
 IR Inten    --     27.7587                 9.5268                16.9086

                     70                     71                     72
                      A                      A                      A
 Frequencies --   3193.7680              3211.0416              3241.9232
 Red. masses --      1.0932                 1.0890                 1.0916
 Frc consts  --      6.5697                 6.6159                 6.7597
 IR Inten    --     13.5302                 1.0859                 1.6460

                     73                     74                     75
                      A                      A                      A
 Frequencies --   3433.2556              3496.4962              3561.1572
 Red. masses --      1.0527                 1.0755                 1.0910
 Frc consts  --      7.3109                 7.7467                 8.1517
 IR Inten    --     15.0274                 8.9045                 2.1825

 - Thermochemistry -
 -------------------
 Temperature   298.150 Kelvin.  Pressure   1.00000 Atm.
 Atom     1 has atomic number  6 and mass  12.00000

 Molecular mass:   198.08268 amu.
 Principal axes and moments of inertia in atomic units:
                           1         2         3
     Eigenvalues --  1273.287024869.105685083.86079
           X            0.99986   0.01368   0.00961
           Y           -0.01290   0.99698  -0.07658
           Z           -0.01063   0.07645   0.99702
 This molecule is an asymmetric top.
 Rotational symmetry number  1.
 Warning -- assumption of classical behavior for rotation
           may cause significant error
 Rotational temperatures (Kelvin)      0.06802     0.01779     0.01704
 Rotational constants (GHZ):           1.41739     0.37065     0.35499
 Zero-point vibrational energy     590508.1 (Joules/Mol)
                                  141.13482 (Kcal/Mol)
 Warning -- explicit consideration of  22 degrees of freedom as
           vibrations may cause significant error
 Vibrational temperatures:     66.59    82.96   129.70   160.88   208.95
          (Kelvin)            250.21   316.31   347.30   365.09   371.68
                              394.88   413.83   454.67   496.11   573.48
                              608.77   643.44   720.64   728.61   793.36
                              828.25   864.84   932.06   989.40  1038.50
                             1180.92  1200.72  1247.08  1275.57  1341.06
                             1355.73  1374.49  1407.26  1428.44  1477.16
                             1520.14  1566.78  1588.24  1629.20  1648.10
                             1670.58  1733.97  1737.18  1867.00  1887.12
                             1908.12  1920.09  1963.31  1973.82  2049.61
                             2075.50  2084.86  2182.47  2189.06  2202.18
                             2204.74  2219.50  2225.00  2357.48  2386.56
                             2474.09  4386.45  4394.91  4398.45  4476.40
                             4489.42  4506.80  4521.97  4562.01  4595.12
                             4619.97  4664.40  4939.69  5030.68  5123.71

 Zero-point correction=                           0.224913 (Hartree/Particle)
 Thermal correction to Energy=                    0.238750
 Thermal correction to Enthalpy=                  0.239694
 Thermal correction to Gibbs Free Energy=         0.184465
 Sum of electronic and zero-point Energies=           -934.050597
 Sum of electronic and thermal Energies=              -934.036760
 Sum of electronic and thermal Enthalpies=            -934.035816
 Sum of electronic and thermal Free Energies=         -934.091045

                     E (Thermal)             CV                S
                      KCal/Mol        Cal/Mol-Kelvin    Cal/Mol-Kelvin
 Total                  149.818             52.260            116.240
 Electronic               0.000              0.000              0.000
 Translational            0.889              2.981             41.755
 Rotational               0.889              2.981             31.822
 Vibrational            148.040             46.298             42.662
 Vibration     1          0.595              1.979              4.970
 Vibration     2          0.596              1.974              4.536
 Vibration     3          0.602              1.956              3.657
 Vibration     4          0.607              1.940              3.237
 Vibration     5          0.617              1.908              2.734
 Vibration     6          0.627              1.875              2.393
 Vibration     7          0.647              1.811              1.960
 Vibration     8          0.658              1.777              1.793
 Vibration     9          0.665              1.756              1.704
 Vibration    10          0.667              1.749              1.673
 Vibration    11          0.677              1.721              1.568
 Vibration    12          0.685              1.697              1.488
 Vibration    13          0.703              1.643              1.331
 Vibration    14          0.723              1.586              1.190
 Vibration    15          0.765              1.473              0.968
 Vibration    16          0.785              1.420              0.881
 Vibration    17          0.806              1.367              0.804
 Vibration    18          0.856              1.248              0.656
 Vibration    19          0.862              1.236              0.642
 Vibration    20          0.907              1.137              0.541
 Vibration    21          0.932              1.084              0.493
 Vibration    22          0.959              1.029              0.448

 Optimization completed.
    -- Stationary point found.
 Normal termination of Gaussian 16 at Mon Dec 14 13:26:43 2020.

 ----------------------------------------------------------------------
 # B3LYP/6-311++G(d,p) empiricaldispersion=gd3bj scf=xqc pop=npa geom=c
 heck
 ----------------------------------------------------------------------

 ---------------------------------------
 CID_142223043_JID_3761_Energie_neutraal
 ---------------------------------------
 Structure from the checkpoint file:  "JID_3761.chk"
 Charge =  0 Multiplicity = 1

 SCF Done:  E(RB3LYP) =  -934.463770166     A.U. after   16 cycles
 Normal termination of Gaussian 16 at Mon Dec 14 13:30:07 2020.

 ----------------------------------------------------------------------
 # B3LYP/6-311++G(d,p) empiricaldispersion=gd3bj scf=xqc pop=npa geom=c
 heck
 ----------------------------------------------------------------------

 -------------------------------------
 CID_142223043_JID_3761_Energie_kation
 -------------------------------------
 Structure from the checkpoint file:  "JID_3761.chk"
 Charge =  1 Multiplicity = 2

 SCF Done:  E(UB3LYP) =  -934.189134076     A.U. after   25 cycles
 Normal termination of Gaussian 16 at Mon Dec 14 13:37:39 2020.
 Gaussian 16:  ES64L-G16RevA.03 25-Dec-2016

 ----------------------------------------------------------------------
 # B3LYP/6-311++G(d,p) empiricaldispersion=gd3bj scf=xqc pop=npa geom=c
 heck
 ----------------------------------------------------------------------

 ------------------------------------
 CID_142223043_JID_3761_Energie_anion
 ------------------------------------
 Structure from the checkpoint file:  "JID_3761.chk"
 Charge = -1 Multiplicity = 2

                         Standard orientation:
 ---------------------------------------------------------------------
 Center     Atomic      Atomic             Coordinates (Angstroms)
 Number     Number       Type             X           Y           Z
 ---------------------------------------------------------------------
      1          6           0        2.442875    1.973456    0.625634
      2          6           0        2.755004    0.482072    0.644769
      3          6           0        2.303079   -0.240993    1.904842
      4         16           0        2.079685   -0.373260   -0.883344
      5          8           0        2.353562   -1.851509   -0.664062
      6          6           0        0.311155   -0.121429   -0.602501
      7          6           0       -0.427114   -1.136938    0.005171
      8          6           0       -1.793361   -0.984781    0.211530
      9          6           0       -2.438966    0.191920   -0.203616
     10          6           0       -1.690128    1.202856   -0.832678
     11          6           0       -0.325815    1.040398   -1.043054
     12          7           0       -3.818926    0.361747   -0.066391
     13          7           0       -4.480773   -0.447260    0.877721
     14          1           0        1.375816    2.154141    0.788016
     15          1           0        2.732883    2.439461   -0.323461
     16          1           0        2.995308    2.476333    1.427501
     17          1           0        3.831430    0.325541    0.499390
     18          1           0        1.244278   -0.050199    2.107909
     19          1           0        2.449602   -1.318906    1.789401
     20          1           0        2.886706    0.102916    2.766541
     21          1           0        0.087290   -2.047861    0.295774
     22          1           0       -2.380174   -1.762241    0.684827
     23          1           0       -2.187669    2.108325   -1.173380
     24          1           0        0.238109    1.819083   -1.549684
     25          1           0       -4.114484    1.333572   -0.103540
     26          1           0       -4.578563    0.030591    1.774753
     27          1           0       -5.406480   -0.667304    0.522065
 ---------------------------------------------------------------------

 SCF Done:  E(UB3LYP) =  -934.458941269     A.U. after   32 cycles

 The electronic state is 2-A.
 Alpha  occ. eigenvalues --  -88.84883 -18.98630 -14.24472 -14.22384 -10.11882
 Alpha  occ. eigenvalues --  -10.11738 -10.09348 -10.08918 -10.08531 -10.08267
 Alpha  occ. eigenvalues --  -10.07699 -10.07683 -10.07009  -7.92601  -5.88874
 Alpha  occ. eigenvalues --   -5.88724  -5.88203  -0.91486  -0.88346  -0.76899
 Alpha  occ. eigenvalues --   -0.72760  -0.70342  -0.65668  -0.63733  -0.61073
 Alpha  occ. eigenvalues --   -0.57941  -0.52396  -0.50799  -0.47474  -0.43465
 Alpha  occ. eigenvalues --   -0.41909  -0.39769  -0.38613  -0.38264  -0.35749
 Alpha  occ. eigenvalues --   -0.35282  -0.34523  -0.33724  -0.33045  -0.30882
 Alpha  occ. eigenvalues --   -0.29618  -0.29097  -0.28351  -0.27355  -0.26584
 Alpha  occ. eigenvalues --   -0.25749  -0.25169  -0.21283  -0.17579  -0.16808
 Alpha  occ. eigenvalues --   -0.16275  -0.14258  -0.10896   0.03930
 Alpha virt. eigenvalues --    0.05687   0.07228   0.07293   0.07886   0.08568
 Alpha virt. eigenvalues --    0.08843   0.09005   0.09724   0.10504   0.11131
 Alpha virt. eigenvalues --    0.11316   0.12092   0.12484   0.13040   0.13917

  Beta  occ. eigenvalues --  -88.84882 -18.98627 -14.24427 -14.22303 -10.11882
  Beta  occ. eigenvalues --  -10.11734 -10.09344 -10.08895 -10.08509 -10.08268
  Beta  occ. eigenvalues --  -10.07686 -10.07674 -10.06989  -7.92600  -5.88872
  Beta  occ. eigenvalues --   -5.88723  -5.88201  -0.91479  -0.88248  -0.76860
  Beta  occ. eigenvalues --   -0.72734  -0.70247  -0.65630  -0.63664  -0.61043
  Beta  occ. eigenvalues --   -0.57897  -0.52347  -0.50756  -0.47442  -0.43365
  Beta  occ. eigenvalues --   -0.41802  -0.39682  -0.38591  -0.38232  -0.35720
  Beta  occ. eigenvalues --   -0.35234  -0.34495  -0.33697  -0.33012  -0.30864
  Beta  occ. eigenvalues --   -0.29583  -0.29078  -0.28325  -0.27334  -0.26569
  Beta  occ. eigenvalues --   -0.25730  -0.25148  -0.21234  -0.17568  -0.16729
  Beta  occ. eigenvalues --   -0.16222  -0.14242  -0.10849
  Beta virt. eigenvalues --    0.05958   0.07307   0.07384   0.07834   0.07989
  Beta virt. eigenvalues --    0.08911   0.09156   0.09443   0.10608   0.10643
  Beta virt. eigenvalues --    0.11295   0.11590   0.12474   0.12685   0.13230

 Mulliken charges and spin densities:
               1          2
     1  C    0.001660  -0.679078
     2  C   -0.657864   0.520814
     3  C   -0.295788  -0.314299
     4  S    1.486819  -0.661265
     5  O   -0.474337   0.002772
     6  C    0.394293  -0.757741
     7  C    0.796640   0.190683
     8  C   -0.562737   0.732618
     9  C   -0.250347  -0.748533
    10  C    0.462056  -0.666475
    11  C   -0.752584  -0.112672
    12  N    0.057563  -0.105110
    13  N   -0.250069  -0.131821
    14  H    0.089412   0.091456
    15  H   -0.080380   0.229250
    16  H   -0.173637   0.313228
    17  H    0.165917   0.085694
    18  H    0.074935   0.093479
    19  H    0.133887   0.038407
    20  H    0.063795   0.069829
    21  H    0.185244   0.038818
    22  H    0.188929   0.052373
    23  H   -0.794683   0.982982
    24  H    0.026812   0.141791
    25  H   -0.364002   0.620041
    26  H   -0.282406   0.527231
    27  H   -0.189127   0.445530
 Sum of Mulliken charges =  -1.00000   1.00000

 Dipole moment (field-independent basis, Debye):
    X=              8.6649    Y=             -1.5874    Z=             -0.6024  Tot=              8.8296
 Quadrupole moment (field-independent basis, Debye-Ang):
   XX=           -181.7638   YY=           -126.5718   ZZ=           -114.2504
   XY=             15.2500   XZ=              9.8450   YZ=             -3.9983

 Summary of Natural Population Analysis:

                                       Natural Population
                Natural  -----------------------------------------------
    Atom  No    Charge         Core      Valence    Rydberg      Total
 -----------------------------------------------------------------------
      C    1   -0.29857      0.99963     2.29221    0.00673     3.29857
      C    2   -0.18398      0.99959     2.16931    0.01508     3.18398
      C    3   -0.30118      0.99963     2.29459    0.00696     3.30118
      S    4    0.59309      4.99932     2.35213    0.05545     7.40691
      O    5   -0.48894      0.99993     3.48312    0.00588     4.48894
      C    6   -0.15096      0.99937     2.13638    0.01521     3.15096
      C    7   -0.09521      0.99950     2.08525    0.01047     3.09521
      C    8   -0.11905      0.99951     2.11061    0.00893     3.11905
      C    9    0.09548      0.99949     1.89165    0.01339     2.90452
      C   10   -0.11961      0.99952     2.10971    0.01039     3.11961
      C   11   -0.09623      0.99950     2.08546    0.01128     3.09623
      N   12   -0.22348      0.99967     2.70817    0.01564     3.72348
      N   13   -0.32491      0.99976     2.81185    0.01330     3.82491
      H   14    0.10828      0.00000     0.39041    0.00131     0.39172
      H   15    0.10199      0.00000     0.39649    0.00152     0.39801
      H   16    0.10489      0.00000     0.39406    0.00105     0.39511
      H   17    0.10078      0.00000     0.39780    0.00142     0.39922
      H   18    0.10599      0.00000     0.39308    0.00093     0.39401
      H   19    0.11399      0.00000     0.38503    0.00098     0.38601
      H   20    0.10106      0.00000     0.39816    0.00078     0.39894
      H   21    0.11457      0.00000     0.38432    0.00111     0.38543
      H   22    0.11511      0.00000     0.38378    0.00112     0.38489
      H   23    0.10518      0.00000     0.39321    0.00162     0.39482
      H   24    0.10316      0.00000     0.39516    0.00169     0.39684
      H   25    0.18169      0.00000     0.30210    0.01621     0.31831
      H   26    0.17680      0.00000     0.31462    0.00858     0.32320
      H   27    0.18008      0.00000     0.31625    0.00367     0.31992
 =======================================================================
   * Total *    0.00000     16.99441    35.77490    0.23069    53.00000

 Normal termination of Gaussian 16 at Mon Dec 14 13:47:02 2020.
