 Gaussian 16, Revision A.03,

 -----------------------------------------------------------
 # opt freq B3LYP/6-31G(d) empiricaldispersion=gd3bj scf=xqc
 -----------------------------------------------------------

 ------------------------------
 CID_81547471_JID_7830_neutraal
 ------------------------------
 Symbolic Z-matrix:
 Charge =  0 Multiplicity = 1

 SCF Done:  E(RB3LYP) =  -690.800587209     A.U. after   14 cycles
 SCF Done:  E(RB3LYP) =  -690.805507002     A.U. after   12 cycles
 SCF Done:  E(RB3LYP) =  -690.805863719     A.U. after   11 cycles
 SCF Done:  E(RB3LYP) =  -690.805804631     A.U. after   12 cycles
 SCF Done:  E(RB3LYP) =  -690.806147997     A.U. after   12 cycles
 SCF Done:  E(RB3LYP) =  -690.806203489     A.U. after   11 cycles
 SCF Done:  E(RB3LYP) =  -690.806238660     A.U. after   11 cycles
 SCF Done:  E(RB3LYP) =  -690.806253052     A.U. after   10 cycles
 SCF Done:  E(RB3LYP) =  -690.806262539     A.U. after   10 cycles
 SCF Done:  E(RB3LYP) =  -690.806268946     A.U. after   10 cycles
 SCF Done:  E(RB3LYP) =  -690.806349500     A.U. after   10 cycles
 SCF Done:  E(RB3LYP) =  -690.806355086     A.U. after   10 cycles
 SCF Done:  E(RB3LYP) =  -690.806355388     A.U. after    8 cycles
 SCF Done:  E(RB3LYP) =  -690.806355738     A.U. after    9 cycles
 SCF Done:  E(RB3LYP) =  -690.806355746     A.U. after    6 cycles
 Optimization completed.
    -- Stationary point found.
 Normal termination of Gaussian 16 at Fri Dec 11 13:41:15 2020.

 --------------------------------------------------------------------
 #N Geom=AllCheck Guess=TCheck SCRF=Check GenChk RB3LYP/6-31G(d) Freq
 --------------------------------------------------------------------

 Structure from the checkpoint file:  "JID_7830.chk"
 ------------------------------
 CID_81547471_JID_7830_neutraal
 ------------------------------
 Charge =  0 Multiplicity = 1

 SCF Done:  E(RB3LYP) =  -690.806355746     A.U. after    1 cycles

  Exact polarizability: 210.474 -12.573 156.344  -5.425   0.845 125.090
 Approx polarizability: 283.067 -26.759 260.784 -11.998   1.270 211.821

                      1                      2                      3
                      A                      A                      A
 Frequencies --     16.7181                33.7338                47.0699
 Red. masses --      4.8609                 1.0438                 3.8509
 Frc consts  --      0.0008                 0.0007                 0.0050
 IR Inten    --      0.0091                 0.1299                 1.2311

                      4                      5                      6
                      A                      A                      A
 Frequencies --     75.2171               126.9679               143.9176
 Red. masses --      3.7985                 3.6909                 4.6532
 Frc consts  --      0.0127                 0.0351                 0.0568
 IR Inten    --      1.0691                 1.9186                 0.2126

                      7                      8                      9
                      A                      A                      A
 Frequencies --    213.3396               224.8752               262.9806
 Red. masses --      2.7699                 4.1800                 2.6772
 Frc consts  --      0.0743                 0.1245                 0.1091
 IR Inten    --      1.4256                 1.1043                11.0586

                     10                     11                     12
                      A                      A                      A
 Frequencies --    288.6704               346.2793               372.3233
 Red. masses --      3.8881                 2.7729                 2.8827
 Frc consts  --      0.1909                 0.1959                 0.2354
 IR Inten    --      0.2114                 5.6462                 1.8444

                     13                     14                     15
                      A                      A                      A
 Frequencies --    398.8787               430.3830               435.7529
 Red. masses --      1.5201                 2.7045                 3.7998
 Frc consts  --      0.1425                 0.2952                 0.4251
 IR Inten    --    109.5375                 4.8083                 5.5883

                     16                     17                     18
                      A                      A                      A
 Frequencies --    459.9920               464.2967               506.6883
 Red. masses --      3.4668                 3.1421                 3.1935
 Frc consts  --      0.4322                 0.3991                 0.4831
 IR Inten    --      3.8119                 5.4916                 0.2673

                     19                     20                     21
                      A                      A                      A
 Frequencies --    521.8417               544.8972               596.8233
 Red. masses --      4.3706                 3.1322                 6.3459
 Frc consts  --      0.7012                 0.5479                 1.3318
 IR Inten    --      4.1423                 4.1265                 0.7735

                     22                     23                     24
                      A                      A                      A
 Frequencies --    623.5473               649.8939               685.4338
 Red. masses --      3.0559                 7.0218                 5.2105
 Frc consts  --      0.7001                 1.7474                 1.4423
 IR Inten    --      1.5179                 2.4387                 1.5705

                     25                     26                     27
                      A                      A                      A
 Frequencies --    716.7518               743.3663               757.0513
 Red. masses --      3.4084                 3.6137                 1.4211
 Frc consts  --      1.0317                 1.1765                 0.4799
 IR Inten    --      0.0570                 1.5815                29.8822

                     28                     29                     30
                      A                      A                      A
 Frequencies --    770.0966               812.9127               834.8887
 Red. masses --      2.5595                 3.7113                 2.3116
 Frc consts  --      0.8943                 1.4450                 0.9493
 IR Inten    --      9.3807                 2.6906                11.3676

                     31                     32                     33
                      A                      A                      A
 Frequencies --    837.6011               863.2579               875.7173
 Red. masses --      2.1117                 4.6374                 3.6876
 Frc consts  --      0.8729                 2.0361                 1.6662
 IR Inten    --     13.8745                 0.6047                 1.8047

                     34                     35                     36
                      A                      A                      A
 Frequencies --    877.7478               929.8073               936.6202
 Red. masses --      1.3059                 1.3428                 1.3524
 Frc consts  --      0.5928                 0.6840                 0.6990
 IR Inten    --      0.0480                 1.7593                 0.1524

                     37                     38                     39
                      A                      A                      A
 Frequencies --    954.0758               955.5593               982.7124
 Red. masses --      1.3269                 1.4972                 1.2548
 Frc consts  --      0.7116                 0.8055                 0.7139
 IR Inten    --      0.6376                 0.0765                 0.0029

                     40                     41                     42
                      A                      A                      A
 Frequencies --   1020.2365              1037.2346              1041.9221
 Red. masses --      1.4764                 2.6198                 2.4828
 Frc consts  --      0.9054                 1.6606                 1.5880
 IR Inten    --      1.2164                 7.3636                 3.6061

                     43                     44                     45
                      A                      A                      A
 Frequencies --   1050.4670              1059.5902              1073.1135
 Red. masses --      4.6426                 2.2176                 1.5263
 Frc consts  --      3.0184                 1.4669                 1.0356
 IR Inten    --      5.9979                 2.4977                 5.0968

                     46                     47                     48
                      A                      A                      A
 Frequencies --   1124.9616              1134.9984              1174.6940
 Red. masses --      2.7114                 2.1979                 1.2191
 Frc consts  --      2.0217                 1.6682                 0.9912
 IR Inten    --     25.1101                12.8139                10.9550

                     49                     50                     51
                      A                      A                      A
 Frequencies --   1180.8898              1192.4803              1202.5236
 Red. masses --      1.1558                 1.1103                 2.3637
 Frc consts  --      0.9497                 0.9303                 2.0139
 IR Inten    --      0.0205                 0.2432                 0.2448

                     52                     53                     54
                      A                      A                      A
 Frequencies --   1218.7061              1249.2685              1261.8071
 Red. masses --      1.2364                 1.9683                 1.2927
 Frc consts  --      1.0819                 1.8099                 1.2126
 IR Inten    --      0.8504                 6.8222                 3.1752

                     55                     56                     57
                      A                      A                      A
 Frequencies --   1272.8942              1300.5968              1307.5030
 Red. masses --      2.5550                 4.7029                 2.5531
 Frc consts  --      2.4390                 4.6871                 2.5716
 IR Inten    --      8.7399                 3.6026                 7.8819

                     58                     59                     60
                      A                      A                      A
 Frequencies --   1330.2760              1338.5942              1347.9528
 Red. masses --      1.2965                 2.6892                 1.4986
 Frc consts  --      1.3518                 2.8390                 1.6043
 IR Inten    --     11.1235               155.4183                 7.4399

                     61                     62                     63
                      A                      A                      A
 Frequencies --   1360.1763              1376.7634              1391.6261
 Red. masses --      1.5754                 2.9847                 1.9991
 Frc consts  --      1.7173                 3.3332                 2.2810
 IR Inten    --     30.9800                 4.5427                48.4644

                     64                     65                     66
                      A                      A                      A
 Frequencies --   1440.4391              1459.4368              1507.5310
 Red. masses --      1.2794                 1.8858                 1.0459
 Frc consts  --      1.5640                 2.3666                 1.4005
 IR Inten    --      0.1045                17.1865                 4.7460

                     67                     68                     69
                      A                      A                      A
 Frequencies --   1508.2639              1514.9443              1518.3751
 Red. masses --      2.1811                 1.2103                 1.1544
 Frc consts  --      2.9233                 1.6366                 1.5681
 IR Inten    --      1.0166                15.2460                 8.2012

                     70                     71                     72
                      A                      A                      A
 Frequencies --   1523.2999              1536.8098              1537.3607
 Red. masses --      1.2517                 1.5091                 1.9408
 Frc consts  --      1.7113                 2.0999                 2.7026
 IR Inten    --      3.9762                30.0515                37.9783

                     73                     74                     75
                      A                      A                      A
 Frequencies --   1555.5840              1626.9765              1645.1723
 Red. masses --      2.4159                 3.9935                 6.0677
 Frc consts  --      3.4444                 6.2283                 9.6760
 IR Inten    --    138.6091                32.2317                 4.7833

                     76                     77                     78
                      A                      A                      A
 Frequencies --   1661.9792              1669.0805              3050.6803
 Red. masses --      6.0257                 6.3189                 1.0360
 Frc consts  --      9.8063                10.3716                 5.6809
 IR Inten    --     32.9808                 0.1390                36.3998

                     79                     80                     81
                      A                      A                      A
 Frequencies --   3053.8587              3060.5336              3076.2082
 Red. masses --      1.0604                 1.0632                 1.0937
 Frc consts  --      5.8268                 5.8678                 6.0977
 IR Inten    --     27.9235                22.1605                 6.4608

                     82                     83                     84
                      A                      A                      A
 Frequencies --   3088.1548              3101.0182              3108.1699
 Red. masses --      1.1022                 1.0960                 1.1009
 Frc consts  --      6.1930                 6.2096                 6.2660
 IR Inten    --      3.9961                67.5259                17.5511

                     85                     86                     87
                      A                      A                      A
 Frequencies --   3129.3414              3168.7860              3177.6166
 Red. masses --      1.1027                 1.0883                 1.0855
 Frc consts  --      6.3623                 6.4383                 6.4576
 IR Inten    --     19.3806                18.7543                 5.5657

                     88                     89                     90
                      A                      A                      A
 Frequencies --   3183.0871              3194.4617              3197.2985
 Red. masses --      1.0888                 1.0928                 1.0934
 Frc consts  --      6.4996                 6.5703                 6.5854
 IR Inten    --      2.3286                34.7028                35.6378

                     91                     92                     93
                      A                      A                      A
 Frequencies --   3201.7038              3207.7595              3598.5016
 Red. masses --      1.0900                 1.0972                 1.0762
 Frc consts  --      6.5832                 6.6517                 8.2110
 IR Inten    --      6.9821                33.0157                10.1360

 - Thermochemistry -
 -------------------
 Temperature   298.150 Kelvin.  Pressure   1.00000 Atm.
 Atom     1 has atomic number  6 and mass  12.00000

 Molecular mass:   224.13135 amu.
 Principal axes and moments of inertia in atomic units:
                           1         2         3
     Eigenvalues --  1867.292027016.796047878.99359
           X            0.99998   0.00561  -0.00140
           Y           -0.00560   0.99998   0.00304
           Z            0.00142  -0.00303   0.99999
 This molecule is an asymmetric top.
 Rotational symmetry number  1.
 Warning -- assumption of classical behavior for rotation
           may cause significant error
 Rotational temperatures (Kelvin)      0.04638     0.01234     0.01099
 Rotational constants (GHZ):           0.96650     0.25720     0.22906
 Zero-point vibrational energy     733731.9 (Joules/Mol)
                                  175.36614 (Kcal/Mol)
 Warning -- explicit consideration of  21 degrees of freedom as
           vibrations may cause significant error
 Vibrational temperatures:     24.05    48.54    67.72   108.22   182.68
          (Kelvin)            207.07   306.95   323.55   378.37   415.33
                              498.22   535.69   573.90   619.23   626.95
                              661.83   668.02   729.01   750.81   783.99
                              858.70   897.15   935.05   986.19  1031.25
                             1069.54  1089.23  1108.00  1169.60  1201.22
                             1205.12  1242.04  1259.96  1262.88  1337.79
                             1347.59  1372.70  1374.84  1413.90  1467.89
                             1492.35  1499.09  1511.39  1524.51  1543.97
                             1618.57  1633.01  1690.12  1699.04  1715.71
                             1730.16  1753.45  1797.42  1815.46  1831.41
                             1871.27  1881.21  1913.97  1925.94  1939.40
                             1956.99  1980.86  2002.24  2072.47  2099.80
                             2169.00  2170.06  2179.67  2184.60  2191.69
                             2211.13  2211.92  2238.14  2340.86  2367.04
                             2391.22  2401.43  4389.25  4393.82  4403.43
                             4425.98  4443.17  4461.67  4471.96  4502.42
                             4559.18  4571.88  4579.75  4596.12  4600.20
                             4606.54  4615.25  5177.44

 Zero-point correction=                           0.279464 (Hartree/Particle)
 Thermal correction to Energy=                    0.293744
 Thermal correction to Enthalpy=                  0.294689
 Thermal correction to Gibbs Free Energy=         0.236207
 Sum of electronic and zero-point Energies=           -690.526892
 Sum of electronic and thermal Energies=              -690.512611
 Sum of electronic and thermal Enthalpies=            -690.511667
 Sum of electronic and thermal Free Energies=         -690.570149

                     E (Thermal)             CV                S
                      KCal/Mol        Cal/Mol-Kelvin    Cal/Mol-Kelvin
 Total                  184.327             56.749            123.085
 Electronic               0.000              0.000              0.000
 Translational            0.889              2.981             42.124
 Rotational               0.889              2.981             33.001
 Vibrational            182.550             50.788             47.960
 Vibration     1          0.593              1.986              6.990
 Vibration     2          0.594              1.983              5.597
 Vibration     3          0.595              1.979              4.937
 Vibration     4          0.599              1.966              4.012
 Vibration     5          0.611              1.926              2.991
 Vibration     6          0.616              1.909              2.751
 Vibration     7          0.644              1.821              2.015
 Vibration     8          0.650              1.803              1.919
 Vibration     9          0.670              1.741              1.642
 Vibration    10          0.685              1.695              1.482
 Vibration    11          0.724              1.583              1.183
 Vibration    12          0.744              1.529              1.070
 Vibration    13          0.765              1.473              0.967
 Vibration    14          0.792              1.404              0.857
 Vibration    15          0.796              1.392              0.840
 Vibration    16          0.818              1.339              0.766
 Vibration    17          0.822              1.329              0.754
 Vibration    18          0.862              1.235              0.642
 Vibration    19          0.877              1.202              0.606
 Vibration    20          0.900              1.151              0.555
 Vibration    21          0.955              1.039              0.455

 Optimization completed.
    -- Stationary point found.
 Normal termination of Gaussian 16 at Fri Dec 11 13:52:44 2020.

 ----------------------------------------------------------------------
 # B3LYP/6-311++G(d,p) empiricaldispersion=gd3bj scf=xqc pop=npa geom=c
 heck
 ----------------------------------------------------------------------

 --------------------------------------
 CID_81547471_JID_7830_Energie_neutraal
 --------------------------------------
 Structure from the checkpoint file:  "JID_7830.chk"
 Charge =  0 Multiplicity = 1

 SCF Done:  E(RB3LYP) =  -690.984738887     A.U. after   15 cycles
 Normal termination of Gaussian 16 at Fri Dec 11 13:58:23 2020.

 ----------------------------------------------------------------------
 # B3LYP/6-311++G(d,p) empiricaldispersion=gd3bj scf=xqc pop=npa geom=c
 heck
 ----------------------------------------------------------------------

 ------------------------------------
 CID_81547471_JID_7830_Energie_kation
 ------------------------------------
 Structure from the checkpoint file:  "JID_7830.chk"
 Charge =  1 Multiplicity = 2

 SCF Done:  E(UB3LYP) =  -690.713965741     A.U. after   24 cycles
 Normal termination of Gaussian 16 at Fri Dec 11 14:11:21 2020.
 Gaussian 16:  ES64L-G16RevA.03 25-Dec-2016

 ----------------------------------------------------------------------
 # B3LYP/6-311++G(d,p) empiricaldispersion=gd3bj scf=xqc pop=npa geom=c
 heck
 ----------------------------------------------------------------------

 -----------------------------------
 CID_81547471_JID_7830_Energie_anion
 -----------------------------------
 Structure from the checkpoint file:  "JID_7830.chk"
 Charge = -1 Multiplicity = 2

                         Standard orientation:
 ---------------------------------------------------------------------
 Center     Atomic      Atomic             Coordinates (Angstroms)
 Number     Number       Type             X           Y           Z
 ---------------------------------------------------------------------
      1          6           0       -4.516537   -2.226113   -0.044868
      2          6           0       -3.555377   -1.064627   -0.031951
      3          7           0       -2.253946   -1.351839   -0.173581
      4          6           0       -1.358215   -0.362543   -0.173484
      5          6           0       -1.693945    1.001169   -0.037089
      6          6           0       -3.059991    1.289946    0.119018
      7          6           0       -3.987623    0.258725    0.121278
      8          7           0       -0.770368    2.039375   -0.083647
      9          6           0        0.670113    1.859455    0.031101
     10          6           0        1.162161    1.039631    1.269899
     11          6           0        2.245631    0.143714    0.723553
     12          6           0        3.097514   -0.706222    1.427978
     13          6           0        4.030390   -1.472809    0.727317
     14          6           0        4.108586   -1.390775   -0.666626
     15          6           0        3.254966   -0.540961   -1.372265
     16          6           0        2.324403    0.226519   -0.672631
     17          6           0        1.308005    1.192194   -1.227993
     18          1           0       -4.251016   -2.955899    0.728104
     19          1           0       -5.546289   -1.897326    0.126801
     20          1           0       -4.478504   -2.750598   -1.006818
     21          1           0       -0.323650   -0.673589   -0.281678
     22          1           0       -3.383404    2.322895    0.232175
     23          1           0       -5.044858    0.477479    0.242106
     24          1           0       -1.115192    2.902235    0.313643
     25          1           0        1.074310    2.872032    0.111897
     26          1           0        1.525048    1.701033    2.065431
     27          1           0        0.339171    0.455865    1.698945
     28          1           0        3.037251   -0.772140    2.511511
     29          1           0        4.699706   -2.136419    1.267769
     30          1           0        4.838209   -1.991077   -1.203009
     31          1           0        3.317147   -0.478367   -2.455888
     32          1           0        0.543016    0.682778   -1.824482
     33          1           0        1.758770    1.944521   -1.885332
 ---------------------------------------------------------------------

 SCF Done:  E(UB3LYP) =  -690.975361569     A.U. after   33 cycles
 SCF Done:  E(UB3LYP) =  -690.975361569     a.u. after    1 cycles

 The electronic state is 2-A.
 Alpha  occ. eigenvalues --  -14.21809 -14.20274 -10.11533 -10.10730 -10.10292
 Alpha  occ. eigenvalues --  -10.09441 -10.08078 -10.08001 -10.07906 -10.07804
 Alpha  occ. eigenvalues --  -10.07802 -10.07742 -10.07674 -10.07598 -10.07561
 Alpha  occ. eigenvalues --  -10.07076 -10.06804  -0.84819  -0.82315  -0.77182
 Alpha  occ. eigenvalues --   -0.71255  -0.68863  -0.67440  -0.66222  -0.61811
 Alpha  occ. eigenvalues --   -0.59828  -0.59320  -0.53622  -0.51620  -0.50168
 Alpha  occ. eigenvalues --   -0.48141  -0.47965  -0.43046  -0.41013  -0.40089
 Alpha  occ. eigenvalues --   -0.38312  -0.37254  -0.36412  -0.35699  -0.33714
 Alpha  occ. eigenvalues --   -0.33049  -0.32719  -0.31703  -0.31178  -0.31026
 Alpha  occ. eigenvalues --   -0.29939  -0.29024  -0.28612  -0.26806  -0.26689
 Alpha  occ. eigenvalues --   -0.25995  -0.25280  -0.24029  -0.23295  -0.20556
 Alpha  occ. eigenvalues --   -0.17512  -0.15754  -0.15555  -0.14456  -0.10261
 Alpha  occ. eigenvalues --    0.04330
 Alpha virt. eigenvalues --    0.06278   0.06569   0.06788   0.07254   0.07709
 Alpha virt. eigenvalues --    0.08084   0.08689   0.09032   0.09141   0.09738
 Alpha virt. eigenvalues --    0.09869   0.10983   0.11471   0.11947   0.12178

  Beta  occ. eigenvalues --  -14.21771 -14.20244 -10.11533 -10.10706 -10.10292
  Beta  occ. eigenvalues --  -10.09429 -10.08075 -10.07985 -10.07906 -10.07791
  Beta  occ. eigenvalues --  -10.07775 -10.07716 -10.07629 -10.07558 -10.07548
  Beta  occ. eigenvalues --  -10.07067 -10.06791  -0.84769  -0.82255  -0.77121
  Beta  occ. eigenvalues --   -0.71195  -0.68808  -0.67404  -0.66143  -0.61765
  Beta  occ. eigenvalues --   -0.59777  -0.59272  -0.53565  -0.51542  -0.50087
  Beta  occ. eigenvalues --   -0.48108  -0.47918  -0.42951  -0.40966  -0.40044
  Beta  occ. eigenvalues --   -0.38254  -0.37190  -0.36360  -0.35645  -0.33680
  Beta  occ. eigenvalues --   -0.33018  -0.32689  -0.31645  -0.31132  -0.30989
  Beta  occ. eigenvalues --   -0.29898  -0.28970  -0.28574  -0.26739  -0.26595
  Beta  occ. eigenvalues --   -0.25942  -0.25244  -0.23994  -0.23197  -0.20477
  Beta  occ. eigenvalues --   -0.17413  -0.15517  -0.15482  -0.14338  -0.10190
  Beta virt. eigenvalues --    0.06362   0.06539   0.06985   0.07281   0.07797
  Beta virt. eigenvalues --    0.08054   0.08542   0.08753   0.09083   0.09600
  Beta virt. eigenvalues --    0.10089   0.10290   0.11354   0.11413   0.12216

 Mulliken charges and spin densities:
               1          2
     1  C    0.122241  -0.708910
     2  C   -0.117317   0.116882
     3  N    0.049452   0.037286
     4  C   -0.494650  -0.065458
     5  C    0.389857  -0.539653
     6  C    0.373309  -0.554980
     7  C    0.046372  -0.012585
     8  N   -0.228784   0.239298
     9  C    0.647390  -1.073976
    10  C    0.631311  -0.941574
    11  C   -0.159447   0.305341
    12  C   -0.165541   0.149386
    13  C   -0.171277  -0.076226
    14  C   -0.224798  -0.089412
    15  C   -0.267963   0.216081
    16  C    0.318787  -0.251223
    17  C   -0.359987  -0.066026
    18  H    0.128708   0.016652
    19  H    0.047186   0.082743
    20  H    0.147691  -0.002662
    21  H    0.397598  -0.111105
    22  H   -0.833080   0.998660
    23  H   -0.170673   0.334058
    24  H   -0.230053   0.525803
    25  H   -0.928035   1.172946
    26  H   -0.344003   0.538456
    27  H    0.156901   0.033436
    28  H    0.037236   0.113772
    29  H    0.085782   0.053553
    30  H    0.090320   0.046463
    31  H    0.036602   0.116144
    32  H    0.165092   0.026523
    33  H   -0.176227   0.370304
 Sum of Mulliken charges =  -1.00000   1.00000

 Dipole moment (field-independent basis, Debye):
    X=              1.1068    Y=             -8.1339    Z=             -1.5201  Tot=              8.3484
 Quadrupole moment (field-independent basis, Debye-Ang):
   XX=           -159.0656   YY=           -165.3091   ZZ=           -125.3723
   XY=              1.2527   XZ=              0.5630   YZ=             -6.7678

 Summary of Natural Population Analysis:

                                       Natural Population
                Natural  -----------------------------------------------
    Atom  No    Charge         Core      Valence    Rydberg      Total
 -----------------------------------------------------------------------
      C    1   -0.29422      0.99964     2.28941    0.00517     3.29422
      C    2    0.07844      0.99955     1.90797    0.01404     2.92156
      N    3   -0.22986      0.99968     2.72006    0.01013     3.72986
      C    4   -0.00232      0.99955     1.98918    0.01359     3.00232
      C    5    0.07116      0.99948     1.91756    0.01180     2.92884
      C    6   -0.09473      0.99953     2.08484    0.01037     3.09473
      C    7   -0.11514      0.99951     2.10675    0.00888     3.11514
      N    8   -0.31224      0.99966     2.79891    0.01366     3.81224
      C    9   -0.00379      0.99961     1.98878    0.01540     3.00379
      C   10   -0.20451      0.99959     2.19602    0.00890     3.20451
      C   11   -0.01002      0.99946     2.00128    0.00928     3.01002
      C   12   -0.09166      0.99951     2.08281    0.00933     3.09166
      C   13   -0.10580      0.99957     2.09693    0.00930     3.10580
      C   14   -0.10374      0.99957     2.09483    0.00934     3.10374
      C   15   -0.09298      0.99951     2.08421    0.00927     3.09298
      C   16   -0.01461      0.99946     2.00586    0.00930     3.01461
      C   17   -0.20039      0.99959     2.19187    0.00893     3.20039
      H   18    0.10334      0.00000     0.39551    0.00115     0.39666
      H   19    0.09641      0.00000     0.40289    0.00070     0.40359
      H   20    0.10226      0.00000     0.39660    0.00114     0.39774
      H   21    0.09445      0.00000     0.40343    0.00212     0.40555
      H   22    0.10494      0.00000     0.39325    0.00180     0.39506
      H   23    0.10044      0.00000     0.39861    0.00095     0.39956
      H   24    0.19623      0.00000     0.29246    0.01131     0.30377
      H   25    0.10742      0.00000     0.38547    0.00712     0.39258
      H   26    0.10960      0.00000     0.38867    0.00174     0.39040
      H   27    0.10755      0.00000     0.39089    0.00156     0.39245
      H   28    0.09857      0.00000     0.40030    0.00113     0.40143
      H   29    0.09642      0.00000     0.40285    0.00073     0.40358
      H   30    0.09619      0.00000     0.40307    0.00074     0.40381
      H   31    0.09780      0.00000     0.40106    0.00114     0.40220
      H   32    0.10684      0.00000     0.39176    0.00140     0.39316
      H   33    0.10796      0.00000     0.39081    0.00123     0.39204
 =======================================================================
   * Total *   -0.00000     16.99247    42.79489    0.21264    60.00000

 Normal termination of Gaussian 16 at Fri Dec 11 14:29:08 2020.
