 Gaussian 16, Revision A.03,

 -----------------------------------------------------------
 # opt freq B3LYP/6-31G(d) empiricaldispersion=gd3bj scf=xqc
 -----------------------------------------------------------

 ------------------------------
 CID_79253933_JID_5481_neutraal
 ------------------------------
 Symbolic Z-matrix:
 Charge =  0 Multiplicity = 1

 SCF Done:  E(RB3LYP) =  -641.683072064     A.U. after   12 cycles
 SCF Done:  E(RB3LYP) =  -641.686711570     A.U. after   11 cycles
 SCF Done:  E(RB3LYP) =  -641.686930874     A.U. after   10 cycles
 SCF Done:  E(RB3LYP) =  -641.687210992     A.U. after   10 cycles
 SCF Done:  E(RB3LYP) =  -641.687263607     A.U. after   10 cycles
 SCF Done:  E(RB3LYP) =  -641.687356565     A.U. after    9 cycles
 SCF Done:  E(RB3LYP) =  -641.687419878     A.U. after   10 cycles
 SCF Done:  E(RB3LYP) =  -641.687460684     A.U. after   10 cycles
 SCF Done:  E(RB3LYP) =  -641.687470680     A.U. after    8 cycles
 SCF Done:  E(RB3LYP) =  -641.687478905     A.U. after    8 cycles
 SCF Done:  E(RB3LYP) =  -641.687480073     A.U. after    7 cycles
 SCF Done:  E(RB3LYP) =  -641.687480439     A.U. after    7 cycles
 SCF Done:  E(RB3LYP) =  -641.687480569     A.U. after    7 cycles
 SCF Done:  E(RB3LYP) =  -641.687480623     A.U. after    6 cycles
 SCF Done:  E(RB3LYP) =  -641.687480653     A.U. after    6 cycles
 Optimization completed.
    -- Stationary point found.
 Normal termination of Gaussian 16 at Thu Dec 10 16:32:56 2020.

 --------------------------------------------------------------------
 #N Geom=AllCheck Guess=TCheck SCRF=Check GenChk RB3LYP/6-31G(d) Freq
 --------------------------------------------------------------------

 Structure from the checkpoint file:  "JID_5481.chk"
 ------------------------------
 CID_79253933_JID_5481_neutraal
 ------------------------------
 Charge =  0 Multiplicity = 1

 SCF Done:  E(RB3LYP) =  -641.687480653     A.U. after    1 cycles

  Exact polarizability: 168.078  -2.288 144.727   0.887   1.979 124.605
 Approx polarizability: 202.554   1.844 193.858   1.663   2.270 201.522

                      1                      2                      3
                      A                      A                      A
 Frequencies --     36.3525                43.4856                66.0097
 Red. masses --      3.5100                 2.1744                 2.4465
 Frc consts  --      0.0027                 0.0024                 0.0063
 IR Inten    --      0.6194                 0.1928                 0.0812

                      4                      5                      6
                      A                      A                      A
 Frequencies --     71.8622                89.3180               132.0369
 Red. masses --      3.6934                 3.2378                 4.8769
 Frc consts  --      0.0112                 0.0152                 0.0501
 IR Inten    --      0.6870                 0.6492                 3.0727

                      7                      8                      9
                      A                      A                      A
 Frequencies --    138.4660               180.2843               197.1742
 Red. masses --      2.7236                 2.9806                 2.1294
 Frc consts  --      0.0308                 0.0571                 0.0488
 IR Inten    --      0.4649                 1.8005                 2.5190

                     10                     11                     12
                      A                      A                      A
 Frequencies --    208.7971               223.7466               240.5862
 Red. masses --      1.2699                 1.2774                 2.9746
 Frc consts  --      0.0326                 0.0377                 0.1014
 IR Inten    --      0.4134                 2.1688                 1.2609

                     13                     14                     15
                      A                      A                      A
 Frequencies --    265.6106               272.4468               295.7977
 Red. masses --      1.6387                 1.5293                 1.4572
 Frc consts  --      0.0681                 0.0669                 0.0751
 IR Inten    --      1.3324                 0.7818                68.4601

                     16                     17                     18
                      A                      A                      A
 Frequencies --    317.2703               324.5266               347.0212
 Red. masses --      1.8678                 1.9854                 2.5670
 Frc consts  --      0.1108                 0.1232                 0.1821
 IR Inten    --     42.9451                17.3336                 0.8980

                     19                     20                     21
                      A                      A                      A
 Frequencies --    374.2878               396.7824               402.0691
 Red. masses --      2.1267                 2.0448                 1.9194
 Frc consts  --      0.1755                 0.1897                 0.1828
 IR Inten    --     12.3692                 2.1352                 1.5731

                     22                     23                     24
                      A                      A                      A
 Frequencies --    411.3193               465.7468               478.1388
 Red. masses --      2.3089                 2.3746                 2.3994
 Frc consts  --      0.2301                 0.3035                 0.3232
 IR Inten    --      0.4014                 1.4742                 0.2994

                     25                     26                     27
                      A                      A                      A
 Frequencies --    522.7943               571.1144               618.8223
 Red. masses --      2.7989                 2.3853                 2.0873
 Frc consts  --      0.4507                 0.4584                 0.4709
 IR Inten    --      0.2350                 0.7723                11.9085

                     28                     29                     30
                      A                      A                      A
 Frequencies --    649.8287               696.7231               769.3018
 Red. masses --      1.6821                 3.4048                 1.6438
 Frc consts  --      0.4185                 0.9738                 0.5732
 IR Inten    --     28.0224                34.4586                 2.9143

                     31                     32                     33
                      A                      A                      A
 Frequencies --    803.2165               825.7142               837.1137
 Red. masses --      1.7416                 1.5839                 2.3723
 Frc consts  --      0.6620                 0.6363                 0.9795
 IR Inten    --      1.5523                 1.4056                 6.7793

                     34                     35                     36
                      A                      A                      A
 Frequencies --    862.1712               887.8763               890.1262
 Red. masses --      2.3397                 2.4027                 1.7159
 Frc consts  --      1.0247                 1.1160                 0.8010
 IR Inten    --      2.1926                 8.5786                14.9756

                     37                     38                     39
                      A                      A                      A
 Frequencies --    928.0822               932.8442               953.0136
 Red. masses --      1.8711                 1.4870                 1.5556
 Frc consts  --      0.9496                 0.7624                 0.8324
 IR Inten    --      1.0410                 4.6917                 5.6773

                     40                     41                     42
                      A                      A                      A
 Frequencies --    956.6670               980.3201               996.3861
 Red. masses --      1.7429                 1.4334                 2.0430
 Frc consts  --      0.9398                 0.8116                 1.1950
 IR Inten    --      1.3963                 0.7416                 2.8767

                     43                     44                     45
                      A                      A                      A
 Frequencies --   1009.1778              1032.2029              1037.8276
 Red. masses --      1.6429                 1.7410                 2.0762
 Frc consts  --      0.9858                 1.0929                 1.3176
 IR Inten    --      6.3251                 2.1762                 0.9477

                     46                     47                     48
                      A                      A                      A
 Frequencies --   1059.3463              1083.8382              1088.4980
 Red. masses --      1.5874                 2.1731                 2.5622
 Frc consts  --      1.0496                 1.5040                 1.7886
 IR Inten    --      6.3263                 0.4758                70.8649

                     49                     50                     51
                      A                      A                      A
 Frequencies --   1095.4128              1105.2275              1110.6919
 Red. masses --      1.5341                 2.4266                 1.3076
 Frc consts  --      1.0845                 1.7464                 0.9504
 IR Inten    --      2.6318                 1.1148                 0.7350

                     52                     53                     54
                      A                      A                      A
 Frequencies --   1151.0262              1162.8990              1168.0971
 Red. masses --      3.1802                 1.9590                 2.0654
 Frc consts  --      2.4824                 1.5609                 1.6604
 IR Inten    --     67.4559                13.0823                 6.1130

                     55                     56                     57
                      A                      A                      A
 Frequencies --   1185.0501              1205.0097              1215.0134
 Red. masses --      1.7249                 1.8401                 2.0449
 Frc consts  --      1.4272                 1.5743                 1.7786
 IR Inten    --      2.0504                10.7895                13.3214

                     58                     59                     60
                      A                      A                      A
 Frequencies --   1231.1814              1237.0810              1279.4124
 Red. masses --      1.3221                 1.7313                 1.3191
 Frc consts  --      1.1807                 1.5611                 1.2722
 IR Inten    --     19.6856                 1.2097                 4.0533

                     61                     62                     63
                      A                      A                      A
 Frequencies --   1289.8902              1299.9374              1310.9696
 Red. masses --      1.3328                 1.3032                 1.2819
 Frc consts  --      1.3066                 1.2975                 1.2981
 IR Inten    --      1.7826                 3.8733                 1.9014

                     64                     65                     66
                      A                      A                      A
 Frequencies --   1328.4084              1334.1381              1357.7647
 Red. masses --      1.2552                 1.2578                 1.2682
 Frc consts  --      1.3051                 1.3191                 1.3775
 IR Inten    --      0.9021                 2.6236                 7.7588

                     67                     68                     69
                      A                      A                      A
 Frequencies --   1363.9585              1374.2831              1381.5884
 Red. masses --      1.4288                 1.3891                 1.2903
 Frc consts  --      1.5662                 1.5457                 1.4511
 IR Inten    --      0.8993                 1.1493                 1.7169

                     70                     71                     72
                      A                      A                      A
 Frequencies --   1383.0453              1392.9922              1398.7857
 Red. masses --      1.3827                 1.3809                 1.4591
 Frc consts  --      1.5583                 1.5787                 1.6821
 IR Inten    --      4.0782                 2.0674                 1.8826

                     73                     74                     75
                      A                      A                      A
 Frequencies --   1404.8663              1414.1086              1422.7338
 Red. masses --      1.3775                 1.3342                 1.3891
 Frc consts  --      1.6018                 1.5720                 1.6567
 IR Inten    --      4.5276                 9.6340                 5.7256

                     76                     77                     78
                      A                      A                      A
 Frequencies --   1425.0599              1431.0843              1432.8563
 Red. masses --      1.3075                 1.3733                 1.2613
 Frc consts  --      1.5645                 1.6571                 1.5258
 IR Inten    --      0.5598                 7.1138                27.5563

                     79                     80                     81
                      A                      A                      A
 Frequencies --   1440.0391              1446.7461              1504.3492
 Red. masses --      1.2702                 1.2395                 1.2113
 Frc consts  --      1.5519                 1.5285                 1.6151
 IR Inten    --      9.5164                10.1392                36.5545

                     82                     83                     84
                      A                      A                      A
 Frequencies --   1512.0830              1518.0932              1518.8101
 Red. masses --      1.1107                 1.1002                 1.0508
 Frc consts  --      1.4963                 1.4939                 1.4281
 IR Inten    --      6.4118                 1.7521                 1.9334

                     85                     86                     87
                      A                      A                      A
 Frequencies --   1521.9418              1523.2008              1525.6423
 Red. masses --      1.0670                 1.0535                 1.0551
 Frc consts  --      1.4562                 1.4401                 1.4469
 IR Inten    --      2.8751                 0.1033                 8.2023

                     88                     89                     90
                      A                      A                      A
 Frequencies --   1529.2277              1534.0565              1536.9268
 Red. masses --      1.0690                 1.0848                 1.0616
 Frc consts  --      1.4729                 1.5042                 1.4774
 IR Inten    --      3.4311                 2.6317                 2.0247

                     91                     92                     93
                      A                      A                      A
 Frequencies --   1542.8204              1546.1042              1558.7428
 Red. masses --      1.0642                 1.0709                 1.0633
 Frc consts  --      1.4925                 1.5082                 1.5222
 IR Inten    --     10.6563                 7.7961                 9.5144

                     94                     95                     96
                      A                      A                      A
 Frequencies --   3002.6577              3011.8497              3017.4695
 Red. masses --      1.0781                 1.0770                 1.0792
 Frc consts  --      5.7269                 5.7561                 5.7893
 IR Inten    --     17.5926                38.7678                 9.8143

                     97                     98                     99
                      A                      A                      A
 Frequencies --   3018.2253              3020.8486              3024.3163
 Red. masses --      1.0678                 1.0759                 1.0717
 Frc consts  --      5.7314                 5.7847                 5.7754
 IR Inten    --     20.1310                12.1686                 7.3501

                    100                    101                    102
                      A                      A                      A
 Frequencies --   3030.7982              3032.8283              3037.4009
 Red. masses --      1.0724                 1.0645                 1.0648
 Frc consts  --      5.8037                 5.7689                 5.7878
 IR Inten    --     67.6443                 7.8736                23.4984

                    103                    104                    105
                      A                      A                      A
 Frequencies --   3039.2715              3039.6519              3045.4117
 Red. masses --      1.0410                 1.0801                 1.0422
 Frc consts  --      5.6656                 5.8798                 5.6951
 IR Inten    --     14.2565                51.0427                58.5458

                    106                    107                    108
                      A                      A                      A
 Frequencies --   3047.8340              3062.0434              3070.0675
 Red. masses --      1.0434                 1.0944                 1.0971
 Frc consts  --      5.7106                 6.0460                 6.0927
 IR Inten    --     37.3286                20.8248                86.8387

                    109                    110                    111
                      A                      A                      A
 Frequencies --   3074.3821              3079.9717              3084.7779
 Red. masses --      1.0937                 1.0986                 1.1009
 Frc consts  --      6.0907                 6.1402                 6.1721
 IR Inten    --     63.4880                34.6459                75.0997

                    112                    113                    114
                      A                      A                      A
 Frequencies --   3099.0319              3104.7030              3106.3634
 Red. masses --      1.0995                 1.1018                 1.0988
 Frc consts  --      6.2217                 6.2571                 6.2468
 IR Inten    --      3.9716                42.2683                85.1832

                    115                    116                    117
                      A                      A                      A
 Frequencies --   3123.5997              3136.0391              3151.1796
 Red. masses --      1.0923                 1.0982                 1.0979
 Frc consts  --      6.2795                 6.3636                 6.4234
 IR Inten    --     41.7837                24.1901                41.0740

                    118                    119                    120
                      A                      A                      A
 Frequencies --   3155.0416              3500.4829              3729.4576
 Red. masses --      1.0968                 1.0738                 1.0651
 Frc consts  --      6.4327                 7.7522                 8.7282
 IR Inten    --      6.2961                 0.6107                11.6236

 - Thermochemistry -
 -------------------
 Temperature   298.150 Kelvin.  Pressure   1.00000 Atm.
 Atom     1 has atomic number  6 and mass  12.00000

 Molecular mass:   213.20926 amu.
 Principal axes and moments of inertia in atomic units:
                           1         2         3
     Eigenvalues --  2099.953474967.799786345.70712
           X            0.99991  -0.01181   0.00606
           Y            0.01173   0.99983   0.01439
           Z           -0.00622  -0.01432   0.99988
 This molecule is an asymmetric top.
 Rotational symmetry number  1.
 Warning -- assumption of classical behavior for rotation
           may cause significant error
 Rotational temperatures (Kelvin)      0.04125     0.01744     0.01365
 Rotational constants (GHZ):           0.85942     0.36329     0.28440
 Zero-point vibrational energy    1031594.9 (Joules/Mol)
                                  246.55711 (Kcal/Mol)
 Warning -- explicit consideration of  27 degrees of freedom as
           vibrations may cause significant error
 Vibrational temperatures:     52.30    62.57    94.97   103.39   128.51
          (Kelvin)            189.97   199.22   259.39   283.69   300.41
                              321.92   346.15   382.15   391.99   425.59
                              456.48   466.92   499.29   538.52   570.88
                              578.49   591.80   670.11   687.94   752.18
                              821.71   890.35   934.96  1002.43  1106.85
                             1155.65  1188.02  1204.42  1240.47  1277.46
                             1280.69  1335.30  1342.15  1371.17  1376.43
                             1410.46  1433.58  1451.98  1485.11  1493.20
                             1524.16  1559.40  1566.11  1576.05  1590.18
                             1598.04  1656.07  1673.15  1680.63  1705.02
                             1733.74  1748.13  1771.40  1779.88  1840.79
                             1855.86  1870.32  1886.19  1911.28  1919.53
                             1953.52  1962.43  1977.29  1987.80  1989.89
                             2004.21  2012.54  2021.29  2034.59  2047.00
                             2050.34  2059.01  2061.56  2071.90  2081.54
                             2164.42  2175.55  2184.20  2185.23  2189.73
                             2191.55  2195.06  2200.22  2207.17  2211.29
                             2219.77  2224.50  2242.68  4320.15  4333.38
                             4341.47  4342.55  4346.33  4351.32  4360.64
                             4363.56  4370.14  4372.83  4373.38  4381.67
                             4385.15  4405.60  4417.14  4423.35  4431.39
                             4438.31  4458.82  4466.98  4469.36  4494.16
                             4512.06  4533.84  4539.40  5036.41  5365.86

 Zero-point correction=                           0.392914 (Hartree/Particle)
 Thermal correction to Energy=                    0.410268
 Thermal correction to Enthalpy=                  0.411212
 Thermal correction to Gibbs Free Energy=         0.348199
 Sum of electronic and zero-point Energies=           -641.294567
 Sum of electronic and thermal Energies=              -641.277213
 Sum of electronic and thermal Enthalpies=            -641.276269
 Sum of electronic and thermal Free Energies=         -641.339281

                     E (Thermal)             CV                S
                      KCal/Mol        Cal/Mol-Kelvin    Cal/Mol-Kelvin
 Total                  257.447             66.822            132.622
 Electronic               0.000              0.000              0.000
 Translational            0.889              2.981             41.975
 Rotational               0.889              2.981             32.559
 Vibrational            255.669             60.860             58.087
 Vibration     1          0.594              1.982              5.449
 Vibration     2          0.595              1.980              5.094
 Vibration     3          0.597              1.970              4.269
 Vibration     4          0.598              1.967              4.102
 Vibration     5          0.602              1.957              3.675
 Vibration     6          0.612              1.921              2.916
 Vibration     7          0.614              1.915              2.825
 Vibration     8          0.629              1.866              2.325
 Vibration     9          0.637              1.844              2.159
 Vibration    10          0.642              1.827              2.054
 Vibration    11          0.649              1.805              1.929
 Vibration    12          0.658              1.778              1.799
 Vibration    13          0.671              1.736              1.625
 Vibration    14          0.675              1.724              1.581
 Vibration    15          0.690              1.682              1.441
 Vibration    16          0.704              1.641              1.324
 Vibration    17          0.709              1.626              1.287
 Vibration    18          0.725              1.581              1.180
 Vibration    19          0.745              1.525              1.062
 Vibration    20          0.763              1.477              0.975
 Vibration    21          0.768              1.466              0.955
 Vibration    22          0.775              1.446              0.922
 Vibration    23          0.823              1.326              0.750
 Vibration    24          0.835              1.299              0.715
 Vibration    25          0.878              1.200              0.604
 Vibration    26          0.927              1.094              0.502
 Vibration    27          0.979              0.992              0.418

 Optimization completed.
    -- Stationary point found.
 Normal termination of Gaussian 16 at Thu Dec 10 16:49:53 2020.

 ----------------------------------------------------------------------
 # B3LYP/6-311++G(d,p) empiricaldispersion=gd3bj scf=xqc pop=npa geom=c
 heck
 ----------------------------------------------------------------------

 --------------------------------------
 CID_79253933_JID_5481_Energie_neutraal
 --------------------------------------
 Structure from the checkpoint file:  "JID_5481.chk"
 Charge =  0 Multiplicity = 1

 SCF Done:  E(RB3LYP) =  -641.877740731     A.U. after   14 cycles
 Normal termination of Gaussian 16 at Thu Dec 10 17:01:50 2020.

 ----------------------------------------------------------------------
 # B3LYP/6-311++G(d,p) empiricaldispersion=gd3bj scf=xqc pop=npa geom=c
 heck
 ----------------------------------------------------------------------

 ------------------------------------
 CID_79253933_JID_5481_Energie_kation
 ------------------------------------
 Structure from the checkpoint file:  "JID_5481.chk"
 Charge =  1 Multiplicity = 2

 SCF Done:  E(UB3LYP) =  -641.588859406     A.U. after   18 cycles
 Normal termination of Gaussian 16 at Thu Dec 10 17:26:12 2020.
 Gaussian 16:  ES64L-G16RevA.03 25-Dec-2016

 ----------------------------------------------------------------------
 # B3LYP/6-311++G(d,p) empiricaldispersion=gd3bj scf=xqc pop=npa geom=c
 heck
 ----------------------------------------------------------------------

 -----------------------------------
 CID_79253933_JID_5481_Energie_anion
 -----------------------------------
 Structure from the checkpoint file:  "JID_5481.chk"
 Charge = -1 Multiplicity = 2

                         Standard orientation:
 ---------------------------------------------------------------------
 Center     Atomic      Atomic             Coordinates (Angstroms)
 Number     Number       Type             X           Y           Z
 ---------------------------------------------------------------------
      1          6           0        1.169516    2.913838    0.871160
      2          6           0        2.113611    1.718914    0.702671
      3          6           0        1.832046    0.854671   -0.550516
      4          6           0        3.127287    0.240730   -1.119745
      5          6           0        3.716697   -0.832748   -0.196332
      6          6           0        2.694760   -1.946399    0.059107
      7          6           0        1.368479   -1.382603    0.587698
      8          6           0        0.795870   -0.278159   -0.325336
      9          7           0       -0.494345    0.250466    0.126936
     10          6           0       -1.723248   -0.283494   -0.473163
     11          6           0       -1.898238   -1.799314   -0.278277
     12          8           0       -2.049072   -2.168691    1.088392
     13          6           0       -2.918913    0.545926    0.050713
     14          6           0       -2.819146    2.000600   -0.425606
     15          6           0       -4.276294   -0.052811   -0.338674
     16          1           0        1.224609    3.575725   -0.001730
     17          1           0        1.435398    3.505037    1.755501
     18          1           0        0.131941    2.587209    0.967434
     19          1           0        3.143862    2.095015    0.640586
     20          1           0        2.086552    1.103551    1.611203
     21          1           0        1.405524    1.517962   -1.314930
     22          1           0        2.910350   -0.215163   -2.097065
     23          1           0        3.862024    1.034914   -1.302218
     24          1           0        4.010762   -0.378137    0.759551
     25          1           0        4.630023   -1.251469   -0.636342
     26          1           0        3.095808   -2.688145    0.760664
     27          1           0        2.502171   -2.479134   -0.883576
     28          1           0        1.524426   -0.969551    1.595017
     29          1           0        0.638934   -2.194069    0.693290
     30          1           0        0.619601   -0.730237   -1.311496
     31          1           0       -0.560281    0.261646    1.141940
     32          1           0       -1.643632   -0.114174   -1.558201
     33          1           0       -2.799104   -2.153049   -0.784857
     34          1           0       -1.046648   -2.325657   -0.736044
     35          1           0       -1.269565   -1.829858    1.556658
     36          1           0       -2.859688    0.532256    1.149212
     37          1           0       -2.963100    2.057269   -1.512788
     38          1           0       -3.593421    2.618771    0.043037
     39          1           0       -1.840947    2.428063   -0.195029
     40          1           0       -4.448485   -1.018927    0.143654
     41          1           0       -5.086151    0.620195   -0.035733
     42          1           0       -4.352531   -0.188680   -1.425628
 ---------------------------------------------------------------------

 SCF Done:  E(UB3LYP) =  -641.862778014     A.U. after   32 cycles

 The electronic state is 2-A.
 Alpha  occ. eigenvalues --  -19.03062 -14.19960 -10.11902 -10.10788 -10.10176
 Alpha  occ. eigenvalues --  -10.08277 -10.06934 -10.06897 -10.06747 -10.06597
 Alpha  occ. eigenvalues --  -10.06387 -10.06314 -10.06285 -10.06180 -10.05454
 Alpha  occ. eigenvalues --   -0.93211  -0.81683  -0.73634  -0.70332  -0.67563
 Alpha  occ. eigenvalues --   -0.64048  -0.62611  -0.61228  -0.58992  -0.54058
 Alpha  occ. eigenvalues --   -0.52306  -0.51055  -0.49094  -0.47924  -0.43766
 Alpha  occ. eigenvalues --   -0.41395  -0.39822  -0.39087  -0.37095  -0.36107
 Alpha  occ. eigenvalues --   -0.35378  -0.35054  -0.33717  -0.33158  -0.32020
 Alpha  occ. eigenvalues --   -0.31036  -0.30618  -0.29750  -0.29188  -0.28715
 Alpha  occ. eigenvalues --   -0.28312  -0.27937  -0.26111  -0.25660  -0.24856
 Alpha  occ. eigenvalues --   -0.24687  -0.24456  -0.23938  -0.23096  -0.22953
 Alpha  occ. eigenvalues --   -0.21177  -0.20573  -0.20368  -0.18796  -0.12375
 Alpha  occ. eigenvalues --    0.04367
 Alpha virt. eigenvalues --    0.06111   0.06276   0.07078   0.07811   0.08198
 Alpha virt. eigenvalues --    0.08536   0.08965   0.09472   0.09920   0.10342
 Alpha virt. eigenvalues --    0.10867   0.11185   0.11445   0.11896   0.12357

  Beta  occ. eigenvalues --  -19.03042 -14.19948 -10.11892 -10.10786 -10.10174
  Beta  occ. eigenvalues --  -10.08269 -10.06919 -10.06893 -10.06722 -10.06576
  Beta  occ. eigenvalues --  -10.06372 -10.06294 -10.06267 -10.06166 -10.05435
  Beta  occ. eigenvalues --   -0.93168  -0.81662  -0.73608  -0.70310  -0.67531
  Beta  occ. eigenvalues --   -0.64015  -0.62575  -0.61193  -0.58960  -0.54022
  Beta  occ. eigenvalues --   -0.52253  -0.51002  -0.49042  -0.47888  -0.43718
  Beta  occ. eigenvalues --   -0.41365  -0.39779  -0.39055  -0.37062  -0.36079
  Beta  occ. eigenvalues --   -0.35350  -0.35024  -0.33687  -0.33131  -0.31995
  Beta  occ. eigenvalues --   -0.30999  -0.30585  -0.29728  -0.29164  -0.28695
  Beta  occ. eigenvalues --   -0.28287  -0.27906  -0.26072  -0.25640  -0.24821
  Beta  occ. eigenvalues --   -0.24662  -0.24423  -0.23902  -0.23068  -0.22929
  Beta  occ. eigenvalues --   -0.21153  -0.20543  -0.20338  -0.18770  -0.12358
  Beta virt. eigenvalues --    0.06169   0.06830   0.06865   0.07584   0.08308
  Beta virt. eigenvalues --    0.08474   0.08921   0.09291   0.09838   0.10301
  Beta virt. eigenvalues --    0.10542   0.11155   0.11445   0.11607   0.12190

 Mulliken charges and spin densities:
               1          2
     1  C    0.909736  -1.565718
     2  C   -0.480732   0.169064
     3  C    0.012525   0.882702
     4  C    0.449222  -1.055253
     5  C    0.060957  -0.342384
     6  C    0.478096  -1.084001
     7  C   -0.651551   0.828958
     8  C    0.229435  -1.547257
     9  N    0.221967   0.012091
    10  C   -0.540484   0.479751
    11  C    0.545041  -1.333098
    12  O   -0.181595   0.037389
    13  C   -0.534694   0.960692
    14  C   -0.203062  -0.343043
    15  C   -0.010328  -0.701432
    16  H   -0.005623   0.123344
    17  H   -0.219852   0.355165
    18  H   -0.257677   0.400079
    19  H   -0.087737   0.249163
    20  H   -0.073311   0.218760
    21  H    0.020174   0.200665
    22  H   -0.065113   0.180969
    23  H   -0.159698   0.333582
    24  H    0.016545   0.116995
    25  H   -0.576819   0.772138
    26  H   -0.527910   0.710607
    27  H    0.041931   0.080520
    28  H   -0.459434   0.634508
    29  H    0.218896  -0.102477
    30  H    0.089936   0.074441
    31  H    0.335820  -0.090987
    32  H    0.065711   0.078569
    33  H    0.173288  -0.013595
    34  H   -0.016529   0.182385
    35  H   -0.018153   0.287603
    36  H   -0.092081   0.255837
    37  H    0.002587   0.117484
    38  H   -0.187759   0.327572
    39  H    0.463510  -0.338262
    40  H    0.070147   0.111637
    41  H   -0.087286   0.226807
    42  H    0.031905   0.108029
 Sum of Mulliken charges =  -1.00000   1.00000

 Dipole moment (field-independent basis, Debye):
    X=             -3.9268    Y=              0.6535    Z=             -3.1313  Tot=              5.0648
 Quadrupole moment (field-independent basis, Debye-Ang):
   XX=           -185.3314   YY=           -151.7806   ZZ=           -135.5114
   XY=              6.3236   XZ=              3.3592   YZ=              2.6338

 Summary of Natural Population Analysis:

                                       Natural Population
                Natural  -----------------------------------------------
    Atom  No    Charge         Core      Valence    Rydberg      Total
 -----------------------------------------------------------------------
      C    1   -0.28315      0.99966     2.27774    0.00574     3.28315
      C    2   -0.19295      0.99961     2.18482    0.00851     3.19295
      C    3   -0.10768      0.99957     2.09638    0.01173     3.10768
      C    4   -0.18572      0.99961     2.17666    0.00945     3.18572
      C    5   -0.19115      0.99963     2.18316    0.00837     3.19115
      C    6   -0.18755      0.99963     2.17917    0.00875     3.18755
      C    7   -0.20046      0.99960     2.19041    0.01044     3.20046
      C    8   -0.00423      0.99955     1.99194    0.01274     3.00423
      N    9   -0.35371      0.99972     2.84132    0.01266     3.85371
      C   10   -0.01154      0.99956     2.00084    0.01114     3.01154
      C   11   -0.01887      0.99956     2.00723    0.01209     3.01887
      O   12   -0.37126      0.99990     3.36478    0.00658     4.37126
      C   13   -0.11724      0.99960     2.10565    0.01199     3.11724
      C   14   -0.28286      0.99965     2.27829    0.00493     3.28286
      C   15   -0.28561      0.99965     2.28099    0.00496     3.28561
      H   16    0.09280      0.00000     0.40621    0.00099     0.40720
      H   17    0.09524      0.00000     0.40392    0.00083     0.40476
      H   18    0.10260      0.00000     0.39608    0.00132     0.39740
      H   19    0.09535      0.00000     0.40336    0.00128     0.40465
      H   20    0.09528      0.00000     0.40304    0.00167     0.40472
      H   21    0.09726      0.00000     0.40111    0.00163     0.40274
      H   22    0.09299      0.00000     0.40583    0.00118     0.40701
      H   23    0.09925      0.00000     0.39964    0.00111     0.40075
      H   24    0.09510      0.00000     0.40329    0.00161     0.40490
      H   25    0.09992      0.00000     0.39865    0.00144     0.40008
      H   26    0.10141      0.00000     0.39719    0.00140     0.39859
      H   27    0.09093      0.00000     0.40772    0.00135     0.40907
      H   28    0.09604      0.00000     0.40201    0.00195     0.40396
      H   29    0.09746      0.00000     0.40096    0.00158     0.40254
      H   30    0.09095      0.00000     0.40714    0.00192     0.40905
      H   31    0.17374      0.00000     0.32310    0.00316     0.32626
      H   32    0.09168      0.00000     0.40690    0.00142     0.40832
      H   33    0.08819      0.00000     0.41058    0.00122     0.41181
      H   34    0.07865      0.00000     0.42001    0.00135     0.42135
      H   35    0.22798      0.00000     0.26819    0.00383     0.27202
      H   36    0.09633      0.00000     0.40179    0.00188     0.40367
      H   37    0.09244      0.00000     0.40663    0.00093     0.40756
      H   38    0.09609      0.00000     0.40301    0.00089     0.40391
      H   39    0.10929      0.00000     0.38954    0.00117     0.39071
      H   40    0.10412      0.00000     0.39487    0.00100     0.39588
      H   41    0.09946      0.00000     0.39962    0.00092     0.40054
      H   42    0.09343      0.00000     0.40562    0.00095     0.40657
 =======================================================================
   * Total *   -0.00000     14.99449    44.82542    0.18008    60.00000

 Normal termination of Gaussian 16 at Thu Dec 10 18:00:19 2020.
