 Gaussian 16, Revision A.03,

 -----------------------------------------------------------
 # opt freq B3LYP/6-31G(d) empiricaldispersion=gd3bj scf=xqc
 -----------------------------------------------------------

 -------------------------------
 CID_114041906_JID_7191_neutraal
 -------------------------------
 Symbolic Z-matrix:
 Charge =  0 Multiplicity = 1

 SCF Done:  E(RB3LYP) =  -782.159147622     A.U. after   17 cycles
 SCF Done:  E(RB3LYP) =  -782.163916527     A.U. after   15 cycles
 SCF Done:  E(RB3LYP) =  -782.156241329     A.U. after   17 cycles
 SCF Done:  E(RB3LYP) =  -782.165441672     A.U. after   14 cycles
 SCF Done:  E(RB3LYP) =  -782.166359836     A.U. after   13 cycles
 SCF Done:  E(RB3LYP) =  -782.167009031     A.U. after   14 cycles
 SCF Done:  E(RB3LYP) =  -782.167353146     A.U. after   14 cycles
 SCF Done:  E(RB3LYP) =  -782.167745967     A.U. after   14 cycles
 SCF Done:  E(RB3LYP) =  -782.167864618     A.U. after   13 cycles
 SCF Done:  E(RB3LYP) =  -782.167933675     A.U. after   13 cycles
 SCF Done:  E(RB3LYP) =  -782.167942770     A.U. after   12 cycles
 SCF Done:  E(RB3LYP) =  -782.167952562     A.U. after   12 cycles
 SCF Done:  E(RB3LYP) =  -782.167953795     A.U. after    9 cycles
 SCF Done:  E(RB3LYP) =  -782.167954692     A.U. after    9 cycles
 SCF Done:  E(RB3LYP) =  -782.167954795     A.U. after    8 cycles
 SCF Done:  E(RB3LYP) =  -782.167954821     A.U. after    8 cycles
 Optimization completed.
    -- Stationary point found.
 Normal termination of Gaussian 16 at Sun Dec 13 16:14:18 2020.

 --------------------------------------------------------------------
 #N Geom=AllCheck Guess=TCheck SCRF=Check GenChk RB3LYP/6-31G(d) Freq
 --------------------------------------------------------------------

 Structure from the checkpoint file:  "JID_7191.chk"
 -------------------------------
 CID_114041906_JID_7191_neutraal
 -------------------------------
 Charge =  0 Multiplicity = 1

 SCF Done:  E(RB3LYP) =  -782.167954821     A.U. after    1 cycles

  Exact polarizability: 183.670  -3.957 152.460  15.257  -1.272 112.967
 Approx polarizability: 256.413  -0.757 255.214  34.599   1.649 182.181

                      1                      2                      3
                      A                      A                      A
 Frequencies --     40.9557                51.1298                71.2529
 Red. masses --      3.6369                 4.6634                 3.5963
 Frc consts  --      0.0036                 0.0072                 0.0108
 IR Inten    --      1.8350                 0.8770                 1.2221

                      4                      5                      6
                      A                      A                      A
 Frequencies --     77.4791                95.3947               136.4044
 Red. masses --      4.9992                 5.2790                 2.6900
 Frc consts  --      0.0177                 0.0283                 0.0295
 IR Inten    --      3.6901                 1.3346                 6.5995

                      7                      8                      9
                      A                      A                      A
 Frequencies --    150.7620               166.9529               193.2955
 Red. masses --      3.5430                 1.1113                 2.1165
 Frc consts  --      0.0474                 0.0182                 0.0466
 IR Inten    --      3.6351                 0.4862                 5.7553

                     10                     11                     12
                      A                      A                      A
 Frequencies --    213.6780               216.7403               246.3926
 Red. masses --      3.3247                 2.8292                 1.4781
 Frc consts  --      0.0894                 0.0783                 0.0529
 IR Inten    --      2.4066                10.8336                21.5395

                     13                     14                     15
                      A                      A                      A
 Frequencies --    257.6662               281.5089               283.9665
 Red. masses --      3.3045                 3.6216                 4.3321
 Frc consts  --      0.1293                 0.1691                 0.2058
 IR Inten    --      4.0022                 0.7338                 5.5553

                     16                     17                     18
                      A                      A                      A
 Frequencies --    351.0885               391.4465               405.4133
 Red. masses --      3.2916                 3.3528                 4.3770
 Frc consts  --      0.2390                 0.3027                 0.4239
 IR Inten    --     11.1264                 0.2555                 0.3094

                     19                     20                     21
                      A                      A                      A
 Frequencies --    446.1533               463.5144               488.7295
 Red. masses --      5.2586                 3.6927                 3.4704
 Frc consts  --      0.6167                 0.4674                 0.4884
 IR Inten    --      5.1463                 3.5646                10.2210

                     22                     23                     24
                      A                      A                      A
 Frequencies --    557.7152               585.0556               604.5444
 Red. masses --      5.0815                 3.7062                 2.2172
 Frc consts  --      0.9313                 0.7474                 0.4774
 IR Inten    --      1.5901                 0.3510                 0.4074

                     25                     26                     27
                      A                      A                      A
 Frequencies --    611.6554               701.0749               724.3546
 Red. masses --      3.8769                 6.6116                 4.5458
 Frc consts  --      0.8546                 1.9146                 1.4053
 IR Inten    --      5.6657                 7.3790                12.8953

                     28                     29                     30
                      A                      A                      A
 Frequencies --    785.4996               795.4214               803.1828
 Red. masses --      4.9605                 3.1681                 1.6314
 Frc consts  --      1.8033                 1.1810                 0.6201
 IR Inten    --      5.0196                 9.9035                15.5088

                     31                     32                     33
                      A                      A                      A
 Frequencies --    824.6569               857.0476               861.4733
 Red. masses --      2.2645                 1.2542                 6.3336
 Frc consts  --      0.9073                 0.5428                 2.7694
 IR Inten    --      1.2170               107.3633                 9.5303

                     34                     35                     36
                      A                      A                      A
 Frequencies --    880.8662               895.2142               910.9034
 Red. masses --      2.4651                 2.0715                 1.4473
 Frc consts  --      1.1270                 0.9781                 0.7076
 IR Inten    --     15.5516                 5.3035                 0.4804

                     37                     38                     39
                      A                      A                      A
 Frequencies --    935.7110               943.7642               980.7473
 Red. masses --      1.9156                 2.1263                 1.2919
 Frc consts  --      0.9882                 1.1158                 0.7321
 IR Inten    --     22.4448                 3.0785                 0.0826

                     40                     41                     42
                      A                      A                      A
 Frequencies --    996.6730              1020.9242              1024.5166
 Red. masses --      2.0119                 1.5549                 1.7431
 Frc consts  --      1.1775                 0.9549                 1.0780
 IR Inten    --      5.5121                17.4336                10.1484

                     43                     44                     45
                      A                      A                      A
 Frequencies --   1059.0071              1075.1410              1085.9817
 Red. masses --      1.6933                 1.5147                 2.5495
 Frc consts  --      1.1189                 1.0316                 1.7715
 IR Inten    --      6.6789                 3.2911                 2.8465

                     46                     47                     48
                      A                      A                      A
 Frequencies --   1095.2196              1110.4094              1156.2979
 Red. masses --      2.6857                 2.6874                 1.7320
 Frc consts  --      1.8981                 1.9523                 1.3644
 IR Inten    --      7.6811                16.7363                13.1927

                     49                     50                     51
                      A                      A                      A
 Frequencies --   1162.1680              1176.1085              1187.7560
 Red. masses --      2.0380                 1.5258                 2.7356
 Frc consts  --      1.6217                 1.2435                 2.2738
 IR Inten    --      9.3799                12.9341                22.3861

                     52                     53                     54
                      A                      A                      A
 Frequencies --   1202.4592              1218.8091              1234.5441
 Red. masses --      1.2590                 1.5025                 1.5433
 Frc consts  --      1.0725                 1.3150                 1.3858
 IR Inten    --      0.6652                10.5661                 9.0708

                     55                     56                     57
                      A                      A                      A
 Frequencies --   1277.3115              1286.5422              1315.2625
 Red. masses --      1.5025                 1.6536                 1.3050
 Frc consts  --      1.4443                 1.6126                 1.3301
 IR Inten    --      4.6599                 5.9844                 9.1191

                     58                     59                     60
                      A                      A                      A
 Frequencies --   1332.3615              1337.0465              1349.0173
 Red. masses --      1.4355                 5.1524                 1.7063
 Frc consts  --      1.5014                 5.4269                 1.8295
 IR Inten    --      5.6858                24.7615                 5.6618

                     61                     62                     63
                      A                      A                      A
 Frequencies --   1369.3607              1375.1260              1395.0288
 Red. masses --      1.8684                 1.5281                 1.2711
 Frc consts  --      2.0642                 1.7025                 1.4575
 IR Inten    --     20.1560                 9.8740                 9.7369

                     64                     65                     66
                      A                      A                      A
 Frequencies --   1404.7413              1420.5385              1447.4454
 Red. masses --      1.7146                 5.3422                 1.2410
 Frc consts  --      1.9935                 6.3515                 1.5319
 IR Inten    --     28.0441               165.3796                 0.6452

                     67                     68                     69
                      A                      A                      A
 Frequencies --   1450.1643              1465.2559              1512.3959
 Red. masses --      1.4526                 2.8893                 1.4950
 Frc consts  --      1.7998                 3.6548                 2.0148
 IR Inten    --      4.5904                14.6981                10.9085

                     70                     71                     72
                      A                      A                      A
 Frequencies --   1515.8004              1517.5883              1524.0443
 Red. masses --      1.0894                 1.2403                 1.0987
 Frc consts  --      1.4748                 1.6830                 1.5036
 IR Inten    --      1.6764                15.6450                13.0559

                     73                     74                     75
                      A                      A                      A
 Frequencies --   1529.8503              1534.5978              1555.6919
 Red. masses --      1.4363                 1.0892                 1.1177
 Frc consts  --      1.9806                 1.5113                 1.5937
 IR Inten    --     68.9725                 3.9384                 1.5076

                     76                     77                     78
                      A                      A                      A
 Frequencies --   1621.3711              1638.0347              1653.3052
 Red. masses --      8.7711                 5.4223                 8.1282
 Frc consts  --     13.5853                 8.5720                13.0903
 IR Inten    --    131.7892                25.3987               159.8881

                     79                     80                     81
                      A                      A                      A
 Frequencies --   1698.3415              2956.1529              3024.2076
 Red. masses --      1.0889                 1.0727                 1.0636
 Frc consts  --      1.8505                 5.5233                 5.7310
 IR Inten    --     32.3461                65.0881                46.4812

                     82                     83                     84
                      A                      A                      A
 Frequencies --   3060.0844              3066.2754              3073.7531
 Red. masses --      1.0749                 1.0359                 1.0649
 Frc consts  --      5.9303                 5.7383                 5.9280
 IR Inten    --      9.6974                17.2063                24.2470

                     85                     86                     87
                      A                      A                      A
 Frequencies --   3076.3204              3077.9932              3097.2650
 Red. masses --      1.0894                 1.0852                 1.0860
 Frc consts  --      6.0745                 6.0573                 6.1383
 IR Inten    --     40.2752                44.1703                19.0067

                     88                     89                     90
                      A                      A                      A
 Frequencies --   3113.6059              3126.2660              3128.8126
 Red. masses --      1.1015                 1.1045                 1.1007
 Frc consts  --      6.2919                 6.3599                 6.3485
 IR Inten    --     28.6361                39.9393                10.3778

                     91                     92                     93
                      A                      A                      A
 Frequencies --   3142.6413              3191.1418              3205.4711
 Red. masses --      1.1037                 1.0866                 1.0920
 Frc consts  --      6.4221                 6.5193                 6.6107
 IR Inten    --     14.3276                 3.7413                19.8413

                     94                     95                     96
                      A                      A                      A
 Frequencies --   3218.5682              3473.0390              3556.0488
 Red. masses --      1.0955                 1.0499                 1.0921
 Frc consts  --      6.6866                 7.4614                 8.1363
 IR Inten    --     11.0282                 2.5723                 0.3302

 - Thermochemistry -
 -------------------
 Temperature   298.150 Kelvin.  Pressure   1.00000 Atm.
 Atom     1 has atomic number  6 and mass  12.00000

 Molecular mass:   235.13208 amu.
 Principal axes and moments of inertia in atomic units:
                           1         2         3
     Eigenvalues --  2522.442575015.097695526.81886
           X            0.99998   0.00506   0.00236
           Y           -0.00513   0.99961   0.02738
           Z           -0.00222  -0.02739   0.99962
 This molecule is an asymmetric top.
 Rotational symmetry number  1.
 Warning -- assumption of classical behavior for rotation
           may cause significant error
 Rotational temperatures (Kelvin)      0.03434     0.01727     0.01567
 Rotational constants (GHZ):           0.71547     0.35986     0.32654
 Zero-point vibrational energy     754895.7 (Joules/Mol)
                                  180.42439 (Kcal/Mol)
 Warning -- explicit consideration of  25 degrees of freedom as
           vibrations may cause significant error
 Vibrational temperatures:     58.93    73.56   102.52   111.48   137.25
          (Kelvin)            196.26   216.91   240.21   278.11   307.44
                              311.84   354.50   370.72   405.03   408.56
                              505.14   563.20   583.30   641.92   666.89
                              703.17   802.43   841.76   869.80   880.04
                             1008.69  1042.18  1130.16  1144.43  1155.60
                             1186.50  1233.10  1239.47  1267.37  1288.01
                             1310.59  1346.28  1357.87  1411.08  1433.99
                             1468.88  1474.05  1523.67  1546.89  1562.49
                             1575.78  1597.63  1663.65  1672.10  1692.16
                             1708.92  1730.07  1753.59  1776.23  1837.77
                             1851.05  1892.37  1916.97  1923.71  1940.93
                             1970.20  1978.50  2007.14  2021.11  2043.84
                             2082.55  2086.46  2108.18  2176.00  2180.90
                             2183.47  2192.76  2201.11  2207.94  2238.29
                             2332.79  2356.77  2378.74  2443.53  4253.24
                             4351.16  4402.78  4411.69  4422.45  4426.14
                             4428.55  4456.27  4479.78  4498.00  4501.66
                             4521.56  4591.34  4611.96  4630.80  4996.93
                             5116.36

 Zero-point correction=                           0.287525 (Hartree/Particle)
 Thermal correction to Energy=                    0.303647
 Thermal correction to Enthalpy=                  0.304591
 Thermal correction to Gibbs Free Energy=         0.243705
 Sum of electronic and zero-point Energies=           -781.880430
 Sum of electronic and thermal Energies=              -781.864308
 Sum of electronic and thermal Enthalpies=            -781.863364
 Sum of electronic and thermal Free Energies=         -781.924250

                     E (Thermal)             CV                S
                      KCal/Mol        Cal/Mol-Kelvin    Cal/Mol-Kelvin
 Total                  190.541             61.100            128.146
 Electronic               0.000              0.000              0.000
 Translational            0.889              2.981             42.267
 Rotational               0.889              2.981             32.614
 Vibrational            188.764             55.138             53.266
 Vibration     1          0.594              1.981              5.212
 Vibration     2          0.595              1.977              4.773
 Vibration     3          0.598              1.968              4.118
 Vibration     4          0.599              1.964              3.954
 Vibration     5          0.603              1.952              3.546
 Vibration     6          0.614              1.917              2.854
 Vibration     7          0.618              1.902              2.663
 Vibration     8          0.624              1.883              2.470
 Vibration     9          0.635              1.849              2.196
 Vibration    10          0.644              1.820              2.012
 Vibration    11          0.646              1.816              1.986
 Vibration    12          0.661              1.769              1.756
 Vibration    13          0.667              1.750              1.678
 Vibration    14          0.681              1.708              1.524
 Vibration    15          0.682              1.703              1.510
 Vibration    16          0.728              1.573              1.161
 Vibration    17          0.759              1.488              0.995
 Vibration    18          0.770              1.458              0.943
 Vibration    19          0.805              1.369              0.807
 Vibration    20          0.821              1.331              0.756
 Vibration    21          0.845              1.275              0.687
 Vibration    22          0.913              1.123              0.528
 Vibration    23          0.942              1.064              0.476
 Vibration    24          0.963              1.022              0.442
 Vibration    25          0.971              1.007              0.430

                           ! Non-Optimized Parameters !
 Normal termination of Gaussian 16 at Sun Dec 13 16:28:20 2020.

 ----------------------------------------------------------------------
 # B3LYP/6-311++G(d,p) empiricaldispersion=gd3bj scf=xqc pop=npa geom=c
 heck
 ----------------------------------------------------------------------

 ---------------------------------------
 CID_114041906_JID_7191_Energie_neutraal
 ---------------------------------------
 Structure from the checkpoint file:  "JID_7191.chk"
 Charge =  0 Multiplicity = 1

 SCF Done:  E(RB3LYP) =  -782.390583482     A.U. after   16 cycles
 Normal termination of Gaussian 16 at Sun Dec 13 16:35:15 2020.

 ----------------------------------------------------------------------
 # B3LYP/6-311++G(d,p) empiricaldispersion=gd3bj scf=xqc pop=npa geom=c
 heck
 ----------------------------------------------------------------------

 -------------------------------------
 CID_114041906_JID_7191_Energie_kation
 -------------------------------------
 Structure from the checkpoint file:  "JID_7191.chk"
 Charge =  1 Multiplicity = 2

 SCF Done:  E(UB3LYP) =  -782.111432599     A.U. after   26 cycles
 Normal termination of Gaussian 16 at Sun Dec 13 16:52:03 2020.
 Gaussian 16:  ES64L-G16RevA.03 25-Dec-2016

 ----------------------------------------------------------------------
 # B3LYP/6-311++G(d,p) empiricaldispersion=gd3bj scf=xqc pop=npa geom=c
 heck
 ----------------------------------------------------------------------

 ------------------------------------
 CID_114041906_JID_7191_Energie_anion
 ------------------------------------
 Structure from the checkpoint file:  "JID_7191.chk"
 Charge = -1 Multiplicity = 2

                         Standard orientation:
 ---------------------------------------------------------------------
 Center     Atomic      Atomic             Coordinates (Angstroms)
 Number     Number       Type             X           Y           Z
 ---------------------------------------------------------------------
      1          6           0       -3.652303   -1.255233   -0.244637
      2          6           0       -2.709084   -0.077544   -0.216199
      3          6           0       -1.342910   -0.199451    0.084354
      4          6           0       -0.446797    0.888549    0.083558
      5          6           0       -0.985937    2.155407   -0.178137
      6          6           0       -2.343617    2.318230   -0.429462
      7          6           0       -3.191605    1.211679   -0.460136
      8          7           0        0.934950    0.779457    0.315466
      9          6           0        1.446983    1.114744    1.651843
     10          6           0        2.903419    0.650974    1.587532
     11          6           0        2.817799   -0.604562    0.705423
     12          6           0        1.763528   -0.241458   -0.356471
     13          6           0        2.348811    0.350943   -1.645888
     14          7           0        3.002417   -0.690286   -2.442494
     15          7           0       -0.843043   -1.522397    0.482999
     16          8           0       -0.232767   -1.600811    1.549972
     17          8           0       -1.079440   -2.477934   -0.255405
     18          1           0       -3.469036   -1.884752   -1.120265
     19          1           0       -3.538029   -1.897183    0.634747
     20          1           0       -4.686731   -0.902695   -0.277288
     21          1           0       -0.303454    2.998660   -0.201026
     22          1           0       -2.741861    3.309021   -0.628372
     23          1           0       -4.248161    1.341922   -0.674614
     24          1           0        0.896366    0.568956    2.431199
     25          1           0        1.350280    2.188627    1.850423
     26          1           0        3.522500    1.417901    1.107798
     27          1           0        3.320039    0.451098    2.578882
     28          1           0        3.781534   -0.886594    0.268760
     29          1           0        2.456717   -1.452164    1.295879
     30          1           0        1.193747   -1.127240   -0.652241
     31          1           0        1.516877    0.753857   -2.235166
     32          1           0        2.994448    1.208619   -1.382522
     33          1           0        3.277668   -0.312756   -3.346823
     34          1           0        3.864766   -0.986406   -1.988383
 ---------------------------------------------------------------------

 SCF Done:  E(UB3LYP) =  -782.415459904     A.U. after   26 cycles

 The electronic state is 2-A.
 Alpha  occ. eigenvalues --  -18.93172 -18.93118 -14.29816 -14.19335 -14.17615
 Alpha  occ. eigenvalues --  -10.07587 -10.07193 -10.07159 -10.06899 -10.06003
 Alpha  occ. eigenvalues --  -10.05860 -10.05041 -10.05015 -10.03962 -10.03849
 Alpha  occ. eigenvalues --  -10.03716 -10.03711  -1.01253  -0.84072  -0.81438
 Alpha  occ. eigenvalues --   -0.77786  -0.72820  -0.67140  -0.64289  -0.62417
 Alpha  occ. eigenvalues --   -0.61273  -0.56357  -0.54200  -0.51916  -0.48395
 Alpha  occ. eigenvalues --   -0.46016  -0.44231  -0.42848  -0.39676  -0.39362
 Alpha  occ. eigenvalues --   -0.36229  -0.35876  -0.34977  -0.34460  -0.32955
 Alpha  occ. eigenvalues --   -0.32001  -0.30283  -0.30136  -0.29040  -0.28706
 Alpha  occ. eigenvalues --   -0.28590  -0.27755  -0.27149  -0.26947  -0.24907
 Alpha  occ. eigenvalues --   -0.23439  -0.23189  -0.22507  -0.21925  -0.21165
 Alpha  occ. eigenvalues --   -0.21047  -0.14231  -0.13445  -0.12780  -0.12240
 Alpha  occ. eigenvalues --   -0.10860  -0.08767  -0.07371   0.04125
 Alpha virt. eigenvalues --    0.06864   0.08403   0.08712   0.09456   0.10234
 Alpha virt. eigenvalues --    0.10649   0.11307   0.11489   0.11880   0.12808
 Alpha virt. eigenvalues --    0.12920   0.13471   0.13546   0.14431   0.14728

  Beta  occ. eigenvalues --  -18.92642 -18.92548 -14.28974 -14.19330 -14.17618
  Beta  occ. eigenvalues --  -10.07584 -10.07187 -10.07152 -10.06753 -10.05957
  Beta  occ. eigenvalues --  -10.05857 -10.05009 -10.04954 -10.03983 -10.03898
  Beta  occ. eigenvalues --  -10.03722 -10.03533  -0.99955  -0.83052  -0.81341
  Beta  occ. eigenvalues --   -0.77766  -0.72621  -0.67042  -0.63977  -0.62388
  Beta  occ. eigenvalues --   -0.60952  -0.56200  -0.54165  -0.51250  -0.48258
  Beta  occ. eigenvalues --   -0.45929  -0.43939  -0.42491  -0.39579  -0.39237
  Beta  occ. eigenvalues --   -0.35758  -0.35421  -0.34511  -0.34271  -0.32581
  Beta  occ. eigenvalues --   -0.30392  -0.30186  -0.29359  -0.28892  -0.28594
  Beta  occ. eigenvalues --   -0.28086  -0.27509  -0.26911  -0.26705  -0.24839
  Beta  occ. eigenvalues --   -0.23381  -0.23073  -0.22387  -0.21520  -0.21098
  Beta  occ. eigenvalues --   -0.21002  -0.14223  -0.12819  -0.11858  -0.10390
  Beta  occ. eigenvalues --   -0.09101  -0.08171  -0.07018
  Beta virt. eigenvalues --    0.06779   0.08348   0.08652   0.09383   0.10153
  Beta virt. eigenvalues --    0.10571   0.11189   0.11325   0.11565   0.11868
  Beta virt. eigenvalues --    0.12799   0.13336   0.13503   0.14361   0.14661

 Mulliken charges and spin densities:
               1          2
     1  C   -0.525429   0.015049
     2  C    0.678773   0.048697
     3  C   -0.008949   0.031494
     4  C   -0.273635   0.104349
     5  C   -0.030984  -0.056076
     6  C   -0.325115   0.138460
     7  C   -0.941119  -0.050498
     8  N    0.602051  -0.007731
     9  C   -0.202504   0.015646
    10  C   -0.329631  -0.045126
    11  C   -0.459551   0.058857
    12  C   -0.352315   0.004714
    13  C   -0.333389  -0.124410
    14  N   -0.289273   0.015676
    15  N   -0.437248   0.282499
    16  O   -0.107296   0.195157
    17  O   -0.103955   0.213038
    18  H    0.188717   0.007356
    19  H    0.171064   0.007149
    20  H    0.091011   0.007006
    21  H    0.107283   0.004938
    22  H    0.125209  -0.009399
    23  H    0.082506   0.001660
    24  H    0.180298   0.001065
    25  H    0.109218   0.005011
    26  H    0.100137   0.000797
    27  H    0.138144   0.008932
    28  H    0.059656   0.031693
    29  H    0.184505   0.001331
    30  H    0.244039   0.032246
    31  H    0.162675   0.011160
    32  H    0.116690   0.014918
    33  H    0.200626   0.024365
    34  H    0.177792   0.009978
 Sum of Mulliken charges =  -1.00000   1.00000

 Dipole moment (field-independent basis, Debye):
    X=              3.6691    Y=              5.5889    Z=             -1.1445  Tot=              6.7829
 Quadrupole moment (field-independent basis, Debye-Ang):
   XX=           -115.9859   YY=           -132.7550   ZZ=           -117.1031
   XY=             -0.6910   XZ=             -0.4597   YZ=              0.3949

 Summary of Natural Population Analysis:

                                       Natural Population
                Natural  -----------------------------------------------
    Atom  No    Charge         Core      Valence    Rydberg      Total
 -----------------------------------------------------------------------
      C    1   -0.29221      0.99964     2.28759    0.00499     3.29221
      C    2    0.00152      0.99948     1.99114    0.00787     2.99848
      C    3    0.05491      0.99932     1.93306    0.01270     2.94509
      C    4    0.11126      0.99943     1.87671    0.01261     2.88874
      C    5   -0.12140      0.99953     2.11404    0.00783     3.12140
      C    6   -0.07551      0.99957     2.06683    0.00911     3.07551
      C    7   -0.11906      0.99953     2.11094    0.00859     3.11906
      N    8   -0.28722      0.99966     2.77185    0.01571     3.78722
      C    9   -0.07296      0.99963     2.06558    0.00775     3.07296
      C   10   -0.19419      0.99964     2.18805    0.00651     3.19419
      C   11   -0.19434      0.99961     2.18695    0.00777     3.19434
      C   12   -0.01019      0.99958     1.99419    0.01641     3.01019
      C   13   -0.09025      0.99960     2.07968    0.01097     3.09025
      N   14   -0.41905      0.99977     2.90984    0.00944     3.91905
      N   15    0.32520      0.99971     2.14696    0.02814     3.17480
      O   16   -0.19898      0.99990     3.19080    0.00828     4.19898
      O   17   -0.18687      0.99990     3.17890    0.00807     4.18687
      H   18    0.11261      0.00000     0.38635    0.00104     0.38739
      H   19    0.10950      0.00000     0.38958    0.00092     0.39050
      H   20    0.08784      0.00000     0.41113    0.00103     0.41216
      H   21    0.09536      0.00000     0.40307    0.00156     0.40464
      H   22    0.08849      0.00000     0.40996    0.00155     0.41151
      H   23    0.09045      0.00000     0.40852    0.00103     0.40955
      H   24    0.09676      0.00000     0.40174    0.00150     0.40324
      H   25    0.08529      0.00000     0.41345    0.00126     0.41471
      H   26    0.08875      0.00000     0.40950    0.00176     0.41125
      H   27    0.09576      0.00000     0.40325    0.00099     0.40424
      H   28    0.08810      0.00000     0.41060    0.00131     0.41190
      H   29    0.11473      0.00000     0.38422    0.00105     0.38527
      H   30    0.11271      0.00000     0.38563    0.00166     0.38729
      H   31    0.09521      0.00000     0.40316    0.00163     0.40479
      H   32    0.07160      0.00000     0.42598    0.00242     0.42840
      H   33    0.16853      0.00000     0.32936    0.00211     0.33147
      H   34    0.16766      0.00000     0.33048    0.00186     0.33234
 =======================================================================
   * Total *    0.00000     16.99350    45.79908    0.20743    63.00000

 Normal termination of Gaussian 16 at Sun Dec 13 17:08:39 2020.
