 Gaussian 16, Revision A.03,

 -----------------------------------------------------------
 # opt freq B3LYP/6-31G(d) empiricaldispersion=gd3bj scf=xqc
 -----------------------------------------------------------

 -----------------------------
 CID_21036682_JID_783_neutraal
 -----------------------------
 Symbolic Z-matrix:
 Charge =  0 Multiplicity = 1

 SCF Done:  E(RB3LYP) =  -763.254087410     A.U. after   14 cycles
 SCF Done:  E(RB3LYP) =  -763.256124596     A.U. after   12 cycles
 SCF Done:  E(RB3LYP) =  -763.256228295     A.U. after   10 cycles
 SCF Done:  E(RB3LYP) =  -763.256236663     A.U. after    9 cycles
 SCF Done:  E(RB3LYP) =  -763.256239152     A.U. after    9 cycles
 SCF Done:  E(RB3LYP) =  -763.256241804     A.U. after   10 cycles
 SCF Done:  E(RB3LYP) =  -763.256247254     A.U. after   10 cycles
 SCF Done:  E(RB3LYP) =  -763.256260367     A.U. after   11 cycles
 SCF Done:  E(RB3LYP) =  -763.256265808     A.U. after   11 cycles
 SCF Done:  E(RB3LYP) =  -763.256264480     A.U. after   11 cycles
 SCF Done:  E(RB3LYP) =  -763.256273954     A.U. after   11 cycles
 SCF Done:  E(RB3LYP) =  -763.256274047     A.U. after    8 cycles
 SCF Done:  E(RB3LYP) =  -763.256274072     A.U. after    8 cycles
 SCF Done:  E(RB3LYP) =  -763.256274092     A.U. after    7 cycles
 Optimization completed.
    -- Stationary point found.
 Normal termination of Gaussian 16 at Tue Dec  8 12:32:34 2020.

 --------------------------------------------------------------------
 #N Geom=AllCheck Guess=TCheck SCRF=Check GenChk RB3LYP/6-31G(d) Freq
 --------------------------------------------------------------------

 Structure from the checkpoint file:  "JID_783.chk"
 -----------------------------
 CID_21036682_JID_783_neutraal
 -----------------------------
 Charge =  0 Multiplicity = 1

 SCF Done:  E(RB3LYP) =  -763.256274092     A.U. after    1 cycles

  Exact polarizability: 128.172  -0.690 109.721  -3.087  -5.138  55.921
 Approx polarizability: 188.889  -2.133 186.720  -6.919 -14.760  88.500

                      1                      2                      3
                      A                      A                      A
 Frequencies --     27.6033               118.5944               202.2840
 Red. masses --      3.9112                 3.4327                 2.8008
 Frc consts  --      0.0018                 0.0284                 0.0675
 IR Inten    --      4.3998                 0.2646                 1.2112

                      4                      5                      6
                      A                      A                      A
 Frequencies --    241.3159               275.5262               359.0280
 Red. masses --      1.2194                 2.2311                 4.1539
 Frc consts  --      0.0418                 0.0998                 0.3155
 IR Inten    --      1.3553                 2.1957                 1.7815

                      7                      8                      9
                      A                      A                      A
 Frequencies --    389.3134               425.6530               448.7354
 Red. masses --      4.2778                12.7317                 3.6963
 Frc consts  --      0.3820                 1.3591                 0.4385
 IR Inten    --      1.6442                 0.2094                 0.1994

                     10                     11                     12
                      A                      A                      A
 Frequencies --    532.5589               591.8710               617.1649
 Red. masses --      3.8202                 5.3170                 4.5293
 Frc consts  --      0.6384                 1.0974                 1.0164
 IR Inten    --      2.1640                 0.7874                 2.9915

                     13                     14                     15
                      A                      A                      A
 Frequencies --    690.9396               744.7289               764.7702
 Red. masses --      4.1244                 5.4788                 4.2421
 Frc consts  --      1.1601                 1.7903                 1.4618
 IR Inten    --      2.0083                 3.1850                 5.9218

                     16                     17                     18
                      A                      A                      A
 Frequencies --    787.4366               805.8529               863.8752
 Red. masses --      3.3119                 1.2771                 5.1193
 Frc consts  --      1.2099                 0.4886                 2.2509
 IR Inten    --      2.5562                23.3293                 1.4801

                     19                     20                     21
                      A                      A                      A
 Frequencies --    932.5738               963.0368               986.5149
 Red. masses --      1.4338                 1.3823                 1.3248
 Frc consts  --      0.7347                 0.7554                 0.7596
 IR Inten    --      3.6444                 1.1322                 0.7387

                     22                     23                     24
                      A                      A                      A
 Frequencies --   1010.8642              1074.1262              1085.4769
 Red. masses --      2.0435                 1.6272                 2.2008
 Frc consts  --      1.2303                 1.1061                 1.5278
 IR Inten    --      5.1470                 1.5245                 0.1540

                     25                     26                     27
                      A                      A                      A
 Frequencies --   1103.6376              1137.0959              1154.5703
 Red. masses --      1.9722                 1.8350                 1.1328
 Frc consts  --      1.4153                 1.3979                 0.8897
 IR Inten    --      6.1331                 5.7099                 1.3585

                     28                     29                     30
                      A                      A                      A
 Frequencies --   1203.1370              1222.7046              1242.5447
 Red. masses --      2.1395                 1.3208                 1.4472
 Frc consts  --      1.8247                 1.1634                 1.3164
 IR Inten    --      0.2825                 9.4394                11.1091

                     31                     32                     33
                      A                      A                      A
 Frequencies --   1292.1585              1318.1341              1327.1250
 Red. masses --      2.7438                 1.6897                 3.3773
 Frc consts  --      2.6992                 1.7297                 3.5046
 IR Inten    --      0.5405                 1.5394                 5.5175

                     34                     35                     36
                      A                      A                      A
 Frequencies --   1361.6039              1429.7685              1479.2405
 Red. masses --      1.5141                 1.2261                 2.9190
 Frc consts  --      1.6539                 1.4767                 3.7632
 IR Inten    --      5.8148                 2.9942                73.7674

                     37                     38                     39
                      A                      A                      A
 Frequencies --   1503.0504              1517.8434              1521.7227
 Red. masses --      2.1047                 1.1150                 1.0448
 Frc consts  --      2.8014                 1.5135                 1.4254
 IR Inten    --      5.3761                 0.7218                 6.6291

                     40                     41                     42
                      A                      A                      A
 Frequencies --   1524.0449              1632.0409              1643.4872
 Red. masses --      1.0925                 6.2399                 6.0725
 Frc consts  --      1.4951                 9.7924                 9.6638
 IR Inten    --      6.5892                22.6897                13.7150

                     43                     44                     45
                      A                      A                      A
 Frequencies --   3060.3442              3060.8388              3061.3644
 Red. masses --      1.0360                 1.0823                 1.0572
 Frc consts  --      5.7166                 5.9743                 5.8379
 IR Inten    --     28.9243                11.8661                20.4249

                     46                     47                     48
                      A                      A                      A
 Frequencies --   3101.1900              3134.8569              3141.3654
 Red. masses --      1.1068                 1.1036                 1.1037
 Frc consts  --      6.2717                 6.3897                 6.4169
 IR Inten    --      8.9343                17.3910                18.4529

                     49                     50                     51
                      A                      A                      A
 Frequencies --   3177.4450              3189.9088              3215.9479
 Red. masses --      1.0889                 1.0902                 1.0961
 Frc consts  --      6.4774                 6.5359                 6.6791
 IR Inten    --     19.6456                14.0567                22.0726

 - Thermochemistry -
 -------------------
 Temperature   298.150 Kelvin.  Pressure   1.00000 Atm.
 Atom     1 has atomic number  6 and mass  12.00000

 Molecular mass:   151.04557 amu.
 Principal axes and moments of inertia in atomic units:
                           1         2         3
     Eigenvalues --   845.279151777.997222517.86723
           X            0.99914   0.04148   0.00159
           Y           -0.04148   0.99912   0.00547
           Z           -0.00137  -0.00553   0.99998
 This molecule is an asymmetric top.
 Rotational symmetry number  1.
 Warning -- assumption of classical behavior for rotation
           may cause significant error
 Rotational temperatures (Kelvin)      0.10247     0.04871     0.03440
 Rotational constants (GHZ):           2.13508     1.01504     0.71677
 Zero-point vibrational energy     404918.1 (Joules/Mol)
                                   96.77774 (Kcal/Mol)
 Warning -- explicit consideration of  12 degrees of freedom as
           vibrations may cause significant error
 Vibrational temperatures:     39.72   170.63   291.04   347.20   396.42
          (Kelvin)            516.56   560.14   612.42   645.63   766.23
                              851.57   887.96   994.11  1071.50  1100.33
                             1132.95  1159.44  1242.92  1341.77  1385.60
                             1419.37  1454.41  1545.43  1561.76  1587.89
                             1636.03  1661.17  1731.05  1759.20  1787.74
                             1859.13  1896.50  1909.44  1959.04  2057.12
                             2128.30  2162.55  2183.84  2189.42  2192.76
                             2348.14  2364.61  4403.15  4403.86  4404.62
                             4461.92  4510.36  4519.72  4571.63  4589.57
                             4627.03

 Zero-point correction=                           0.154225 (Hartree/Particle)
 Thermal correction to Energy=                    0.162815
 Thermal correction to Enthalpy=                  0.163759
 Thermal correction to Gibbs Free Energy=         0.119606
 Sum of electronic and zero-point Energies=           -763.102049
 Sum of electronic and thermal Energies=              -763.093459
 Sum of electronic and thermal Enthalpies=            -763.092515
 Sum of electronic and thermal Free Energies=         -763.136668

                     E (Thermal)             CV                S
                      KCal/Mol        Cal/Mol-Kelvin    Cal/Mol-Kelvin
 Total                  102.168             33.094             92.927
 Electronic               0.000              0.000              0.000
 Translational            0.889              2.981             40.947
 Rotational               0.889              2.981             29.716
 Vibrational            100.390             27.132             22.264
 Vibration     1          0.593              1.984              5.995
 Vibration     2          0.609              1.934              3.123
 Vibration     3          0.639              1.837              2.112
 Vibration     4          0.658              1.777              1.793
 Vibration     5          0.677              1.719              1.561
 Vibration     6          0.734              1.557              1.126
 Vibration     7          0.757              1.493              1.003
 Vibration     8          0.787              1.414              0.873
 Vibration     9          0.808              1.364              0.800
 Vibration    10          0.888              1.178              0.582
 Vibration    11          0.949              1.049              0.464
 Vibration    12          0.977              0.996              0.421

 Optimization completed.
    -- Stationary point found.
 Normal termination of Gaussian 16 at Tue Dec  8 12:42:04 2020.

 ----------------------------------------------------------------------
 # B3LYP/6-311++G(d,p) empiricaldispersion=gd3bj scf=xqc pop=npa geom=c
 heck
 ----------------------------------------------------------------------

 -------------------------------------
 CID_21036682_JID_783_Energie_neutraal
 -------------------------------------
 Structure from the checkpoint file:  "JID_783.chk"
 Charge =  0 Multiplicity = 1

 SCF Done:  E(RB3LYP) =  -763.375856954     A.U. after   16 cycles
 Normal termination of Gaussian 16 at Tue Dec  8 12:43:42 2020.

 ----------------------------------------------------------------------
 # B3LYP/6-311++G(d,p) empiricaldispersion=gd3bj scf=xqc pop=npa geom=c
 heck
 ----------------------------------------------------------------------

 -----------------------------------
 CID_21036682_JID_783_Energie_kation
 -----------------------------------
 Structure from the checkpoint file:  "JID_783.chk"
 Charge =  1 Multiplicity = 2

 SCF Done:  E(UB3LYP) =  -763.070538216     A.U. after   25 cycles
 Normal termination of Gaussian 16 at Tue Dec  8 13:04:07 2020.
 Gaussian 16:  ES64L-G16RevA.03 25-Dec-2016

 ----------------------------------------------------------------------
 # B3LYP/6-311++G(d,p) empiricaldispersion=gd3bj scf=xqc pop=npa geom=c
 heck
 ----------------------------------------------------------------------

 ----------------------------------
 CID_21036682_JID_783_Energie_anion
 ----------------------------------
 Structure from the checkpoint file:  "JID_783.chk"
 Charge = -1 Multiplicity = 2

                         Standard orientation:
 ---------------------------------------------------------------------
 Center     Atomic      Atomic             Coordinates (Angstroms)
 Number     Number       Type             X           Y           Z
 ---------------------------------------------------------------------
      1          6           0        1.637854    1.984424    0.543587
      2          6           0        1.212403    0.847332   -0.385598
      3          6           0       -0.238622    0.451751   -0.206136
      4          6           0       -0.495401   -0.902887    0.029804
      5          6           0        0.706870   -1.805682    0.057762
      6         16           0        2.187370   -0.703991   -0.084112
      7          6           0       -1.819637   -1.300974    0.206688
      8          6           0       -2.818887   -0.331068    0.138880
      9          6           0       -2.452311    0.993909   -0.105534
     10          7           0       -1.185544    1.391595   -0.277029
     11          1           0        1.014845    2.862068    0.343170
     12          1           0        2.687058    2.250744    0.381727
     13          1           0        1.511519    1.693178    1.590590
     14          1           0        1.371103    1.155305   -1.425610
     15          1           0        0.693011   -2.519174   -0.773603
     16          1           0        0.769988   -2.376881    0.989546
     17          1           0       -2.066835   -2.342733    0.394690
     18          1           0       -3.863511   -0.593427    0.273355
     19          1           0       -3.209898    1.772784   -0.165587
 ---------------------------------------------------------------------

 SCF Done:  E(UB3LYP) =  -763.364309474     A.U. after   33 cycles
 SCF Done:  E(UB3LYP) =  -763.364309474     a.u. after    1 cycles

 The electronic state is 2-A.
 Alpha  occ. eigenvalues --  -88.71921 -14.15949 -10.08734 -10.08460 -10.07319
 Alpha  occ. eigenvalues --  -10.06514 -10.05329 -10.05058 -10.04054 -10.03876
 Alpha  occ. eigenvalues --   -7.80543  -5.76935  -5.76585  -5.75910  -0.80908
 Alpha  occ. eigenvalues --   -0.71623  -0.67506  -0.62696  -0.60274  -0.54828
 Alpha  occ. eigenvalues --   -0.49667  -0.47282  -0.45237  -0.37789  -0.35128
 Alpha  occ. eigenvalues --   -0.34023  -0.32943  -0.31570  -0.29921  -0.28480
 Alpha  occ. eigenvalues --   -0.27000  -0.25617  -0.24910  -0.23260  -0.22521
 Alpha  occ. eigenvalues --   -0.19597  -0.15340  -0.12533  -0.12386  -0.10644
 Alpha  occ. eigenvalues --    0.05530
 Alpha virt. eigenvalues --    0.08036   0.08507   0.08822   0.10075   0.10537
 Alpha virt. eigenvalues --    0.11243   0.11443   0.12183   0.12565   0.12956
 Alpha virt. eigenvalues --    0.13998   0.15108   0.16186   0.16959   0.17938

  Beta  occ. eigenvalues --  -88.71920 -14.15613 -10.08734 -10.08446 -10.07269
  Beta  occ. eigenvalues --  -10.06463 -10.05331 -10.05045 -10.04028 -10.03587
  Beta  occ. eigenvalues --   -7.80541  -5.76935  -5.76582  -5.75906  -0.80477
  Beta  occ. eigenvalues --   -0.71463  -0.67222  -0.62516  -0.60105  -0.54766
  Beta  occ. eigenvalues --   -0.49234  -0.47188  -0.45093  -0.37621  -0.34955
  Beta  occ. eigenvalues --   -0.33881  -0.32824  -0.31517  -0.29835  -0.28354
  Beta  occ. eigenvalues --   -0.26788  -0.25455  -0.24222  -0.23190  -0.22419
  Beta  occ. eigenvalues --   -0.19541  -0.13828  -0.12061  -0.12000  -0.10518
  Beta virt. eigenvalues --    0.08198   0.08649   0.09306   0.09977   0.10532
  Beta virt. eigenvalues --    0.11008   0.11550   0.11820   0.12299   0.12743
  Beta virt. eigenvalues --    0.13118   0.14066   0.15147   0.16078   0.16943

 Mulliken charges and spin densities:
               1          2
     1  C   -0.337609  -0.324346
     2  C    0.831581  -0.158970
     3  C   -2.059417  -0.250791
     4  C    1.062453   0.837548
     5  C    0.979715  -1.344799
     6  S   -0.344566  -0.086332
     7  C   -0.943518   0.478222
     8  C    1.001597  -1.003145
     9  C    0.148799  -0.110051
    10  N   -0.070326   0.239721
    11  H    0.128543   0.013581
    12  H    0.012437   0.118278
    13  H    0.050419   0.073016
    14  H   -0.063177   0.303293
    15  H   -0.203439   0.402156
    16  H    0.202382  -0.013346
    17  H   -0.743972   0.871172
    18  H   -0.599725   0.745550
    19  H   -0.052175   0.209243
 Sum of Mulliken charges =  -1.00000   1.00000

 Dipole moment (field-independent basis, Debye):
    X=              4.2673    Y=              1.7462    Z=              1.1719  Tot=              4.7573
 Quadrupole moment (field-independent basis, Debye-Ang):
   XX=           -114.4376   YY=           -100.3087   ZZ=            -85.5767
   XY=             -5.6974   XZ=              3.5343   YZ=             -3.4924

 Summary of Natural Population Analysis:

                                       Natural Population
                Natural  -----------------------------------------------
    Atom  No    Charge         Core      Valence    Rydberg      Total
 -----------------------------------------------------------------------
      C    1   -0.28516      0.99964     2.27934    0.00619     3.28516
      C    2   -0.16403      0.99954     2.14945    0.01504     3.16403
      C    3    0.10630      0.99944     1.87927    0.01499     2.89370
      C    4   -0.04758      0.99945     2.03826    0.00988     3.04758
      C    5   -0.23745      0.99955     2.22829    0.00961     3.23745
      S    6    0.06646      4.99965     2.91825    0.01564     7.93354
      C    7   -0.03240      0.99951     2.02208    0.01082     3.03240
      C    8   -0.12230      0.99956     2.11278    0.00996     3.12230
      C    9    0.03091      0.99959     1.95428    0.01521     2.96909
      N   10   -0.20369      0.99966     2.69201    0.01202     3.70369
      H   11    0.10778      0.00000     0.39051    0.00171     0.39222
      H   12    0.09382      0.00000     0.40494    0.00124     0.40618
      H   13    0.09964      0.00000     0.39890    0.00146     0.40036
      H   14    0.10310      0.00000     0.39491    0.00199     0.39690
      H   15    0.10557      0.00000     0.39154    0.00289     0.39443
      H   16    0.10013      0.00000     0.39825    0.00161     0.39987
      H   17    0.09660      0.00000     0.40161    0.00179     0.40340
      H   18    0.09952      0.00000     0.39890    0.00158     0.40048
      H   19    0.08278      0.00000     0.41606    0.00117     0.41722
 =======================================================================
   * Total *   -0.00000     13.99559    25.86961    0.13480    40.00000

 Normal termination of Gaussian 16 at Tue Dec  8 13:13:01 2020.
