 Gaussian 16, Revision A.03,

 -----------------------------------------------------------
 # opt freq B3LYP/6-31G(d) empiricaldispersion=gd3bj scf=xqc
 -----------------------------------------------------------

 ------------------------------
 CID_55172287_JID_9700_neutraal
 ------------------------------
 Symbolic Z-matrix:
 Charge =  0 Multiplicity = 1

 SCF Done:  E(RB3LYP) =  -1218.56676872     A.U. after   15 cycles
 SCF Done:  E(RB3LYP) =  -1218.57201999     A.U. after   14 cycles
 SCF Done:  E(RB3LYP) =  -1218.57125031     A.U. after   14 cycles
 SCF Done:  E(RB3LYP) =  -1218.57301641     A.U. after   12 cycles
 SCF Done:  E(RB3LYP) =  -1218.57339412     A.U. after   12 cycles
 SCF Done:  E(RB3LYP) =  -1218.57349648     A.U. after   12 cycles
 SCF Done:  E(RB3LYP) =  -1218.57354167     A.U. after   11 cycles
 SCF Done:  E(RB3LYP) =  -1218.57356445     A.U. after   10 cycles
 SCF Done:  E(RB3LYP) =  -1218.57357380     A.U. after   10 cycles
 SCF Done:  E(RB3LYP) =  -1218.57358037     A.U. after    8 cycles
 SCF Done:  E(RB3LYP) =  -1218.57358349     A.U. after    9 cycles
 SCF Done:  E(RB3LYP) =  -1218.57358486     A.U. after    9 cycles
 SCF Done:  E(RB3LYP) =  -1218.57358537     A.U. after    8 cycles
 SCF Done:  E(RB3LYP) =  -1218.57358549     A.U. after    8 cycles
 SCF Done:  E(RB3LYP) =  -1218.57358552     A.U. after    7 cycles
 Optimization completed.
    -- Stationary point found.
 Normal termination of Gaussian 16 at Sun Dec 13 16:20:04 2020.

 --------------------------------------------------------------------
 #N Geom=AllCheck Guess=TCheck SCRF=Check GenChk RB3LYP/6-31G(d) Freq
 --------------------------------------------------------------------

 Structure from the checkpoint file:  "JID_9700.chk"
 ------------------------------
 CID_55172287_JID_9700_neutraal
 ------------------------------
 Charge =  0 Multiplicity = 1

 SCF Done:  E(RB3LYP) =  -1218.57358552     A.U. after    1 cycles

  Exact polarizability: 221.400 -23.074 171.398 -16.534 -29.948 134.909
 Approx polarizability: 322.538 -29.070 252.770 -41.664 -77.107 246.832

                      1                      2                      3
                      A                      A                      A
 Frequencies --     26.7015                35.3617                45.0714
 Red. masses --      4.9494                 5.3143                 4.2527
 Frc consts  --      0.0021                 0.0039                 0.0051
 IR Inten    --      0.6266                 0.1382                 0.4433

                      4                      5                      6
                      A                      A                      A
 Frequencies --     48.9862                52.1083                76.3310
 Red. masses --      5.2495                 6.1729                 4.3849
 Frc consts  --      0.0074                 0.0099                 0.0151
 IR Inten    --      2.9410                 8.2706                 2.5509

                      7                      8                      9
                      A                      A                      A
 Frequencies --    104.3568               119.5278               148.2756
 Red. masses --      4.1718                 3.8222                 5.7780
 Frc consts  --      0.0268                 0.0322                 0.0748
 IR Inten    --      1.3386                 4.6848                 5.6582

                     10                     11                     12
                      A                      A                      A
 Frequencies --    173.7511               191.4066               249.7131
 Red. masses --      3.2142                 3.6268                 1.1917
 Frc consts  --      0.0572                 0.0783                 0.0438
 IR Inten    --      5.0061                 1.5710                 2.2503

                     13                     14                     15
                      A                      A                      A
 Frequencies --    262.3337               291.9434               326.4366
 Red. masses --      6.3932                 3.0836                 3.1717
 Frc consts  --      0.2592                 0.1548                 0.1991
 IR Inten    --      1.2802                 2.3091                 5.8535

                     16                     17                     18
                      A                      A                      A
 Frequencies --    333.3244               354.8038               375.3700
 Red. masses --      5.1801                 3.8459                 2.2707
 Frc consts  --      0.3391                 0.2853                 0.1885
 IR Inten    --      0.9564                 1.9501                 1.8080

                     19                     20                     21
                      A                      A                      A
 Frequencies --    395.2185               421.7632               432.0940
 Red. masses --      2.4665                 1.7264                 2.2191
 Frc consts  --      0.2270                 0.1809                 0.2441
 IR Inten    --     23.5392               120.6488                98.7496

                     22                     23                     24
                      A                      A                      A
 Frequencies --    439.7290               462.0918               500.2615
 Red. masses --      2.2900                 2.9457                 2.3715
 Frc consts  --      0.2609                 0.3706                 0.3497
 IR Inten    --     51.8013                 1.7788                 3.5300

                     25                     26                     27
                      A                      A                      A
 Frequencies --    545.2643               580.8156               585.6124
 Red. masses --      3.1093                 6.1284                 4.3915
 Frc consts  --      0.5447                 1.2181                 0.8873
 IR Inten    --     11.8139                 8.2485                 1.0288

                     28                     29                     30
                      A                      A                      A
 Frequencies --    609.2563               638.2314               651.3759
 Red. masses --      1.1948                 6.3288                 4.1605
 Frc consts  --      0.2613                 1.5189                 1.0401
 IR Inten    --     48.9133                 1.5036                 3.2250

                     31                     32                     33
                      A                      A                      A
 Frequencies --    657.9154               717.0762               729.1757
 Red. masses --      4.0315                 3.5711                 5.8454
 Frc consts  --      1.0282                 1.0819                 1.8312
 IR Inten    --      4.1206                 1.8899                 1.3668

                     34                     35                     36
                      A                      A                      A
 Frequencies --    749.0075               761.2937               815.1804
 Red. masses --      4.1615                 1.4772                 4.4409
 Frc consts  --      1.3755                 0.5044                 1.7387
 IR Inten    --      3.5704                61.5410                40.2351

                     37                     38                     39
                      A                      A                      A
 Frequencies --    840.6305               865.4972               889.2026
 Red. masses --      2.6631                 1.3829                 4.8709
 Frc consts  --      1.1088                 0.6103                 2.2692
 IR Inten    --     16.1515                 0.2997                 0.8495

                     40                     41                     42
                      A                      A                      A
 Frequencies --    910.5224               916.3657               927.5811
 Red. masses --      6.0454                 2.4183                 1.3581
 Frc consts  --      2.9529                 1.1964                 0.6885
 IR Inten    --      3.0066                33.4928                 2.9188

                     43                     44                     45
                      A                      A                      A
 Frequencies --    960.6267               970.1135               982.1181
 Red. masses --      2.6067                 1.2280                 2.9987
 Frc consts  --      1.4173                 0.6809                 1.7042
 IR Inten    --      9.0617                 0.0482                 6.8889

                     46                     47                     48
                      A                      A                      A
 Frequencies --    991.2241              1025.7286              1034.8512
 Red. masses --      2.9583                 2.2912                 2.0076
 Frc consts  --      1.7125                 1.4203                 1.2668
 IR Inten    --     26.2716                25.1095                13.1246

                     49                     50                     51
                      A                      A                      A
 Frequencies --   1046.7578              1063.3834              1120.2255
 Red. masses --      2.0899                 2.4332                 2.3215
 Frc consts  --      1.3492                 1.6211                 1.7164
 IR Inten    --      4.5794                33.8585                 6.2429

                     52                     53                     54
                      A                      A                      A
 Frequencies --   1132.2426              1169.2245              1172.1120
 Red. masses --      1.7154                 1.9589                 2.1980
 Frc consts  --      1.2957                 1.5778                 1.7792
 IR Inten    --      4.6202                24.4623                51.0704

                     55                     56                     57
                      A                      A                      A
 Frequencies --   1183.5037              1197.6056              1208.1580
 Red. masses --      1.1665                 1.4456                 2.5194
 Frc consts  --      0.9627                 1.2216                 2.1667
 IR Inten    --      6.0208                13.0906                38.5778

                     58                     59                     60
                      A                      A                      A
 Frequencies --   1226.1330              1250.5205              1279.0948
 Red. masses --      1.6873                 2.2393                 3.7797
 Frc consts  --      1.4946                 2.0632                 3.6434
 IR Inten    --    108.9490                14.5735                96.2482

                     61                     62                     63
                      A                      A                      A
 Frequencies --   1287.0462              1318.6805              1321.4903
 Red. masses --      1.5183                 1.5884                 1.7242
 Frc consts  --      1.4818                 1.6274                 1.7740
 IR Inten    --     26.4316                 3.1937                18.6265

                     64                     65                     66
                      A                      A                      A
 Frequencies --   1330.6686              1352.6925              1367.3678
 Red. masses --      1.7239                 1.1777                 1.5741
 Frc consts  --      1.7985                 1.2696                 1.7341
 IR Inten    --    105.3465                11.4574                57.9969

                     67                     68                     69
                      A                      A                      A
 Frequencies --   1397.6993              1402.4331              1418.5874
 Red. masses --      1.4840                 3.8167                 1.4476
 Frc consts  --      1.7081                 4.4229                 1.7164
 IR Inten    --     12.0641                 7.6816                43.8007

                     70                     71                     72
                      A                      A                      A
 Frequencies --   1433.5791              1440.1222              1454.0854
 Red. masses --      1.3453                 2.6239                 2.5253
 Frc consts  --      1.6289                 3.2063                 3.1459
 IR Inten    --     25.8612               106.6930                56.0059

                     73                     74                     75
                      A                      A                      A
 Frequencies --   1498.6584              1501.6067              1504.7997
 Red. masses --      1.1074                 2.5898                 1.1013
 Frc consts  --      1.4654                 3.4406                 1.4693
 IR Inten    --      3.5366                75.8989                13.6621

                     76                     77                     78
                      A                      A                      A
 Frequencies --   1509.8752              1511.9067              1520.0211
 Red. masses --      1.1060                 1.0901                 1.1443
 Frc consts  --      1.4855                 1.4682                 1.5578
 IR Inten    --     10.8786                17.7313                 8.7993

                     79                     80                     81
                      A                      A                      A
 Frequencies --   1522.0806              1525.9220              1546.6529
 Red. masses --      2.3557                 1.1369                 1.0480
 Frc consts  --      3.2155                 1.5596                 1.4771
 IR Inten    --      2.6260                 1.6529                 4.2982

                     82                     83                     84
                      A                      A                      A
 Frequencies --   1633.4076              1670.6821              1677.5312
 Red. masses --      6.0707                 1.4530                 7.0582
 Frc consts  --      9.5428                 2.3895                11.7026
 IR Inten    --    320.5401                57.0617                13.2880

                     85                     86                     87
                      A                      A                      A
 Frequencies --   1693.3752              2976.4764              3010.4014
 Red. masses --      4.5203                 1.0705                 1.0422
 Frc consts  --      7.6370                 5.5880                 5.5649
 IR Inten    --    498.1129                50.0394                45.4618

                     88                     89                     90
                      A                      A                      A
 Frequencies --   3028.5440              3045.9802              3084.3208
 Red. masses --      1.0715                 1.0695                 1.0960
 Frc consts  --      5.7905                 5.8463                 6.1432
 IR Inten    --     35.1166                35.1334                29.3851

                     91                     92                     93
                      A                      A                      A
 Frequencies --   3094.5131              3096.7523              3134.6017
 Red. masses --      1.0919                 1.0648                 1.1012
 Frc consts  --      6.1605                 6.0163                 6.3752
 IR Inten    --     47.9649                36.6259                41.8137

                     94                     95                     96
                      A                      A                      A
 Frequencies --   3142.4975              3152.1278              3160.3945
 Red. masses --      1.0941                 1.0931                 1.1024
 Frc consts  --      6.3658                 6.3991                 6.4877
 IR Inten    --      5.2603                 3.0626                 3.8236

                     97                     98                     99
                      A                      A                      A
 Frequencies --   3193.1496              3209.3449              3221.3741
 Red. masses --      1.0865                 1.0910                 1.0944
 Frc consts  --      6.5272                 6.6207                 6.6913
 IR Inten    --      5.1775                17.0149                13.9054

                    100                    101                    102
                      A                      A                      A
 Frequencies --   3233.1400              3559.9518              3679.9624
 Red. masses --      1.0948                 1.0456                 1.1043
 Frc consts  --      6.7430                 7.8073                 8.8109
 IR Inten    --      3.6173                38.6872                29.0032

 - Thermochemistry -
 -------------------
 Temperature   298.150 Kelvin.  Pressure   1.00000 Atm.
 Atom     1 has atomic number  6 and mass  12.00000

 Molecular mass:   279.10415 amu.
 Principal axes and moments of inertia in atomic units:
                           1         2         3
     Eigenvalues --  4628.333615874.855409256.90276
           X            0.99852  -0.05423   0.00409
           Y            0.05420   0.99850   0.00712
           Z           -0.00447  -0.00689   0.99997
 This molecule is an asymmetric top.
 Rotational symmetry number  1.
 Warning -- assumption of classical behavior for rotation
           may cause significant error
 Rotational temperatures (Kelvin)      0.01871     0.01474     0.00936
 Rotational constants (GHZ):           0.38993     0.30720     0.19496
 Zero-point vibrational energy     778380.7 (Joules/Mol)
                                  186.03746 (Kcal/Mol)
 Warning -- explicit consideration of  28 degrees of freedom as
           vibrations may cause significant error
 Vibrational temperatures:     38.42    50.88    64.85    70.48    74.97
          (Kelvin)            109.82   150.15   171.97   213.34   249.99
                              275.39   359.28   377.44   420.04   469.67
                              479.58   510.48   540.07   568.63   606.82
                              621.69   632.67   664.85   719.76   784.51
                              835.66   842.57   876.58   918.27   937.18
                              946.59  1031.71  1049.12  1077.65  1095.33
                             1172.86  1209.48  1245.26  1279.36  1310.04
                             1318.45  1334.58  1382.13  1395.78  1413.05
                             1426.15  1475.79  1488.92  1506.05  1529.97
                             1611.75  1629.04  1682.25  1686.41  1702.80
                             1723.09  1738.27  1764.13  1799.22  1840.33
                             1851.77  1897.29  1901.33  1914.54  1946.22
                             1967.34  2010.98  2017.79  2041.03  2062.60
                             2072.01  2092.10  2156.24  2160.48  2165.07
                             2172.37  2175.30  2186.97  2189.93  2195.46
                             2225.29  2350.11  2403.74  2413.59  2436.39
                             4282.49  4331.30  4357.40  4382.49  4437.65
                             4452.31  4455.54  4509.99  4521.35  4535.21
                             4547.10  4594.23  4617.53  4634.84  4651.77
                             5121.98  5294.65

 Zero-point correction=                           0.296470 (Hartree/Particle)
 Thermal correction to Energy=                    0.314579
 Thermal correction to Enthalpy=                  0.315523
 Thermal correction to Gibbs Free Energy=         0.248125
 Sum of electronic and zero-point Energies=          -1218.277116
 Sum of electronic and thermal Energies=             -1218.259007
 Sum of electronic and thermal Enthalpies=           -1218.258063
 Sum of electronic and thermal Free Energies=        -1218.325460

                     E (Thermal)             CV                S
                      KCal/Mol        Cal/Mol-Kelvin    Cal/Mol-Kelvin
 Total                  197.401             68.195            141.850
 Electronic               0.000              0.000              0.000
 Translational            0.889              2.981             42.778
 Rotational               0.889              2.981             33.886
 Vibrational            195.624             62.233             65.186
 Vibration     1          0.593              1.984              6.061
 Vibration     2          0.594              1.982              5.503
 Vibration     3          0.595              1.979              5.023
 Vibration     4          0.595              1.978              4.858
 Vibration     5          0.596              1.977              4.736
 Vibration     6          0.599              1.965              3.983
 Vibration     7          0.605              1.946              3.371
 Vibration     8          0.609              1.933              3.108
 Vibration     9          0.618              1.905              2.694
 Vibration    10          0.627              1.875              2.395
 Vibration    11          0.634              1.852              2.214
 Vibration    12          0.663              1.763              1.733
 Vibration    13          0.670              1.742              1.646
 Vibration    14          0.687              1.689              1.463
 Vibration    15          0.710              1.623              1.278
 Vibration    16          0.715              1.609              1.244
 Vibration    17          0.731              1.565              1.145
 Vibration    18          0.746              1.523              1.058
 Vibration    19          0.762              1.480              0.980
 Vibration    20          0.784              1.423              0.886
 Vibration    21          0.793              1.400              0.852
 Vibration    22          0.800              1.384              0.827
 Vibration    23          0.820              1.334              0.760
 Vibration    24          0.856              1.249              0.657
 Vibration    25          0.900              1.150              0.554
 Vibration    26          0.938              1.073              0.484
 Vibration    27          0.943              1.062              0.475
 Vibration    28          0.968              1.012              0.434

 Optimization completed.
    -- Stationary point found.
 Normal termination of Gaussian 16 at Sun Dec 13 16:41:09 2020.

 ----------------------------------------------------------------------
 # B3LYP/6-311++G(d,p) empiricaldispersion=gd3bj scf=xqc pop=npa geom=c
 heck
 ----------------------------------------------------------------------

 --------------------------------------
 CID_55172287_JID_9700_Energie_neutraal
 --------------------------------------
 Structure from the checkpoint file:  "JID_9700.chk"
 Charge =  0 Multiplicity = 1

 SCF Done:  E(RB3LYP) =  -1218.82787493     A.U. after   15 cycles
 Normal termination of Gaussian 16 at Sun Dec 13 16:50:41 2020.

 ----------------------------------------------------------------------
 # B3LYP/6-311++G(d,p) empiricaldispersion=gd3bj scf=xqc pop=npa geom=c
 heck
 ----------------------------------------------------------------------

 ------------------------------------
 CID_55172287_JID_9700_Energie_kation
 ------------------------------------
 Structure from the checkpoint file:  "JID_9700.chk"
 Charge =  1 Multiplicity = 2

 SCF Done:  E(UB3LYP) =  -1218.55341926     A.U. after   28 cycles
 Normal termination of Gaussian 16 at Sun Dec 13 17:15:42 2020.
 Gaussian 16:  ES64L-G16RevA.03 25-Dec-2016

 ----------------------------------------------------------------------
 # B3LYP/6-311++G(d,p) empiricaldispersion=gd3bj scf=xqc pop=npa geom=c
 heck
 ----------------------------------------------------------------------

 -----------------------------------
 CID_55172287_JID_9700_Energie_anion
 -----------------------------------
 Structure from the checkpoint file:  "JID_9700.chk"
 Charge = -1 Multiplicity = 2

                         Standard orientation:
 ---------------------------------------------------------------------
 Center     Atomic      Atomic             Coordinates (Angstroms)
 Number     Number       Type             X           Y           Z
 ---------------------------------------------------------------------
      1          6           0       -3.009983   -2.314878   -1.163892
      2          8           0       -3.924420   -1.924943   -0.152210
      3          6           0       -3.903677   -0.557577    0.182043
      4          6           0       -2.624942   -0.079527    0.884997
      5          7           0       -1.544496    0.272859   -0.040424
      6          6           0       -1.562417    1.606602   -0.639229
      7          6           0       -1.030317    2.715809    0.300392
      8          6           0        0.473374    2.653476    0.490522
      9         16           0        1.526350    3.433005   -0.531033
     10          7           0        0.887913    1.899315    1.528248
     11          6           0       -0.374526   -0.412581    0.032163
     12          7           0       -0.051207   -1.368269    0.862028
     13          6           0        1.266709   -1.684980    0.508863
     14          6           0        2.169296   -2.607856    1.035828
     15          6           0        3.450245   -2.649492    0.475744
     16          6           0        3.826565   -1.799405   -0.574986
     17          6           0        2.929276   -0.868747   -1.116148
     18          6           0        1.670626   -0.855767   -0.549046
     19          8           0        0.591039   -0.051413   -0.874099
     20          1           0       -3.328927   -3.302737   -1.506832
     21          1           0       -1.983465   -2.388112   -0.784238
     22          1           0       -3.028195   -1.616775   -2.014816
     23          1           0       -4.089667    0.064360   -0.711305
     24          1           0       -4.746174   -0.416121    0.867727
     25          1           0       -2.864777    0.800574    1.498205
     26          1           0       -2.262503   -0.864522    1.551060
     27          1           0       -0.980345    1.599424   -1.561749
     28          1           0       -2.599922    1.831716   -0.900473
     29          1           0       -1.274834    3.682816   -0.143208
     30          1           0       -1.544313    2.650458    1.268890
     31          1           0        0.251737    1.309456    2.049208
     32          1           0        1.877771    1.711082    1.623531
     33          1           0        1.882055   -3.262945    1.851574
     34          1           0        4.175345   -3.357279    0.866710
     35          1           0        4.832823   -1.859545   -0.977707
     36          1           0        3.201974   -0.196895   -1.922059
 ---------------------------------------------------------------------

 SCF Done:  E(UB3LYP) =  -1218.82959499     A.U. after   31 cycles

 The electronic state is 2-A.
 Alpha  occ. eigenvalues --  -88.65985 -19.09621 -19.03752 -14.25581 -14.22118
 Alpha  occ. eigenvalues --  -14.20617 -10.20275 -10.13895 -10.12741 -10.12312
 Alpha  occ. eigenvalues --  -10.11394 -10.11251 -10.11228 -10.11044 -10.08965
 Alpha  occ. eigenvalues --  -10.08812 -10.08720 -10.08490 -10.06881  -7.74758
 Alpha  occ. eigenvalues --   -5.71101  -5.70663  -5.70311  -1.03714  -0.95036
 Alpha  occ. eigenvalues --   -0.87436  -0.82792  -0.82148  -0.76161  -0.68353
 Alpha  occ. eigenvalues --   -0.67656  -0.66261  -0.64223  -0.61141  -0.59993
 Alpha  occ. eigenvalues --   -0.55389  -0.54481  -0.52014  -0.51420  -0.48363
 Alpha  occ. eigenvalues --   -0.46105  -0.43846  -0.43059  -0.41882  -0.41359
 Alpha  occ. eigenvalues --   -0.41021  -0.39614  -0.38842  -0.37185  -0.36239
 Alpha  occ. eigenvalues --   -0.36013  -0.35494  -0.34400  -0.32964  -0.32139
 Alpha  occ. eigenvalues --   -0.31595  -0.29297  -0.28876  -0.28373  -0.28288
 Alpha  occ. eigenvalues --   -0.27416  -0.26707  -0.26432  -0.25161  -0.23441
 Alpha  occ. eigenvalues --   -0.23020  -0.22375  -0.19893  -0.19406  -0.17005
 Alpha  occ. eigenvalues --   -0.15855  -0.11780  -0.10821  -0.08376   0.03925
 Alpha virt. eigenvalues --    0.06476   0.06749   0.07096   0.07715   0.08173
 Alpha virt. eigenvalues --    0.08592   0.08785   0.09005   0.10112   0.10386
 Alpha virt. eigenvalues --    0.10724   0.11261   0.11711   0.11778   0.12638

  Beta  occ. eigenvalues --  -88.65963 -19.09618 -19.03748 -14.25591 -14.22028
  Beta  occ. eigenvalues --  -14.20619 -10.20226 -10.13903 -10.12713 -10.12309
  Beta  occ. eigenvalues --  -10.11393 -10.11225 -10.10983 -10.10767 -10.08914
  Beta  occ. eigenvalues --  -10.08807 -10.08713 -10.08443 -10.06896  -7.74739
  Beta  occ. eigenvalues --   -5.71105  -5.70577  -5.70300  -1.03691  -0.95027
  Beta  occ. eigenvalues --   -0.87409  -0.82752  -0.81773  -0.76111  -0.68247
  Beta  occ. eigenvalues --   -0.67530  -0.66180  -0.64111  -0.60927  -0.59832
  Beta  occ. eigenvalues --   -0.55288  -0.54445  -0.51961  -0.51364  -0.48265
  Beta  occ. eigenvalues --   -0.45862  -0.43778  -0.42987  -0.41801  -0.41322
  Beta  occ. eigenvalues --   -0.40958  -0.39580  -0.38763  -0.37138  -0.36165
  Beta  occ. eigenvalues --   -0.35943  -0.35440  -0.34250  -0.32787  -0.32070
  Beta  occ. eigenvalues --   -0.31474  -0.29179  -0.28822  -0.28335  -0.28170
  Beta  occ. eigenvalues --   -0.27224  -0.26578  -0.26391  -0.24869  -0.23183
  Beta  occ. eigenvalues --   -0.22425  -0.22073  -0.19887  -0.19321  -0.16951
  Beta  occ. eigenvalues --   -0.15634  -0.11675  -0.10101  -0.08309
  Beta virt. eigenvalues --    0.06497   0.06916   0.07131   0.08024   0.08252
  Beta virt. eigenvalues --    0.08677   0.08879   0.09070   0.09692   0.10443
  Beta virt. eigenvalues --    0.10755   0.10923   0.11486   0.11790   0.11901

 Mulliken charges and spin densities:
               1          2
     1  C   -0.196658  -0.103148
     2  O   -0.144631   0.024508
     3  C    0.493042  -0.891814
     4  C   -0.235022   0.045843
     5  N    0.150863   0.020568
     6  C   -0.186268   0.059373
     7  C    0.559190  -1.188345
     8  C    0.133940   0.497884
     9  S   -0.651543   0.044447
    10  N   -0.186661   0.039226
    11  C   -1.444598  -0.028888
    12  N    0.101915  -0.002743
    13  C    0.391779  -0.047741
    14  C   -0.340153   0.051395
    15  C   -0.168194   0.001523
    16  C   -0.232018   0.004407
    17  C   -0.401343   0.052278
    18  C    0.676132  -0.045023
    19  O    0.184783  -0.007003
    20  H    0.161955  -0.001855
    21  H    0.163656   0.003757
    22  H    0.056397   0.053888
    23  H    0.050452   0.090071
    24  H   -0.348126   0.541044
    25  H   -0.332986   0.463985
    26  H    0.267443  -0.011190
    27  H    0.246213  -0.062736
    28  H   -0.421510   0.614554
    29  H   -0.033590   0.217603
    30  H   -0.210516   0.368758
    31  H    0.136785   0.141765
    32  H    0.196832   0.030678
    33  H    0.146788  -0.002366
    34  H    0.142963  -0.000217
    35  H    0.145799   0.002978
    36  H    0.126890   0.022539
 Sum of Mulliken charges =  -1.00000   1.00000

 Dipole moment (field-independent basis, Debye):
    X=              3.0757    Y=             -8.0686    Z=             -1.4733  Tot=              8.7597
 Quadrupole moment (field-independent basis, Debye-Ang):
   XX=           -178.0683   YY=           -182.5635   ZZ=           -140.2018
   XY=             -6.6109   XZ=              8.6359   YZ=              1.0537

 Summary of Natural Population Analysis:

                                       Natural Population
                Natural  -----------------------------------------------
    Atom  No    Charge         Core      Valence    Rydberg      Total
 -----------------------------------------------------------------------
      C    1   -0.10072      0.99961     2.09280    0.00830     3.10072
      O    2   -0.29697      0.99989     3.28832    0.00876     4.29697
      C    3   -0.01153      0.99958     1.99780    0.01415     3.01153
      C    4   -0.10482      0.99959     2.09349    0.01173     3.10482
      N    5   -0.26069      0.99961     2.74817    0.01291     3.76069
      C    6   -0.07679      0.99959     2.06561    0.01159     3.07679
      C    7   -0.22899      0.99955     2.21892    0.01052     3.22899
      C    8    0.12850      0.99965     1.85087    0.02097     2.87150
      S    9   -0.13375      4.99951     3.12020    0.01403     8.13375
      N   10   -0.37233      0.99966     2.86194    0.01072     3.87233
      C   11    0.38206      0.99955     1.59673    0.02166     2.61794
      N   12   -0.29687      0.99966     2.78910    0.00812     3.79687
      C   13    0.05089      0.99944     1.93715    0.01252     2.94911
      C   14   -0.10526      0.99953     2.09730    0.00843     3.10526
      C   15   -0.10953      0.99959     2.10128    0.00866     3.10953
      C   16   -0.11292      0.99959     2.10459    0.00874     3.11292
      C   17   -0.10943      0.99952     2.10198    0.00793     3.10943
      C   18    0.13350      0.99932     1.85387    0.01331     2.86650
      O   19   -0.24327      0.99985     3.23614    0.00728     4.24327
      H   20    0.08510      0.00000     0.41411    0.00079     0.41490
      H   21    0.08669      0.00000     0.41207    0.00124     0.41331
      H   22    0.07849      0.00000     0.42040    0.00110     0.42151
      H   23    0.07975      0.00000     0.41880    0.00146     0.42025
      H   24    0.09379      0.00000     0.40461    0.00160     0.40621
      H   25    0.10297      0.00000     0.39416    0.00287     0.39703
      H   26    0.11623      0.00000     0.38173    0.00205     0.38377
      H   27    0.11115      0.00000     0.38762    0.00123     0.38885
      H   28    0.10187      0.00000     0.39650    0.00163     0.39813
      H   29    0.11823      0.00000     0.38065    0.00111     0.38177
      H   30    0.10311      0.00000     0.39390    0.00299     0.39689
      H   31    0.19102      0.00000     0.30664    0.00234     0.30898
      H   32    0.19507      0.00000     0.30310    0.00184     0.30493
      H   33    0.10198      0.00000     0.39668    0.00134     0.39802
      H   34    0.09611      0.00000     0.40298    0.00091     0.40389
      H   35    0.09736      0.00000     0.40177    0.00087     0.40264
      H   36    0.10999      0.00000     0.38875    0.00126     0.39001
 =======================================================================
   * Total *   -0.00000     22.99229    50.76074    0.24697    74.00000

 Normal termination of Gaussian 16 at Sun Dec 13 17:42:04 2020.
