 Gaussian 16, Revision A.03,

 -----------------------------------------------------------
 # opt freq B3LYP/6-31G(d) empiricaldispersion=gd3bj scf=xqc
 -----------------------------------------------------------

 -------------------------------
 CID_150058866_JID_2194_neutraal
 -------------------------------
 Symbolic Z-matrix:
 Charge =  0 Multiplicity = 1

 SCF Done:  E(RB3LYP) =  -575.539281043     A.U. after   18 cycles
 SCF Done:  E(RB3LYP) =  -575.543374426     A.U. after   15 cycles
 SCF Done:  E(RB3LYP) =  -575.544237633     A.U. after   13 cycles
 SCF Done:  E(RB3LYP) =  -575.544346828     A.U. after   12 cycles
 SCF Done:  E(RB3LYP) =  -575.544409805     A.U. after   10 cycles
 SCF Done:  E(RB3LYP) =  -575.544412101     A.U. after    9 cycles
 Optimization completed.
    -- Stationary point found.
 Normal termination of Gaussian 16 at Wed Dec  9 16:47:51 2020.

 --------------------------------------------------------------------
 #N Geom=AllCheck Guess=TCheck SCRF=Check GenChk RB3LYP/6-31G(d) Freq
 --------------------------------------------------------------------

 Structure from the checkpoint file:  "JID_2194.chk"
 -------------------------------
 CID_150058866_JID_2194_neutraal
 -------------------------------
 Charge =  0 Multiplicity = 1

 SCF Done:  E(RB3LYP) =  -575.544412101     A.U. after    1 cycles

  Exact polarizability: 156.654   2.590  97.398   0.000   0.000  34.629
 Approx polarizability: 289.246  12.585 186.955   0.000  -0.001  54.849

                      1                      2                      3
                      A                      A                      A
 Frequencies --     74.1135               119.6816               178.0324
 Red. masses --      9.5825                10.1193                 7.0619
 Frc consts  --      0.0310                 0.0854                 0.1319
 IR Inten    --      0.1113                 0.1393                 1.6606

                      4                      5                      6
                      A                      A                      A
 Frequencies --    219.7394               265.2606               314.0616
 Red. masses --      8.6345                 9.7407                 6.7800
 Frc consts  --      0.2456                 0.4038                 0.3940
 IR Inten    --      0.0712                 2.0734                 1.1957

                      7                      8                      9
                      A                      A                      A
 Frequencies --    423.1944               462.3440               509.8528
 Red. masses --      1.4718                12.5060                 6.1459
 Frc consts  --      0.1553                 1.5751                 0.9413
 IR Inten    --     79.4304                 0.0221                 0.4081

                     10                     11                     12
                      A                      A                      A
 Frequencies --    554.7437               573.7672               586.3258
 Red. masses --     13.8379                10.3273                 4.2922
 Frc consts  --      2.5090                 2.0031                 0.8694
 IR Inten    --     10.8428                 8.3791                 7.8020

                     13                     14                     15
                      A                      A                      A
 Frequencies --    637.6030               680.8543               690.3335
 Red. masses --      5.2969                 8.6747                 3.5535
 Frc consts  --      1.2687                 2.3693                 0.9978
 IR Inten    --      0.0252                 2.2166                32.4480

                     16                     17                     18
                      A                      A                      A
 Frequencies --    800.7914               806.8123               870.1671
 Red. masses --      4.3368                12.1239                 1.5039
 Frc consts  --      1.6385                 4.6498                 0.6709
 IR Inten    --      0.8752                19.3983                22.8966

                     19                     20                     21
                      A                      A                      A
 Frequencies --    898.6976               952.1932               962.8933
 Red. masses --      9.0371                 4.7261                 1.4178
 Frc consts  --      4.3004                 2.5247                 0.7745
 IR Inten    --     39.6168                62.1207                 3.7118

                     22                     23                     24
                      A                      A                      A
 Frequencies --   1057.3580              1107.7685              1217.0334
 Red. masses --      4.8401                 4.1964                 5.3631
 Frc consts  --      3.1882                 3.0340                 4.6803
 IR Inten    --     10.4345                20.1699                16.6371

                     25                     26                     27
                      A                      A                      A
 Frequencies --   1237.6747              1265.9831              1327.8871
 Red. masses --      2.1234                 3.7623                 6.7232
 Frc consts  --      1.9165                 3.5528                 6.9847
 IR Inten    --      5.6687                20.5323                49.0017

                     28                     29                     30
                      A                      A                      A
 Frequencies --   1351.9271              1374.9391              1409.7814
 Red. masses --      3.0766                 2.4524                 4.0383
 Frc consts  --      3.3130                 2.7315                 4.7288
 IR Inten    --     25.1489                95.5678               201.7285

                     31                     32                     33
                      A                      A                      A
 Frequencies --   1437.2981              1501.3452              1517.9184
 Red. masses --      3.9968                 3.4772                 3.2623
 Frc consts  --      4.8647                 4.6178                 4.4287
 IR Inten    --    137.6014                70.3319                55.7911

                     34                     35                     36
                      A                      A                      A
 Frequencies --   1594.3342              1665.2141              2299.5450
 Red. masses --      6.5217                 8.7806                13.9934
 Frc consts  --      9.7672                14.3455                43.5970
 IR Inten    --    166.5272               135.0040               678.9541

                     37                     38                     39
                      A                      A                      A
 Frequencies --   3207.0147              3282.2429              3673.4447
 Red. masses --      1.0912                 1.0972                 1.0816
 Frc consts  --      6.6122                 6.9642                 8.5995
 IR Inten    --     21.9422                 1.5984               101.1965

 - Thermochemistry -
 -------------------
 Temperature   298.150 Kelvin.  Pressure   1.00000 Atm.
 Atom     1 has atomic number  6 and mass  12.00000

 Molecular mass:   161.04499 amu.
 Principal axes and moments of inertia in atomic units:
                           1         2         3
     Eigenvalues --   852.291192487.298893339.59008
           X            0.99999   0.00491   0.00000
           Y           -0.00491   0.99999   0.00000
           Z           -0.00000  -0.00000   1.00000
 This molecule is an asymmetric top.
 Rotational symmetry number  1.
 Warning -- assumption of classical behavior for rotation
           may cause significant error
 Rotational temperatures (Kelvin)      0.10162     0.03482     0.02594
 Rotational constants (GHZ):           2.11752     0.72558     0.54041
 Zero-point vibrational energy     257856.1 (Joules/Mol)
                                   61.62909 (Kcal/Mol)
 Warning -- explicit consideration of  12 degrees of freedom as
           vibrations may cause significant error
 Vibrational temperatures:    106.63   172.20   256.15   316.16   381.65
          (Kelvin)            451.86   608.88   665.21   733.56   798.15
                              825.52   843.59   917.37   979.60   993.24
                             1152.16  1160.82  1251.98  1293.03  1369.99
                             1385.39  1521.30  1593.83  1751.04  1780.74
                             1821.47  1910.53  1945.12  1978.23  2028.36
                             2067.95  2160.10  2183.95  2293.89  2395.87
                             3308.53  4614.18  4722.42  5285.27

 Zero-point correction=                           0.098212 (Hartree/Particle)
 Thermal correction to Energy=                    0.106696
 Thermal correction to Enthalpy=                  0.107640
 Thermal correction to Gibbs Free Energy=         0.063918
 Sum of electronic and zero-point Energies=           -575.446200
 Sum of electronic and thermal Energies=              -575.437716
 Sum of electronic and thermal Enthalpies=            -575.436772
 Sum of electronic and thermal Free Energies=         -575.480494

                     E (Thermal)             CV                S
                      KCal/Mol        Cal/Mol-Kelvin    Cal/Mol-Kelvin
 Total                   66.953             31.984             92.021
 Electronic               0.000              0.000              0.000
 Translational            0.889              2.981             41.138
 Rotational               0.889              2.981             30.338
 Vibrational             65.175             26.022             20.544
 Vibration     1          0.599              1.966              4.041
 Vibration     2          0.609              1.933              3.106
 Vibration     3          0.628              1.869              2.349
 Vibration     4          0.647              1.811              1.961
 Vibration     5          0.671              1.737              1.627
 Vibration     6          0.702              1.647              1.341
 Vibration     7          0.785              1.420              0.881
 Vibration     8          0.820              1.334              0.759
 Vibration     9          0.865              1.228              0.634
 Vibration    10          0.910              1.129              0.534
 Vibration    11          0.930              1.088              0.497
 Vibration    12          0.943              1.061              0.474

 Optimization completed.
    -- Stationary point found.
 Normal termination of Gaussian 16 at Wed Dec  9 16:50:39 2020.

 ----------------------------------------------------------------------
 # B3LYP/6-311++G(d,p) empiricaldispersion=gd3bj scf=xqc pop=npa geom=c
 heck
 ----------------------------------------------------------------------

 ---------------------------------------
 CID_150058866_JID_2194_Energie_neutraal
 ---------------------------------------
 Structure from the checkpoint file:  "JID_2194.chk"
 Charge =  0 Multiplicity = 1

 SCF Done:  E(RB3LYP) =  -575.696270491     A.U. after   16 cycles
 Normal termination of Gaussian 16 at Wed Dec  9 16:51:43 2020.

 ----------------------------------------------------------------------
 # B3LYP/6-311++G(d,p) empiricaldispersion=gd3bj scf=xqc pop=npa geom=c
 heck
 ----------------------------------------------------------------------

 -------------------------------------
 CID_150058866_JID_2194_Energie_kation
 -------------------------------------
 Structure from the checkpoint file:  "JID_2194.chk"
 Charge =  1 Multiplicity = 2

 SCF Done:  E(UB3LYP) =  -575.367021076     A.U. after   25 cycles
 Normal termination of Gaussian 16 at Wed Dec  9 16:54:06 2020.
 Gaussian 16:  ES64L-G16RevA.03 25-Dec-2016

 ----------------------------------------------------------------------
 # B3LYP/6-311++G(d,p) empiricaldispersion=gd3bj scf=xqc pop=npa geom=c
 heck
 ----------------------------------------------------------------------

 ------------------------------------
 CID_150058866_JID_2194_Energie_anion
 ------------------------------------
 Structure from the checkpoint file:  "JID_2194.chk"
 Charge = -1 Multiplicity = 2

                         Standard orientation:
 ---------------------------------------------------------------------
 Center     Atomic      Atomic             Coordinates (Angstroms)
 Number     Number       Type             X           Y           Z
 ---------------------------------------------------------------------
      1          6           0       -2.846535   -0.155131   -0.000006
      2          7           0       -2.630575   -1.461887    0.000006
      3          7           0       -1.283489   -1.631782    0.000018
      4          6           0       -0.622237   -0.443020   -0.000013
      5          6           0       -1.612711    0.565717   -0.000014
      6          7           0       -1.317431    1.883538   -0.000004
      7          6           0       -0.018043    2.143549    0.000003
      8          7           0        1.010167    1.258757    0.000014
      9          6           0        0.719696   -0.033900    0.000009
     10          7           0        1.720803   -1.016816    0.000010
     11          7           0        2.894695   -0.590952   -0.000016
     12          7           0        4.000307   -0.343896   -0.000002
     13          1           0       -3.854909    0.233247   -0.000011
     14          1           0       -0.902011   -2.565271   -0.000047
     15          1           0        0.274572    3.190007    0.000012
 ---------------------------------------------------------------------

 SCF Done:  E(UB3LYP) =  -575.723390330     A.U. after   23 cycles

 The electronic state is 2-A.
 Alpha  occ. eigenvalues --  -14.32699 -14.24573 -14.23687 -14.22616 -14.19058
 Alpha  occ. eigenvalues --  -14.14768 -14.14478 -10.08935 -10.08022 -10.06938
 Alpha  occ. eigenvalues --  -10.05208 -10.04913  -1.00080  -0.90940  -0.85435
 Alpha  occ. eigenvalues --   -0.81422  -0.73130  -0.68716  -0.64464  -0.56269
 Alpha  occ. eigenvalues --   -0.50575  -0.48030  -0.44206  -0.41395  -0.37779
 Alpha  occ. eigenvalues --   -0.37166  -0.35411  -0.32762  -0.31929  -0.31357
 Alpha  occ. eigenvalues --   -0.29781  -0.26499  -0.25866  -0.20678  -0.18520
 Alpha  occ. eigenvalues --   -0.16759  -0.14703  -0.14017  -0.12997  -0.10759
 Alpha  occ. eigenvalues --   -0.09217   0.03732
 Alpha virt. eigenvalues --    0.09599   0.10481   0.11167   0.11493   0.12789
 Alpha virt. eigenvalues --    0.13728   0.14478   0.16123   0.16527   0.16591
 Alpha virt. eigenvalues --    0.17749   0.18400   0.18903   0.19682   0.20302

  Beta  occ. eigenvalues --  -14.32367 -14.24514 -14.23232 -14.22834 -14.18605
  Beta  occ. eigenvalues --  -14.14525 -14.14098 -10.08470 -10.08087 -10.07049
  Beta  occ. eigenvalues --  -10.05089 -10.04926  -0.99481  -0.90570  -0.85113
  Beta  occ. eigenvalues --   -0.81002  -0.72471  -0.68319  -0.64123  -0.55545
  Beta  occ. eigenvalues --   -0.50488  -0.47840  -0.43994  -0.41170  -0.36956
  Beta  occ. eigenvalues --   -0.36178  -0.35075  -0.32273  -0.31004  -0.30800
  Beta  occ. eigenvalues --   -0.29617  -0.26324  -0.24371  -0.19087  -0.18516
  Beta  occ. eigenvalues --   -0.16251  -0.14241  -0.13123  -0.11583  -0.10398
  Beta  occ. eigenvalues --   -0.07955
  Beta virt. eigenvalues --    0.09736   0.10262   0.10630   0.11264   0.11550
  Beta virt. eigenvalues --    0.13991   0.14529   0.14568   0.16141   0.16561
  Beta virt. eigenvalues --    0.17119   0.18183   0.18415   0.18906   0.20054

 Mulliken charges and spin densities:
               1          2
     1  C   -0.226227  -0.025204
     2  N   -0.256341   0.215002
     3  N   -0.152230   0.007944
     4  C    0.506585  -0.086104
     5  C   -0.040733   0.095592
     6  N   -0.202553   0.179696
     7  C    0.101400  -0.043268
     8  N   -0.216130   0.127436
     9  C   -1.019337   0.289181
    10  N   -0.273084  -0.128130
    11  N    0.451784   0.119826
    12  N   -0.277876   0.249777
    13  H    0.143580  -0.001647
    14  H    0.297248  -0.001558
    15  H    0.163916   0.001458
 Sum of Mulliken charges =  -1.00000   1.00000

 Dipole moment (field-independent basis, Debye):
    X=             -0.5188    Y=             -2.1588    Z=             -0.0001  Tot=              2.2203
 Quadrupole moment (field-independent basis, Debye-Ang):
   XX=           -111.7082   YY=            -80.5526   ZZ=            -72.6529
   XY=             -2.5196   XZ=             -0.0000   YZ=              0.0003

 Summary of Natural Population Analysis:

                                       Natural Population
                Natural  -----------------------------------------------
    Atom  No    Charge         Core      Valence    Rydberg      Total
 -----------------------------------------------------------------------
      C    1   -0.03585      0.99961     2.02047    0.01576     3.03585
      N    2   -0.08309      0.99973     2.56878    0.01458     3.58309
      N    3   -0.17329      0.99966     2.66097    0.01266     3.67329
      C    4    0.01206      0.99943     1.97715    0.01136     2.98794
      C    5    0.07290      0.99948     1.91417    0.01345     2.92710
      N    6   -0.20829      0.99968     2.69628    0.01233     3.70829
      C    7    0.11070      0.99969     1.86880    0.02081     2.88930
      N    8   -0.24763      0.99967     2.73756    0.01040     3.74763
      C    9    0.25039      0.99947     1.73554    0.01460     2.74961
      N   10   -0.23981      0.99966     2.72381    0.01634     3.73981
      N   11    0.15929      0.99971     2.32385    0.01715     3.34071
      N   12    0.02477      0.99981     2.46205    0.01337     3.47523
      H   13    0.09175      0.00000     0.40707    0.00118     0.40825
      H   14    0.19392      0.00000     0.30415    0.00193     0.30608
      H   15    0.07218      0.00000     0.42645    0.00136     0.42782
 =======================================================================
   * Total *    0.00000     11.99560    28.82710    0.17730    41.00000

 Normal termination of Gaussian 16 at Wed Dec  9 16:56:31 2020.
