 Gaussian 16, Revision A.03,

 -----------------------------------------------------------
 # opt freq B3LYP/6-31G(d) empiricaldispersion=gd3bj scf=xqc
 -----------------------------------------------------------

 -------------------------------
 CID_150785611_JID_2421_neutraal
 -------------------------------
 Symbolic Z-matrix:
 Charge =  0 Multiplicity = 1

 SCF Done:  E(RB3LYP) =  -533.743857521     A.U. after   15 cycles
 SCF Done:  E(RB3LYP) =  -533.751158442     A.U. after   13 cycles
 SCF Done:  E(RB3LYP) =  -533.752033476     A.U. after   12 cycles
 SCF Done:  E(RB3LYP) =  -533.752058678     A.U. after   11 cycles
 SCF Done:  E(RB3LYP) =  -533.752137867     A.U. after   11 cycles
 SCF Done:  E(RB3LYP) =  -533.752142060     A.U. after    9 cycles
 SCF Done:  E(RB3LYP) =  -533.752142236     A.U. after    7 cycles
 Optimization completed.
    -- Stationary point found.
 Normal termination of Gaussian 16 at Wed Dec  9 17:18:39 2020.

 --------------------------------------------------------------------
 #N Geom=AllCheck Guess=TCheck SCRF=Check GenChk RB3LYP/6-31G(d) Freq
 --------------------------------------------------------------------

 Structure from the checkpoint file:  "JID_2421.chk"
 -------------------------------
 CID_150785611_JID_2421_neutraal
 -------------------------------
 Charge =  0 Multiplicity = 1

 SCF Done:  E(RB3LYP) =  -533.752142236     A.U. after    1 cycles

  Exact polarizability: 158.743  -0.117 109.733  -4.857   0.342  56.611
 Approx polarizability: 233.933  -2.991 195.930 -12.987   1.698  85.798

                      1                      2                      3
                      A                      A                      A
 Frequencies --     71.1340               134.4349               141.8606
 Red. masses --      3.3711                 2.2924                 2.7308
 Frc consts  --      0.0101                 0.0244                 0.0324
 IR Inten    --      2.3618                 1.4206                 0.2075

                      4                      5                      6
                      A                      A                      A
 Frequencies --    161.5033               209.6792               235.1725
 Red. masses --      1.6490                 2.9286                 1.0888
 Frc consts  --      0.0253                 0.0759                 0.0355
 IR Inten    --      0.9717                 0.8964                 0.3817

                      7                      8                      9
                      A                      A                      A
 Frequencies --    247.8514               295.2561               349.9335
 Red. masses --      4.0709                 3.8418                 3.5627
 Frc consts  --      0.1473                 0.1973                 0.2570
 IR Inten    --      4.2507                 0.8222                 0.0842

                     10                     11                     12
                      A                      A                      A
 Frequencies --    378.6612               432.9909               480.3718
 Red. masses --      4.2709                 3.5720                 3.9322
 Frc consts  --      0.3608                 0.3946                 0.5346
 IR Inten    --      5.1138                12.8603                11.1151

                     13                     14                     15
                      A                      A                      A
 Frequencies --    554.1186               558.3599               588.2272
 Red. masses --      4.9526                 3.3524                 4.7350
 Frc consts  --      0.8960                 0.6158                 0.9653
 IR Inten    --     13.7868                 0.5924                 0.7232

                     16                     17                     18
                      A                      A                      A
 Frequencies --    664.8755               704.6113               737.1837
 Red. masses --      6.1454                 5.9205                 4.6374
 Frc consts  --      1.6006                 1.7318                 1.4848
 IR Inten    --      2.9369                 4.2156                 4.8196

                     19                     20                     21
                      A                      A                      A
 Frequencies --    768.5710               805.6986               826.9382
 Red. masses --      4.0298                 4.2112                 1.6436
 Frc consts  --      1.4025                 1.6106                 0.6622
 IR Inten    --      4.8560                10.0286                31.6334

                     22                     23                     24
                      A                      A                      A
 Frequencies --    887.9604               903.9015               925.7476
 Red. masses --      1.3010                 4.5471                 2.4467
 Frc consts  --      0.6044                 2.1889                 1.2354
 IR Inten    --      2.7773                12.2843                 2.4740

                     25                     26                     27
                      A                      A                      A
 Frequencies --    987.2585               999.7056              1049.0699
 Red. masses --      2.1201                 1.2715                 1.6372
 Frc consts  --      1.2175                 0.7487                 1.0616
 IR Inten    --     23.3442                 0.0282                 2.1970

                     28                     29                     30
                      A                      A                      A
 Frequencies --   1081.7298              1084.0115              1115.4254
 Red. masses --      1.4955                 1.8657                 2.9357
 Frc consts  --      1.0310                 1.2917                 2.1520
 IR Inten    --      3.8832                13.7131                19.3368

                     31                     32                     33
                      A                      A                      A
 Frequencies --   1131.2168              1163.3663              1181.0878
 Red. masses --      2.1183                 2.5283                 1.5100
 Frc consts  --      1.5971                 2.0161                 1.2411
 IR Inten    --     17.8385                11.9002                24.0254

                     34                     35                     36
                      A                      A                      A
 Frequencies --   1252.6644              1259.7704              1301.4972
 Red. masses --      1.6940                 2.7770                 1.5353
 Frc consts  --      1.5661                 2.5967                 1.5322
 IR Inten    --      3.2473                26.3419                28.2065

                     37                     38                     39
                      A                      A                      A
 Frequencies --   1321.2575              1371.2827              1407.8549
 Red. masses --      1.6099                 2.9401                 3.0746
 Frc consts  --      1.6559                 3.2574                 3.5905
 IR Inten    --      5.0462                75.2447               104.9359

                     40                     41                     42
                      A                      A                      A
 Frequencies --   1425.8697              1449.8678              1469.3398
 Red. masses --      1.2195                 1.3102                 2.5995
 Frc consts  --      1.4608                 1.6227                 3.3066
 IR Inten    --      3.7654                 1.1732                27.8206

                     43                     44                     45
                      A                      A                      A
 Frequencies --   1510.3449              1517.8702              1525.6195
 Red. masses --      1.0434                 1.0485                 1.0907
 Frc consts  --      1.4024                 1.4233                 1.4958
 IR Inten    --      6.6620                 4.9539                 0.8917

                     46                     47                     48
                      A                      A                      A
 Frequencies --   1527.4313              1600.9638              1661.6782
 Red. masses --      1.0502                 6.1546                 7.3417
 Frc consts  --      1.4436                 9.2943                11.9437
 IR Inten    --      2.4814                34.8828               190.5848

                     49                     50                     51
                      A                      A                      A
 Frequencies --   1730.6819              1840.4498              3038.5194
 Red. masses --      6.8808                12.6717                 1.0824
 Frc consts  --     12.1430                25.2891                 5.8878
 IR Inten    --    184.0545               290.6837                11.3280

                     52                     53                     54
                      A                      A                      A
 Frequencies --   3040.7215              3065.8519              3089.9543
 Red. masses --      1.0382                 1.0338                 1.1012
 Frc consts  --      5.6557                 5.7254                 6.1950
 IR Inten    --     39.8847                23.7080                20.3664

                     55                     56                     57
                      A                      A                      A
 Frequencies --   3131.3799              3139.7538              3152.8172
 Red. masses --      1.1001                 1.1034                 1.1043
 Frc consts  --      6.3556                 6.4088                 6.4673
 IR Inten    --     13.7066                22.2901                11.6725

                     58                     59                     60
                      A                      A                      A
 Frequencies --   3189.0702              3235.2915              3237.5800
 Red. masses --      1.0894                 1.0931                 1.0940
 Frc consts  --      6.5279                 6.7411                 6.7562
 IR Inten    --     11.9859                 4.1085                 4.7232

 - Thermochemistry -
 -------------------
 Temperature   298.150 Kelvin.  Pressure   1.00000 Atm.
 Atom     1 has atomic number  6 and mass  12.00000

 Molecular mass:   162.07931 amu.
 Principal axes and moments of inertia in atomic units:
                           1         2         3
     Eigenvalues --   900.324942575.584623332.55224
           X            0.99983  -0.01752   0.00485
           Y            0.01751   0.99985   0.00174
           Z           -0.00488  -0.00165   0.99999
 This molecule is an asymmetric top.
 Rotational symmetry number  1.
 Warning -- assumption of classical behavior for rotation
           may cause significant error
 Rotational temperatures (Kelvin)      0.09620     0.03363     0.02599
 Rotational constants (GHZ):           2.00454     0.70071     0.54155
 Zero-point vibrational energy     468656.8 (Joules/Mol)
                                  112.01166 (Kcal/Mol)
 Warning -- explicit consideration of  15 degrees of freedom as
           vibrations may cause significant error
 Vibrational temperatures:    102.35   193.42   204.11   232.37   301.68
          (Kelvin)            338.36   356.60   424.81   503.48   544.81
                              622.98   691.15   797.25   803.36   846.33
                              956.61  1013.78  1060.64  1105.80  1159.22
                             1189.78  1277.58  1300.51  1331.94  1420.44
                             1438.35  1509.38  1556.37  1559.65  1604.85
                             1627.57  1673.82  1699.32  1802.30  1812.53
                             1872.56  1900.99  1972.97  2025.59  2051.51
                             2086.04  2114.05  2173.05  2183.88  2195.03
                             2197.63  2303.43  2390.78  2490.07  2648.00
                             4371.75  4374.92  4411.08  4445.76  4505.36
                             4517.41  4536.20  4588.36  4654.86  4658.16

 Zero-point correction=                           0.178502 (Hartree/Particle)
 Thermal correction to Energy=                    0.188877
 Thermal correction to Enthalpy=                  0.189821
 Thermal correction to Gibbs Free Energy=         0.142738
 Sum of electronic and zero-point Energies=           -533.573640
 Sum of electronic and thermal Energies=              -533.563265
 Sum of electronic and thermal Enthalpies=            -533.562321
 Sum of electronic and thermal Free Energies=         -533.609405

                     E (Thermal)             CV                S
                      KCal/Mol        Cal/Mol-Kelvin    Cal/Mol-Kelvin
 Total                  118.522             39.911             99.096
 Electronic               0.000              0.000              0.000
 Translational            0.889              2.981             41.157
 Rotational               0.889              2.981             30.425
 Vibrational            116.745             33.949             27.513
 Vibration     1          0.598              1.968              4.122
 Vibration     2          0.613              1.919              2.882
 Vibration     3          0.615              1.911              2.779
 Vibration     4          0.622              1.890              2.532
 Vibration     5          0.642              1.826              2.046
 Vibration     6          0.655              1.787              1.839
 Vibration     7          0.661              1.766              1.746
 Vibration     8          0.689              1.683              1.444
 Vibration     9          0.727              1.575              1.166
 Vibration    10          0.749              1.516              1.045
 Vibration    11          0.794              1.398              0.849
 Vibration    12          0.837              1.294              0.709
 Vibration    13          0.910              1.131              0.536
 Vibration    14          0.914              1.121              0.527
 Vibration    15          0.945              1.057              0.470

 Optimization completed.
    -- Stationary point found.
 Normal termination of Gaussian 16 at Wed Dec  9 17:23:24 2020.

 ----------------------------------------------------------------------
 # B3LYP/6-311++G(d,p) empiricaldispersion=gd3bj scf=xqc pop=npa geom=c
 heck
 ----------------------------------------------------------------------

 ---------------------------------------
 CID_150785611_JID_2421_Energie_neutraal
 ---------------------------------------
 Structure from the checkpoint file:  "JID_2421.chk"
 Charge =  0 Multiplicity = 1

 SCF Done:  E(RB3LYP) =  -533.895488344     A.U. after   15 cycles
 Normal termination of Gaussian 16 at Wed Dec  9 17:25:20 2020.

 ----------------------------------------------------------------------
 # B3LYP/6-311++G(d,p) empiricaldispersion=gd3bj scf=xqc pop=npa geom=c
 heck
 ----------------------------------------------------------------------

 -------------------------------------
 CID_150785611_JID_2421_Energie_kation
 -------------------------------------
 Structure from the checkpoint file:  "JID_2421.chk"
 Charge =  1 Multiplicity = 2

 SCF Done:  E(UB3LYP) =  -533.610861978     A.U. after   20 cycles
 Normal termination of Gaussian 16 at Wed Dec  9 17:29:51 2020.
 Gaussian 16:  ES64L-G16RevA.03 25-Dec-2016

 ----------------------------------------------------------------------
 # B3LYP/6-311++G(d,p) empiricaldispersion=gd3bj scf=xqc pop=npa geom=c
 heck
 ----------------------------------------------------------------------

 ------------------------------------
 CID_150785611_JID_2421_Energie_anion
 ------------------------------------
 Structure from the checkpoint file:  "JID_2421.chk"
 Charge = -1 Multiplicity = 2

                         Standard orientation:
 ---------------------------------------------------------------------
 Center     Atomic      Atomic             Coordinates (Angstroms)
 Number     Number       Type             X           Y           Z
 ---------------------------------------------------------------------
      1          6           0        3.330259   -0.184572    0.773846
      2          6           0        2.273708   -0.230077   -0.334936
      3          6           0        1.306605    0.956167   -0.235839
      4          8           0        1.509159    2.151675   -0.222515
      5          7           0        0.044717    0.342895   -0.137271
      6          6           0       -1.176054    0.968920   -0.008593
      7          6           0       -2.308005    0.227843    0.090325
      8          6           0       -2.174549   -1.216713    0.056862
      9          6           0       -0.975652   -1.843799   -0.065480
     10          6           0        0.231307   -1.061366   -0.167694
     11          7           0        1.459123   -1.447545   -0.281487
     12          6           0       -3.667081    0.857438    0.230078
     13          1           0        2.853150   -0.256037    1.756368
     14          1           0        3.888819    0.754822    0.721031
     15          1           0        4.018800   -1.026124    0.663419
     16          1           0        2.777247   -0.174266   -1.310606
     17          1           0       -1.133722    2.052321    0.002798
     18          1           0       -3.081702   -1.811071    0.134417
     19          1           0       -0.880078   -2.923022   -0.088894
     20          1           0       -3.600343    1.949279    0.239446
     21          1           0       -4.327198    0.567829   -0.597303
     22          1           0       -4.158360    0.542372    1.159344
 ---------------------------------------------------------------------

 SCF Done:  E(UB3LYP) =  -533.912611763     A.U. after   23 cycles

 The electronic state is 2-A.
 Alpha  occ. eigenvalues --  -18.94786 -14.21102 -14.12118 -10.10996 -10.08095
 Alpha  occ. eigenvalues --  -10.05983 -10.04972 -10.04719 -10.03285 -10.03051
 Alpha  occ. eigenvalues --  -10.01638 -10.00726  -0.90279  -0.83995  -0.74311
 Alpha  occ. eigenvalues --   -0.67314  -0.63365  -0.60181  -0.56463  -0.52667
 Alpha  occ. eigenvalues --   -0.46532  -0.45810  -0.42878  -0.35744  -0.34416
 Alpha  occ. eigenvalues --   -0.33804  -0.31945  -0.30225  -0.29911  -0.28824
 Alpha  occ. eigenvalues --   -0.28506  -0.27021  -0.25658  -0.24316  -0.23465
 Alpha  occ. eigenvalues --   -0.22407  -0.21893  -0.20425  -0.15185  -0.15025
 Alpha  occ. eigenvalues --   -0.14678  -0.09585  -0.05403   0.04378
 Alpha virt. eigenvalues --    0.08547   0.09595   0.10556   0.11602   0.11904
 Alpha virt. eigenvalues --    0.12075   0.12833   0.13812   0.13834   0.14953
 Alpha virt. eigenvalues --    0.15706   0.16199   0.17010   0.18081   0.18489

  Beta  occ. eigenvalues --  -18.94552 -14.21157 -14.11948 -10.10743 -10.08049
  Beta  occ. eigenvalues --  -10.06026 -10.04966 -10.04354 -10.03219 -10.03111
  Beta  occ. eigenvalues --  -10.01313 -10.00500  -0.89855  -0.83752  -0.74029
  Beta  occ. eigenvalues --   -0.66922  -0.63076  -0.59935  -0.55936  -0.52267
  Beta  occ. eigenvalues --   -0.46188  -0.45497  -0.42559  -0.35519  -0.34136
  Beta  occ. eigenvalues --   -0.33379  -0.31597  -0.30006  -0.29738  -0.28579
  Beta  occ. eigenvalues --   -0.28238  -0.26895  -0.25508  -0.24022  -0.23278
  Beta  occ. eigenvalues --   -0.22041  -0.20773  -0.20174  -0.14820  -0.13994
  Beta  occ. eigenvalues --   -0.13072  -0.09378  -0.04145
  Beta virt. eigenvalues --    0.08507   0.09195   0.10501   0.10649   0.11685
  Beta virt. eigenvalues --    0.11893   0.12127   0.12758   0.13756   0.13795
  Beta virt. eigenvalues --    0.15206   0.16709   0.16958   0.17027   0.18387

 Mulliken charges and spin densities:
               1          2
     1  C   -0.322350  -0.213313
     2  C    0.253094   0.112468
     3  C   -0.104855   0.091187
     4  O   -0.438406   0.093708
     5  N    0.156234  -0.045035
     6  C   -0.781678   0.283767
     7  C    0.511448  -0.056102
     8  C    0.122963   0.234141
     9  C   -0.208765   0.173786
    10  C   -0.329889   0.044513
    11  N   -0.169928   0.083239
    12  C   -0.795951   0.022870
    13  H    0.110459   0.026164
    14  H    0.102349   0.019487
    15  H    0.096486   0.042723
    16  H    0.031464   0.150506
    17  H    0.161531  -0.022935
    18  H    0.119035  -0.021906
    19  H    0.115872  -0.014212
    20  H    0.127978  -0.000925
    21  H    0.121706  -0.002558
    22  H    0.121202  -0.001573
 Sum of Mulliken charges =  -1.00000   1.00000

 Dipole moment (field-independent basis, Debye):
    X=             -2.5316    Y=              0.1847    Z=              0.6709  Tot=              2.6255
 Quadrupole moment (field-independent basis, Debye-Ang):
   XX=            -96.2868   YY=            -96.1002   ZZ=            -79.5907
   XY=             -2.5110   XZ=              0.6296   YZ=              0.0945

 Summary of Natural Population Analysis:

                                       Natural Population
                Natural  -----------------------------------------------
    Atom  No    Charge         Core      Valence    Rydberg      Total
 -----------------------------------------------------------------------
      C    1   -0.27365      0.99964     2.26820    0.00581     3.27365
      C    2   -0.06788      0.99958     2.05212    0.01618     3.06788
      C    3    0.38257      0.99965     1.59391    0.02387     2.61743
      O    4   -0.29746      0.99987     3.29178    0.00581     4.29746
      N    5   -0.24555      0.99959     2.73809    0.00787     3.74555
      C    6    0.08776      0.99949     1.90208    0.01067     2.91224
      C    7   -0.07615      0.99953     2.06844    0.00818     3.07615
      C    8   -0.02741      0.99954     2.01833    0.00954     3.02741
      C    9   -0.09209      0.99953     2.08322    0.00935     3.09209
      C   10    0.21956      0.99959     1.76538    0.01547     2.78044
      N   11   -0.27174      0.99969     2.75853    0.01352     3.77174
      C   12   -0.28264      0.99965     2.27859    0.00440     3.28264
      H   13    0.09623      0.00000     0.40243    0.00135     0.40377
      H   14    0.09696      0.00000     0.40146    0.00158     0.40304
      H   15    0.09416      0.00000     0.40375    0.00209     0.40584
      H   16    0.10304      0.00000     0.39485    0.00212     0.39696
      H   17    0.09606      0.00000     0.40270    0.00124     0.40394
      H   18    0.08355      0.00000     0.41546    0.00099     0.41645
      H   19    0.09478      0.00000     0.40352    0.00170     0.40522
      H   20    0.09588      0.00000     0.40322    0.00090     0.40412
      H   21    0.09200      0.00000     0.40661    0.00140     0.40800
      H   22    0.09204      0.00000     0.40658    0.00139     0.40796
 =======================================================================
   * Total *   -0.00000     11.99535    30.85923    0.14543    43.00000

 Normal termination of Gaussian 16 at Wed Dec  9 17:33:32 2020.
