 Gaussian 16, Revision A.03,

 -----------------------------------------------------------
 # opt freq B3LYP/6-31G(d) empiricaldispersion=gd3bj scf=xqc
 -----------------------------------------------------------

 ------------------------------
 CID_87965227_JID_1823_neutraal
 ------------------------------
 Symbolic Z-matrix:
 Charge =  0 Multiplicity = 1

 SCF Done:  E(RB3LYP) =  -463.225974909     A.U. after   18 cycles
 SCF Done:  E(RB3LYP) =  -463.260972483     A.U. after   15 cycles
 SCF Done:  E(RB3LYP) =  -463.286436913     A.U. after   16 cycles
 SCF Done:  E(RB3LYP) =  -463.297197382     A.U. after   16 cycles
 SCF Done:  E(RB3LYP) =  -463.307943769     A.U. after   17 cycles
 SCF Done:  E(RB3LYP) =  -463.313623754     A.U. after   14 cycles
 SCF Done:  E(RB3LYP) =  -463.320121353     A.U. after   15 cycles
 SCF Done:  E(RB3LYP) =  -463.322555195     A.U. after   14 cycles
 SCF Done:  E(RB3LYP) =  -463.324892892     A.U. after   14 cycles
 SCF Done:  E(RB3LYP) =  -463.326578365     A.U. after   15 cycles
 SCF Done:  E(RB3LYP) =  -463.413162612     A.U. after    9 cycles
 SCF Done:  E(RB3LYP) =  -463.413163293     A.U. after    8 cycles
 SCF Done:  E(RB3LYP) =  -463.413163605     A.U. after    8 cycles
 SCF Done:  E(RB3LYP) =  -463.413163851     A.U. after    8 cycles
 SCF Done:  E(RB3LYP) =  -463.413163902     A.U. after    7 cycles
 Optimization completed.
    -- Stationary point found.
 Normal termination of Gaussian 16 at Tue Dec  8 21:32:18 2020.

 --------------------------------------------------------------------
 #N Geom=AllCheck Guess=TCheck SCRF=Check GenChk RB3LYP/6-31G(d) Freq
 --------------------------------------------------------------------

 Structure from the checkpoint file:  "JID_1823.chk"
 ------------------------------
 CID_87965227_JID_1823_neutraal
 ------------------------------
 Charge =  0 Multiplicity = 1

 SCF Done:  E(RB3LYP) =  -463.413163902     A.U. after    1 cycles

  Exact polarizability: 110.805  -8.418  99.221   7.436  -5.900  83.748
 Approx polarizability: 152.658 -19.637 153.595  18.797 -24.624 144.029

                      1                      2                      3
                      A                      A                      A
 Frequencies --     61.1426                93.5372               135.2656
 Red. masses --      3.0008                 4.8189                 2.3076
 Frc consts  --      0.0066                 0.0248                 0.0249
 IR Inten    --      1.3310                 2.7400                 1.1275

                      4                      5                      6
                      A                      A                      A
 Frequencies --    160.2940               216.7989               232.4746
 Red. masses --      3.5118                 2.6337                 4.8665
 Frc consts  --      0.0532                 0.0729                 0.1550
 IR Inten    --      2.1234                 1.5140                 1.8435

                      7                      8                      9
                      A                      A                      A
 Frequencies --    290.7530               334.4944               380.7525
 Red. masses --      1.8346                 3.0896                 2.5079
 Frc consts  --      0.0914                 0.2037                 0.2142
 IR Inten    --      1.0017                 0.6903                 1.5812

                     10                     11                     12
                      A                      A                      A
 Frequencies --    415.7047               451.9664               474.2171
 Red. masses --      2.0880                 3.1931                 3.8089
 Frc consts  --      0.2126                 0.3843                 0.5047
 IR Inten    --      0.3523                 3.4450                 2.1711

                     13                     14                     15
                      A                      A                      A
 Frequencies --    509.5352               573.9576               638.4327
 Red. masses --      2.8513                 3.7681                 3.6071
 Frc consts  --      0.4362                 0.7314                 0.8662
 IR Inten    --      7.4924                 4.5492                 5.2184

                     16                     17                     18
                      A                      A                      A
 Frequencies --    719.0694               747.3092               785.3042
 Red. masses --      1.6700                 2.5877                 2.8076
 Frc consts  --      0.5087                 0.8515                 1.0201
 IR Inten    --     49.9329                 6.4734                 3.6653

                     19                     20                     21
                      A                      A                      A
 Frequencies --    809.0020               849.5550               861.4731
 Red. masses --      1.7966                 4.0232                 2.2384
 Frc consts  --      0.6928                 1.7108                 0.9788
 IR Inten    --      1.8860                 8.3845                11.7452

                     22                     23                     24
                      A                      A                      A
 Frequencies --    926.0440               953.8804               964.0955
 Red. masses --      1.8869                 2.4922                 2.2363
 Frc consts  --      0.9533                 1.3360                 1.2247
 IR Inten    --      0.3926                 4.5885                 6.8728

                     25                     26                     27
                      A                      A                      A
 Frequencies --    986.3035              1017.0048              1035.7219
 Red. masses --      1.7445                 1.3945                 1.7431
 Frc consts  --      0.9999                 0.8498                 1.1017
 IR Inten    --      2.0426                 3.6837                15.4606

                     28                     29                     30
                      A                      A                      A
 Frequencies --   1042.3221              1053.5388              1074.1571
 Red. masses --      1.3232                 2.0495                 2.9074
 Frc consts  --      0.8470                 1.3403                 1.9765
 IR Inten    --     12.9979                26.9961                 9.3730

                     31                     32                     33
                      A                      A                      A
 Frequencies --   1105.2586              1130.0003              1181.0062
 Red. masses --      2.1738                 2.6349                 2.7823
 Frc consts  --      1.5646                 1.9823                 2.2864
 IR Inten    --     32.6772                52.0227                10.4496

                     34                     35                     36
                      A                      A                      A
 Frequencies --   1188.8950              1246.7927              1267.5156
 Red. masses --      1.3993                 1.2750                 1.1731
 Frc consts  --      1.1653                 1.1677                 1.1104
 IR Inten    --     11.1049                 4.6587                 1.4191

                     37                     38                     39
                      A                      A                      A
 Frequencies --   1284.8639              1316.1616              1357.3857
 Red. masses --      1.2283                 1.2654                 1.3190
 Frc consts  --      1.1948                 1.2915                 1.4319
 IR Inten    --      4.9540                 6.8932                 6.9842

                     40                     41                     42
                      A                      A                      A
 Frequencies --   1361.4389              1368.7779              1384.6996
 Red. masses --      1.2571                 1.3436                 1.2648
 Frc consts  --      1.3728                 1.4832                 1.4289
 IR Inten    --      3.7462                17.5723                 0.6600

                     43                     44                     45
                      A                      A                      A
 Frequencies --   1386.3448              1398.5425              1498.3678
 Red. masses --      1.2769                 1.4203                 1.0906
 Frc consts  --      1.4459                 1.6367                 1.4427
 IR Inten    --      4.5936                 4.5714                 3.7633

                     46                     47                     48
                      A                      A                      A
 Frequencies --   1512.3564              1523.7599              1525.5403
 Red. masses --      1.0836                 1.1055                 1.0835
 Frc consts  --      1.4603                 1.5123                 1.4856
 IR Inten    --      4.1349                 7.6017                 5.7280

                     49                     50                     51
                      A                      A                      A
 Frequencies --   1734.0770              1775.7104              1836.7764
 Red. masses --      6.0739                11.5392                 7.9123
 Frc consts  --     10.7611                21.4374                15.7278
 IR Inten    --      4.6120               168.1882                61.3013

                     52                     53                     54
                      A                      A                      A
 Frequencies --   3034.8244              3042.8846              3047.6237
 Red. masses --      1.0605                 1.0630                 1.0653
 Frc consts  --      5.7547                 5.7988                 5.8298
 IR Inten    --     23.0433                39.8651                 6.7293

                     55                     56                     57
                      A                      A                      A
 Frequencies --   3058.6701              3075.4076              3090.5943
 Red. masses --      1.0664                 1.0951                 1.1043
 Frc consts  --      5.8781                 6.1026                 6.2145
 IR Inten    --     18.6827                42.8904                38.4735

                     58                     59                     60
                      A                      A                      A
 Frequencies --   3091.4232              3094.5359              3117.8569
 Red. masses --      1.0852                 1.1026                 1.0982
 Frc consts  --      6.1107                 6.2208                 6.2897
 IR Inten    --     59.9118                23.5122                20.5632

                     61                     62                     63
                      A                      A                      A
 Frequencies --   3138.8256              3148.4021              3276.7101
 Red. masses --      1.0912                 1.0862                 1.1127
 Frc consts  --      6.3342                 6.3437                 7.0389
 IR Inten    --     15.1485                26.7164                 1.4919

 - Thermochemistry -
 -------------------
 Temperature   298.150 Kelvin.  Pressure   1.00000 Atm.
 Atom     1 has atomic number  6 and mass  12.00000

 Molecular mass:   148.08882 amu.
 Principal axes and moments of inertia in atomic units:
                           1         2         3
     Eigenvalues --  1218.163241625.730492327.34866
           X            0.99915  -0.04115   0.00273
           Y            0.04108   0.99892   0.02153
           Z           -0.00362  -0.02140   0.99976
 This molecule is an asymmetric top.
 Rotational symmetry number  1.
 Warning -- assumption of classical behavior for rotation
           may cause significant error
 Rotational temperatures (Kelvin)      0.07110     0.05328     0.03722
 Rotational constants (GHZ):           1.48153     1.11011     0.77545
 Zero-point vibrational energy     510782.3 (Joules/Mol)
                                  122.07991 (Kcal/Mol)
 Warning -- explicit consideration of  14 degrees of freedom as
           vibrations may cause significant error
 Vibrational temperatures:     87.97   134.58   194.62   230.63   311.93
          (Kelvin)            334.48   418.33   481.26   547.82   598.11
                              650.28   682.29   733.11   825.80   918.56
                             1034.58  1075.21  1129.88  1163.97  1222.32
                             1239.47  1332.37  1372.42  1387.12  1419.07
                             1463.24  1490.17  1499.67  1515.81  1545.47
                             1590.22  1625.82  1699.20  1710.55  1793.86
                             1823.67  1848.63  1893.66  1952.98  1958.81
                             1969.37  1992.27  1994.64  2012.19  2155.82
                             2175.94  2192.35  2194.91  2494.95  2554.85
                             2642.71  4366.44  4378.03  4384.85  4400.74
                             4424.83  4446.68  4447.87  4452.35  4485.90
                             4516.07  4529.85  4714.45

 Zero-point correction=                           0.194547 (Hartree/Particle)
 Thermal correction to Energy=                    0.204771
 Thermal correction to Enthalpy=                  0.205715
 Thermal correction to Gibbs Free Energy=         0.158971
 Sum of electronic and zero-point Energies=           -463.218617
 Sum of electronic and thermal Energies=              -463.208393
 Sum of electronic and thermal Enthalpies=            -463.207449
 Sum of electronic and thermal Free Energies=         -463.254193

                     E (Thermal)             CV                S
                      KCal/Mol        Cal/Mol-Kelvin    Cal/Mol-Kelvin
 Total                  128.495             39.472             98.380
 Electronic               0.000              0.000              0.000
 Translational            0.889              2.981             40.888
 Rotational               0.889              2.981             29.912
 Vibrational            126.718             33.511             27.580
 Vibration     1          0.597              1.973              4.420
 Vibration     2          0.603              1.954              3.585
 Vibration     3          0.613              1.918              2.870
 Vibration     4          0.622              1.891              2.546
 Vibration     5          0.646              1.815              1.986
 Vibration     6          0.653              1.791              1.860
 Vibration     7          0.687              1.691              1.470
 Vibration     8          0.716              1.607              1.238
 Vibration     9          0.750              1.511              1.036
 Vibration    10          0.779              1.436              0.907
 Vibration    11          0.811              1.357              0.790
 Vibration    12          0.831              1.307              0.726
 Vibration    13          0.865              1.229              0.635
 Vibration    14          0.930              1.088              0.497

                           ! Non-Optimized Parameters !
 Normal termination of Gaussian 16 at Tue Dec  8 21:37:33 2020.

 ----------------------------------------------------------------------
 # B3LYP/6-311++G(d,p) empiricaldispersion=gd3bj scf=xqc pop=npa geom=c
 heck
 ----------------------------------------------------------------------

 --------------------------------------
 CID_87965227_JID_1823_Energie_neutraal
 --------------------------------------
 Structure from the checkpoint file:  "JID_1823.chk"
 Charge =  0 Multiplicity = 1

 SCF Done:  E(RB3LYP) =  -463.540727839     A.U. after   15 cycles
 Normal termination of Gaussian 16 at Tue Dec  8 21:40:08 2020.

 ----------------------------------------------------------------------
 # B3LYP/6-311++G(d,p) empiricaldispersion=gd3bj scf=xqc pop=npa geom=c
 heck
 ----------------------------------------------------------------------

 ------------------------------------
 CID_87965227_JID_1823_Energie_kation
 ------------------------------------
 Structure from the checkpoint file:  "JID_1823.chk"
 Charge =  1 Multiplicity = 2

 SCF Done:  E(UB3LYP) =  -463.219956967     A.U. after   23 cycles
 Normal termination of Gaussian 16 at Tue Dec  8 21:44:35 2020.
 Gaussian 16:  ES64L-G16RevA.03 25-Dec-2016

 ----------------------------------------------------------------------
 # B3LYP/6-311++G(d,p) empiricaldispersion=gd3bj scf=xqc pop=npa geom=c
 heck
 ----------------------------------------------------------------------

 -----------------------------------
 CID_87965227_JID_1823_Energie_anion
 -----------------------------------
 Structure from the checkpoint file:  "JID_1823.chk"
 Charge = -1 Multiplicity = 2

                         Standard orientation:
 ---------------------------------------------------------------------
 Center     Atomic      Atomic             Coordinates (Angstroms)
 Number     Number       Type             X           Y           Z
 ---------------------------------------------------------------------
      1          6           0       -2.346557   -0.157315    0.552505
      2          6           0       -1.735688    1.222694    0.196640
      3          6           0       -0.320472    1.530935    0.774544
      4          6           0        0.856321    1.326033   -0.188360
      5          6           0        1.779625    0.226381    0.156698
      6          8           0        0.957905    1.974621   -1.214051
      7          6           0        2.435109   -0.562502    0.954181
      8          6           0        1.810258   -1.260039   -0.216242
      9          6           0        0.441437   -1.876712   -0.064526
     10          6           0       -0.570315   -1.311588   -0.729393
     11          6           0       -2.026650   -1.346178   -0.395688
     12          1           0       -2.015408   -0.428631    1.563299
     13          1           0       -3.437441   -0.048497    0.604289
     14          1           0       -1.723441    1.388319   -0.887408
     15          1           0       -2.410116    1.983793    0.603737
     16          1           0       -0.283204    2.598086    1.028104
     17          1           0       -0.157159    0.967031    1.697159
     18          1           0        2.972880   -0.681822    1.884003
     19          1           0        2.437093   -1.594022   -1.047415
     20          1           0        0.267161   -2.628297    0.707331
     21          1           0       -0.306265   -0.563253   -1.477070
     22          1           0       -2.633038   -1.258609   -1.306282
     23          1           0       -2.312716   -2.281315    0.100504
 ---------------------------------------------------------------------

 SCF Done:  E(UB3LYP) =  -463.541381308     A.U. after   33 cycles
 SCF Done:  E(UB3LYP) =  -463.541381308     a.u. after    1 cycles

 The electronic state is 2-A.
 Alpha  occ. eigenvalues --  -18.92581 -10.07527 -10.04865 -10.04654 -10.04629
 Alpha  occ. eigenvalues --  -10.03795 -10.03369 -10.03236 -10.02723 -10.02538
 Alpha  occ. eigenvalues --  -10.02385  -0.86654  -0.73683  -0.68192  -0.63486
 Alpha  occ. eigenvalues --   -0.59005  -0.54250  -0.48060  -0.46029  -0.43504
 Alpha  occ. eigenvalues --   -0.40402  -0.37917  -0.33974  -0.33435  -0.32313
 Alpha  occ. eigenvalues --   -0.30614  -0.28423  -0.27297  -0.26129  -0.25445
 Alpha  occ. eigenvalues --   -0.24645  -0.22586  -0.20714  -0.19885  -0.19364
 Alpha  occ. eigenvalues --   -0.19132  -0.14443  -0.11328  -0.10479  -0.08393
 Alpha  occ. eigenvalues --    0.05409
 Alpha virt. eigenvalues --    0.08063   0.09408   0.09611   0.10699   0.11272
 Alpha virt. eigenvalues --    0.11659   0.12436   0.13095   0.13453   0.14421
 Alpha virt. eigenvalues --    0.14501   0.14784   0.15904   0.16320   0.17239

  Beta  occ. eigenvalues --  -18.92105 -10.07156 -10.04866 -10.04643 -10.04592
  Beta  occ. eigenvalues --  -10.03742 -10.03242 -10.03131 -10.02760 -10.02512
  Beta  occ. eigenvalues --  -10.02279  -0.85752  -0.73407  -0.68123  -0.63312
  Beta  occ. eigenvalues --   -0.58795  -0.53853  -0.47568  -0.45779  -0.43238
  Beta  occ. eigenvalues --   -0.40197  -0.37681  -0.33792  -0.33294  -0.32077
  Beta  occ. eigenvalues --   -0.30329  -0.28160  -0.27040  -0.25764  -0.25142
  Beta  occ. eigenvalues --   -0.23986  -0.22336  -0.20496  -0.19825  -0.19264
  Beta  occ. eigenvalues --   -0.17810  -0.13801  -0.10823  -0.09868  -0.07905
  Beta virt. eigenvalues --    0.08219   0.09318   0.09853   0.10554   0.10854
  Beta virt. eigenvalues --    0.11517   0.11817   0.12471   0.13363   0.13906
  Beta virt. eigenvalues --    0.14340   0.15072   0.15524   0.16184   0.16453

 Mulliken charges and spin densities:
               1          2
     1  C   -0.113270  -0.286235
     2  C    0.168059  -0.270969
     3  C   -0.030396  -0.059252
     4  C   -0.235901   0.339146
     5  C    0.479592  -0.176474
     6  O   -0.334782   0.164093
     7  C   -0.764248   0.154047
     8  C   -0.062698   0.053360
     9  C   -0.437368   0.075243
    10  C    0.359783  -0.007324
    11  C   -0.703030   0.054714
    12  H    0.122814   0.002543
    13  H   -0.149403   0.265177
    14  H    0.220108  -0.059203
    15  H   -0.363965   0.499635
    16  H    0.033231   0.154906
    17  H    0.108140  -0.016881
    18  H    0.072458   0.043577
    19  H    0.138877  -0.000467
    20  H    0.127748  -0.012946
    21  H    0.192176  -0.001679
    22  H    0.093802   0.042841
    23  H    0.078273   0.042149
 Sum of Mulliken charges =  -1.00000   1.00000

 Dipole moment (field-independent basis, Debye):
    X=             -0.8751    Y=             -3.6345    Z=              1.6628  Tot=              4.0915
 Quadrupole moment (field-independent basis, Debye-Ang):
   XX=            -97.0220   YY=            -96.5940   ZZ=            -81.2838
   XY=              1.8923   XZ=              6.0473   YZ=              1.4818

 Summary of Natural Population Analysis:

                                       Natural Population
                Natural  -----------------------------------------------
    Atom  No    Charge         Core      Valence    Rydberg      Total
 -----------------------------------------------------------------------
      C    1   -0.18224      0.99963     2.17373    0.00888     3.18224
      C    2   -0.18843      0.99962     2.17905    0.00976     3.18843
      C    3   -0.22708      0.99959     2.21837    0.00912     3.22708
      C    4    0.30295      0.99959     1.67481    0.02264     2.69705
      C    5    0.01864      0.99939     1.97079    0.01118     2.98136
      O    6   -0.25218      0.99988     3.24629    0.00602     4.25218
      C    7   -0.08706      0.99936     2.07970    0.00800     3.08706
      C    8   -0.12632      0.99961     2.11510    0.01162     3.12632
      C    9   -0.08015      0.99948     2.07171    0.00896     3.08015
      C   10   -0.09954      0.99952     2.08938    0.01064     3.09954
      C   11   -0.20429      0.99961     2.19436    0.01032     3.20429
      H   12    0.09130      0.00000     0.40765    0.00105     0.40870
      H   13    0.09141      0.00000     0.40723    0.00137     0.40859
      H   14    0.10040      0.00000     0.39853    0.00106     0.39960
      H   15    0.09622      0.00000     0.40202    0.00176     0.40378
      H   16    0.10891      0.00000     0.38978    0.00131     0.39109
      H   17    0.09608      0.00000     0.40300    0.00092     0.40392
      H   18    0.09280      0.00000     0.40547    0.00173     0.40720
      H   19    0.08099      0.00000     0.41688    0.00212     0.41901
      H   20    0.08242      0.00000     0.41646    0.00111     0.41758
      H   21    0.09862      0.00000     0.40016    0.00122     0.40138
      H   22    0.09260      0.00000     0.40644    0.00096     0.40740
      H   23    0.09395      0.00000     0.40499    0.00107     0.40605
 =======================================================================
   * Total *    0.00000     10.99527    28.87192    0.13281    40.00000

 Normal termination of Gaussian 16 at Tue Dec  8 21:50:30 2020.
