 Gaussian 16, Revision A.03,

 -----------------------------------------------------------
 # opt freq B3LYP/6-31G(d) empiricaldispersion=gd3bj scf=xqc
 -----------------------------------------------------------

 -------------------------------
 CID_107892927_JID_5778_neutraal
 -------------------------------
 Symbolic Z-matrix:
 Charge =  0 Multiplicity = 1

 SCF Done:  E(RB3LYP) =  -625.653477305     A.U. after   12 cycles
 SCF Done:  E(RB3LYP) =  -625.648616781     A.U. after   11 cycles
 SCF Done:  E(RB3LYP) =  -625.656436215     A.U. after   10 cycles
 SCF Done:  E(RB3LYP) =  -625.657113926     A.U. after   10 cycles
 SCF Done:  E(RB3LYP) =  -625.657442362     A.U. after   10 cycles
 SCF Done:  E(RB3LYP) =  -625.657566301     A.U. after   11 cycles
 SCF Done:  E(RB3LYP) =  -625.657817428     A.U. after    9 cycles
 SCF Done:  E(RB3LYP) =  -625.658127095     A.U. after   10 cycles
 SCF Done:  E(RB3LYP) =  -625.658568032     A.U. after   10 cycles
 SCF Done:  E(RB3LYP) =  -625.658819128     A.U. after   10 cycles
 SCF Done:  E(RB3LYP) =  -625.659378328     A.U. after    9 cycles
 SCF Done:  E(RB3LYP) =  -625.659363108     A.U. after    9 cycles
 SCF Done:  E(RB3LYP) =  -625.659380850     A.U. after    9 cycles
 SCF Done:  E(RB3LYP) =  -625.659381829     A.U. after    8 cycles
 SCF Done:  E(RB3LYP) =  -625.659382102     A.U. after    7 cycles
 SCF Done:  E(RB3LYP) =  -625.659382196     A.U. after    7 cycles
 Optimization completed.
    -- Stationary point found.
 Normal termination of Gaussian 16 at Thu Dec 10 17:22:17 2020.

 --------------------------------------------------------------------
 #N Geom=AllCheck Guess=TCheck SCRF=Check GenChk RB3LYP/6-31G(d) Freq
 --------------------------------------------------------------------

 Structure from the checkpoint file:  "JID_5778.chk"
 -------------------------------
 CID_107892927_JID_5778_neutraal
 -------------------------------
 Charge =  0 Multiplicity = 1

 SCF Done:  E(RB3LYP) =  -625.659382196     A.U. after    1 cycles

  Exact polarizability: 159.367  -0.154 147.761   0.739   1.251 132.489
 Approx polarizability: 205.497  -0.137 202.935   1.372   2.620 203.339

                      1                      2                      3
                      A                      A                      A
 Frequencies --     27.2717                48.4574                58.2844
 Red. masses --      2.7747                 3.2759                 3.1541
 Frc consts  --      0.0012                 0.0045                 0.0063
 IR Inten    --      0.0727                 0.4565                 0.0324

                      4                      5                      6
                      A                      A                      A
 Frequencies --     70.9426               132.7036               153.9839
 Red. masses --      2.8898                 2.7082                 2.8144
 Frc consts  --      0.0086                 0.0281                 0.0393
 IR Inten    --      0.0416                 0.6035                 1.2604

                      7                      8                      9
                      A                      A                      A
 Frequencies --    178.9273               207.2933               214.8524
 Red. masses --      2.4189                 1.6435                 1.7274
 Frc consts  --      0.0456                 0.0416                 0.0470
 IR Inten    --      0.5043                 0.9517                 3.0641

                     10                     11                     12
                      A                      A                      A
 Frequencies --    229.6109               249.0743               265.2858
 Red. masses --      1.1245                 1.3433                 1.2840
 Frc consts  --      0.0349                 0.0491                 0.0532
 IR Inten    --      0.2693                 4.5361                 0.2557

                     13                     14                     15
                      A                      A                      A
 Frequencies --    284.9622               292.3295               300.9468
 Red. masses --      1.9280                 2.0735                 1.5595
 Frc consts  --      0.0922                 0.1044                 0.0832
 IR Inten    --      5.1984                 0.3916                47.8151

                     16                     17                     18
                      A                      A                      A
 Frequencies --    314.2649               325.3019               338.7998
 Red. masses --      1.8507                 2.0770                 2.0792
 Frc consts  --      0.1077                 0.1295                 0.1406
 IR Inten    --     61.8865                 5.2947                 3.1046

                     19                     20                     21
                      A                      A                      A
 Frequencies --    369.1885               397.8408               409.3612
 Red. masses --      1.8736                 2.4465                 1.9137
 Frc consts  --      0.1505                 0.2281                 0.1889
 IR Inten    --      8.3090                 1.3862                 5.7550

                     22                     23                     24
                      A                      A                      A
 Frequencies --    417.6991               424.2738               462.8991
 Red. masses --      1.9107                 2.0251                 3.0097
 Frc consts  --      0.1964                 0.2148                 0.3800
 IR Inten    --      1.5233                 3.1462                 0.1332

                     25                     26                     27
                      A                      A                      A
 Frequencies --    471.6862               504.3116               524.7120
 Red. masses --      2.8003                 2.6624                 2.7817
 Frc consts  --      0.3671                 0.3990                 0.4512
 IR Inten    --      0.1973                12.6096                 1.8152

                     28                     29                     30
                      A                      A                      A
 Frequencies --    578.2252               701.9800               720.6195
 Red. masses --      2.6626                 3.4861                 2.2838
 Frc consts  --      0.5245                 1.0121                 0.6987
 IR Inten    --      4.7808                 0.2807                 3.7020

                     31                     32                     33
                      A                      A                      A
 Frequencies --    744.4632               780.8256               784.6178
 Red. masses --      1.7790                 1.7646                 1.6218
 Frc consts  --      0.5809                 0.6339                 0.5882
 IR Inten    --      1.9156                 2.9027                 2.2573

                     34                     35                     36
                      A                      A                      A
 Frequencies --    860.9951               867.0471               880.4552
 Red. masses --      2.2279                 1.7071                 2.1402
 Frc consts  --      0.9731                 0.7561                 0.9775
 IR Inten    --      0.2672                 0.9469                 0.1749

                     37                     38                     39
                      A                      A                      A
 Frequencies --    890.0738               917.1211               931.7923
 Red. masses --      1.7684                 2.0455                 2.0031
 Frc consts  --      0.8254                 1.0137                 1.0247
 IR Inten    --      3.2731                 0.3767                 2.8245

                     40                     41                     42
                      A                      A                      A
 Frequencies --    951.4214               967.3373               971.4745
 Red. masses --      1.8981                 1.5921                 1.4681
 Frc consts  --      1.0123                 0.8778                 0.8163
 IR Inten    --      6.8437                 7.1372                 3.0001

                     43                     44                     45
                      A                      A                      A
 Frequencies --    995.1668              1019.3154              1023.9641
 Red. masses --      1.7458                 1.5769                 1.7216
 Frc consts  --      1.0187                 0.9653                 1.0635
 IR Inten    --      8.2036                 2.2433                16.4301

                     46                     47                     48
                      A                      A                      A
 Frequencies --   1041.1263              1043.3859              1051.2363
 Red. masses --      2.0778                 1.8244                 1.6358
 Frc consts  --      1.3269                 1.1702                 1.0651
 IR Inten    --     13.3475                36.1713                15.4349

                     49                     50                     51
                      A                      A                      A
 Frequencies --   1060.6624              1074.4881              1093.7570
 Red. masses --      1.8392                 1.7534                 2.7385
 Frc consts  --      1.2191                 1.1927                 1.9302
 IR Inten    --      2.0976                 2.5934                10.0665

                     52                     53                     54
                      A                      A                      A
 Frequencies --   1129.0493              1145.9625              1152.8394
 Red. masses --      1.6890                 1.6059                 1.8727
 Frc consts  --      1.2686                 1.2425                 1.4664
 IR Inten    --      9.1637                 3.6712                 8.5630

                     55                     56                     57
                      A                      A                      A
 Frequencies --   1162.1156              1194.2460              1208.7077
 Red. masses --      1.7454                 2.0716                 1.3743
 Frc consts  --      1.3888                 1.7408                 1.1830
 IR Inten    --      2.0396                 2.9876                 0.6363

                     58                     59                     60
                      A                      A                      A
 Frequencies --   1211.7922              1221.1812              1257.3543
 Red. masses --      1.4627                 2.3749                 1.2970
 Frc consts  --      1.2655                 2.0866                 1.2081
 IR Inten    --      3.3224                 6.7561                20.2936

                     61                     62                     63
                      A                      A                      A
 Frequencies --   1275.0019              1299.4361              1303.3606
 Red. masses --      1.4315                 1.3528                 1.7676
 Frc consts  --      1.3711                 1.3459                 1.7691
 IR Inten    --      8.3555                 0.4686                 0.6536

                     64                     65                     66
                      A                      A                      A
 Frequencies --   1319.6109              1337.0361              1342.5663
 Red. masses --      1.3231                 1.5000                 1.3595
 Frc consts  --      1.3575                 1.5799                 1.4438
 IR Inten    --      4.1985                 2.5057                 0.1807

                     67                     68                     69
                      A                      A                      A
 Frequencies --   1367.1108              1372.3603              1376.3195
 Red. masses --      1.4299                 1.3986                 1.4194
 Frc consts  --      1.5745                 1.5520                 1.5841
 IR Inten    --      4.7265                 4.6823                 0.2287

                     70                     71                     72
                      A                      A                      A
 Frequencies --   1384.2243              1395.4248              1403.2845
 Red. masses --      1.3825                 1.3263                 1.3465
 Frc consts  --      1.5607                 1.5216                 1.5622
 IR Inten    --      1.2593                 5.0794                 3.1208

                     73                     74                     75
                      A                      A                      A
 Frequencies --   1405.1661              1410.8709              1419.9348
 Red. masses --      1.3994                 1.4627                 1.3758
 Frc consts  --      1.6279                 1.7154                 1.6343
 IR Inten    --      0.7115                 1.0636                 3.3529

                     76                     77                     78
                      A                      A                      A
 Frequencies --   1425.8800              1429.0098              1440.6310
 Red. masses --      1.3293                 1.2659                 1.2395
 Frc consts  --      1.5923                 1.5231                 1.5157
 IR Inten    --     12.2234                 2.9200                 3.6237

                     79                     80                     81
                      A                      A                      A
 Frequencies --   1443.4782              1451.6184              1460.4658
 Red. masses --      1.2419                 1.2381                 1.2186
 Frc consts  --      1.5246                 1.5371                 1.5314
 IR Inten    --     20.9351                 3.2641                14.9045

                     82                     83                     84
                      A                      A                      A
 Frequencies --   1510.7860              1512.0441              1513.0583
 Red. masses --      1.0673                 1.0656                 1.0703
 Frc consts  --      1.4353                 1.4354                 1.4437
 IR Inten    --      0.3631                 1.2877                 4.5310

                     85                     86                     87
                      A                      A                      A
 Frequencies --   1517.1107              1522.0419              1522.8505
 Red. masses --      1.0670                 1.0649                 1.0608
 Frc consts  --      1.4469                 1.4535                 1.4494
 IR Inten    --      0.6225                 4.2642                 5.6078

                     88                     89                     90
                      A                      A                      A
 Frequencies --   1527.6051              1528.8533              1533.7352
 Red. masses --      1.0743                 1.0628                 1.0537
 Frc consts  --      1.4771                 1.4636                 1.4603
 IR Inten    --     11.5442                 4.9241                 3.1913

                     91                     92                     93
                      A                      A                      A
 Frequencies --   1534.7847              1539.3895              1539.5635
 Red. masses --      1.0560                 1.0688                 1.0851
 Frc consts  --      1.4656                 1.4922                 1.5153
 IR Inten    --     12.9596                 9.4940                 1.3618

                     94                     95                     96
                      A                      A                      A
 Frequencies --   1546.5502              1548.1283              3024.8910
 Red. masses --      1.0592                 1.0616                 1.0683
 Frc consts  --      1.4927                 1.4990                 5.7592
 IR Inten    --      2.2031                 7.3622                 3.9132

                     97                     98                     99
                      A                      A                      A
 Frequencies --   3025.9960              3030.7997              3033.6893
 Red. masses --      1.0651                 1.0697                 1.0444
 Frc consts  --      5.7463                 5.7895                 5.6634
 IR Inten    --     18.2804                 2.9145                 6.1772

                    100                    101                    102
                      A                      A                      A
 Frequencies --   3037.4172              3039.5455              3042.8393
 Red. masses --      1.0594                 1.0654                 1.0597
 Frc consts  --      5.7584                 5.7995                 5.7810
 IR Inten    --     45.3075                96.1153                21.5568

                    103                    104                    105
                      A                      A                      A
 Frequencies --   3043.4374              3046.5509              3048.7363
 Red. masses --      1.0600                 1.0367                 1.0607
 Frc consts  --      5.7848                 5.6691                 5.8090
 IR Inten    --     25.1504                24.4833                52.3868

                    106                    107                    108
                      A                      A                      A
 Frequencies --   3052.5929              3058.7697              3059.2674
 Red. masses --      1.0813                 1.0574                 1.0784
 Frc consts  --      5.9368                 5.8286                 5.9464
 IR Inten    --     14.6907                37.3862                26.7200

                    109                    110                    111
                      A                      A                      A
 Frequencies --   3063.4624              3068.4652              3076.8809
 Red. masses --      1.0903                 1.1010                 1.0969
 Frc consts  --      6.0287                 6.1080                 6.1186
 IR Inten    --     11.7084                21.6737                57.3315

                    112                    113                    114
                      A                      A                      A
 Frequencies --   3080.4889              3100.0161              3102.1388
 Red. masses --      1.0977                 1.1023                 1.0946
 Frc consts  --      6.1372                 6.2414                 6.2062
 IR Inten    --     75.5843                 2.4896                 3.5883

                    115                    116                    117
                      A                      A                      A
 Frequencies --   3104.2314              3106.8068              3111.0067
 Red. masses --      1.0971                 1.1009                 1.0982
 Frc consts  --      6.2290                 6.2607                 6.2625
 IR Inten    --     68.7519                72.7165                98.8554

                    118                    119                    120
                      A                      A                      A
 Frequencies --   3114.2979              3117.0338              3120.2386
 Red. masses --      1.0993                 1.0959                 1.0977
 Frc consts  --      6.2816                 6.2736                 6.2966
 IR Inten    --     37.8991                16.8711                27.8834

                    121                    122                    123
                      A                      A                      A
 Frequencies --   3125.5303              3135.3628              3746.9753
 Red. masses --      1.0985                 1.0997                 1.0655
 Frc consts  --      6.3229                 6.3694                 8.8138
 IR Inten    --     33.9449                40.7166                 4.7084

 - Thermochemistry -
 -------------------
 Temperature   298.150 Kelvin.  Pressure   1.00000 Atm.
 Atom     1 has atomic number  6 and mass  12.00000

 Molecular mass:   212.21402 amu.
 Principal axes and moments of inertia in atomic units:
                           1         2         3
     Eigenvalues --  2531.497633939.198745258.96263
           X            0.99975   0.02224  -0.00251
           Y           -0.02225   0.99975  -0.00136
           Z            0.00248   0.00141   1.00000
 This molecule is an asymmetric top.
 Rotational symmetry number  1.
 Warning -- assumption of classical behavior for rotation
           may cause significant error
 Rotational temperatures (Kelvin)      0.03421     0.02199     0.01647
 Rotational constants (GHZ):           0.71291     0.45815     0.34317
 Zero-point vibrational energy    1061607.0 (Joules/Mol)
                                  253.73015 (Kcal/Mol)
 Warning -- explicit consideration of  28 degrees of freedom as
           vibrations may cause significant error
 Vibrational temperatures:     39.24    69.72    83.86   102.07   190.93
          (Kelvin)            221.55   257.44   298.25   309.12   330.36
                              358.36   381.69   410.00   420.60   433.00
                              452.16   468.04   487.46   531.18   572.40
                              588.98   600.98   610.44   666.01   678.65
                              725.59   754.94   831.94  1009.99  1036.81
                             1071.12  1123.43  1128.89  1238.78  1247.49
                             1266.78  1280.62  1319.53  1340.64  1368.88
                             1391.78  1397.74  1431.82  1466.57  1473.26
                             1497.95  1501.20  1512.49  1526.06  1545.95
                             1573.67  1624.45  1648.78  1658.68  1672.03
                             1718.25  1739.06  1743.50  1757.01  1809.05
                             1834.44  1869.60  1875.25  1898.63  1923.70
                             1931.65  1966.97  1974.52  1980.22  1991.59
                             2007.71  2019.01  2021.72  2029.93  2042.97
                             2051.52  2056.03  2072.75  2076.84  2088.56
                             2101.28  2173.68  2175.49  2176.95  2182.78
                             2189.88  2191.04  2197.88  2199.68  2206.70
                             2208.21  2214.84  2215.09  2225.14  2227.41
                             4352.14  4353.73  4360.64  4364.80  4370.17
                             4373.23  4377.97  4378.83  4383.31  4386.45
                             4392.00  4400.89  4401.60  4407.64  4414.84
                             4426.95  4432.14  4460.23  4463.29  4466.30
                             4470.00  4476.04  4480.78  4484.72  4489.33
                             4496.94  4511.09  5391.06

 Zero-point correction=                           0.404345 (Hartree/Particle)
 Thermal correction to Energy=                    0.421670
 Thermal correction to Enthalpy=                  0.422614
 Thermal correction to Gibbs Free Energy=         0.360199
 Sum of electronic and zero-point Energies=           -625.255037
 Sum of electronic and thermal Energies=              -625.237713
 Sum of electronic and thermal Enthalpies=            -625.236768
 Sum of electronic and thermal Free Energies=         -625.299184

                     E (Thermal)             CV                S
                      KCal/Mol        Cal/Mol-Kelvin    Cal/Mol-Kelvin
 Total                  264.602             68.210            131.364
 Electronic               0.000              0.000              0.000
 Translational            0.889              2.981             41.961
 Rotational               0.889              2.981             32.328
 Vibrational            262.824             62.249             57.075
 Vibration     1          0.593              1.984              6.019
 Vibration     2          0.595              1.978              4.879
 Vibration     3          0.596              1.974              4.514
 Vibration     4          0.598              1.968              4.127
 Vibration     5          0.613              1.921              2.906
 Vibration     6          0.619              1.898              2.622
 Vibration     7          0.629              1.868              2.340
 Vibration     8          0.641              1.829              2.067
 Vibration     9          0.645              1.818              2.002
 Vibration    10          0.652              1.796              1.882
 Vibration    11          0.662              1.764              1.737
 Vibration    12          0.671              1.737              1.627
 Vibration    13          0.683              1.702              1.504
 Vibration    14          0.688              1.688              1.460
 Vibration    15          0.693              1.672              1.412
 Vibration    16          0.702              1.646              1.340
 Vibration    17          0.709              1.625              1.283
 Vibration    18          0.719              1.598              1.218
 Vibration    19          0.741              1.536              1.083
 Vibration    20          0.764              1.475              0.971
 Vibration    21          0.774              1.450              0.929
 Vibration    22          0.781              1.432              0.900
 Vibration    23          0.786              1.417              0.878
 Vibration    24          0.821              1.332              0.758
 Vibration    25          0.829              1.313              0.733
 Vibration    26          0.860              1.240              0.647
 Vibration    27          0.880              1.195              0.599
 Vibration    28          0.935              1.078              0.489

                           ! Non-Optimized Parameters !
 Normal termination of Gaussian 16 at Thu Dec 10 17:40:52 2020.

 ----------------------------------------------------------------------
 # B3LYP/6-311++G(d,p) empiricaldispersion=gd3bj scf=xqc pop=npa geom=c
 heck
 ----------------------------------------------------------------------

 ---------------------------------------
 CID_107892927_JID_5778_Energie_neutraal
 ---------------------------------------
 Structure from the checkpoint file:  "JID_5778.chk"
 Charge =  0 Multiplicity = 1

 SCF Done:  E(RB3LYP) =  -625.840740316     A.U. after   13 cycles
 Normal termination of Gaussian 16 at Thu Dec 10 17:50:15 2020.

 ----------------------------------------------------------------------
 # B3LYP/6-311++G(d,p) empiricaldispersion=gd3bj scf=xqc pop=npa geom=c
 heck
 ----------------------------------------------------------------------

 -------------------------------------
 CID_107892927_JID_5778_Energie_kation
 -------------------------------------
 Structure from the checkpoint file:  "JID_5778.chk"
 Charge =  1 Multiplicity = 2

 SCF Done:  E(UB3LYP) =  -625.505435890     A.U. after   27 cycles
 Normal termination of Gaussian 16 at Thu Dec 10 18:12:10 2020.
 Gaussian 16:  ES64L-G16RevA.03 25-Dec-2016

 ----------------------------------------------------------------------
 # B3LYP/6-311++G(d,p) empiricaldispersion=gd3bj scf=xqc pop=npa geom=c
 heck
 ----------------------------------------------------------------------

 ------------------------------------
 CID_107892927_JID_5778_Energie_anion
 ------------------------------------
 Structure from the checkpoint file:  "JID_5778.chk"
 Charge = -1 Multiplicity = 2

                         Standard orientation:
 ---------------------------------------------------------------------
 Center     Atomic      Atomic             Coordinates (Angstroms)
 Number     Number       Type             X           Y           Z
 ---------------------------------------------------------------------
      1          6           0        1.825948    2.861022   -0.258358
      2          6           0        2.841535    1.954058    0.443673
      3          6           0        2.281763    0.595386    0.893555
      4          6           0        1.704436   -0.307864   -0.217255
      5          6           0        2.772783   -0.629504   -1.270944
      6          6           0        1.095142   -1.598130    0.427449
      7          6           0       -0.440280   -1.643903    0.657023
      8          6           0       -1.305186   -1.695431   -0.625359
      9          6           0       -1.683442   -0.335967   -1.231926
     10          6           0       -2.298269    0.648745   -0.213031
     11          6           0       -1.350704    0.763343    1.001229
     12          6           0       -0.991609   -0.586195    1.637648
     13          6           0       -3.693540    0.170390    0.226695
     14          6           0       -2.438361    2.029812   -0.870063
     15          8           0        1.496653   -2.799907   -0.239156
     16          1           0        1.455754    2.414296   -1.188203
     17          1           0        2.273606    3.827833   -0.514056
     18          1           0        0.958252    3.055957    0.382925
     19          1           0        3.707319    1.801703   -0.212375
     20          1           0        3.228396    2.472531    1.330833
     21          1           0        3.080710    0.036721    1.401783
     22          1           0        1.508246    0.770588    1.652087
     23          1           0        0.908035    0.243559   -0.722741
     24          1           0        3.607980   -1.186581   -0.834435
     25          1           0        2.370430   -1.232359   -2.091214
     26          1           0        3.165241    0.291324   -1.713783
     27          1           0        1.553386   -1.709504    1.417887
     28          1           0       -0.567520   -2.618918    1.144117
     29          1           0       -2.228511   -2.233777   -0.377969
     30          1           0       -0.819190   -2.314499   -1.391884
     31          1           0       -2.393700   -0.495233   -2.054842
     32          1           0       -0.801913    0.134129   -1.684162
     33          1           0       -0.440258    1.277050    0.677608
     34          1           0       -1.811727    1.410262    1.760077
     35          1           0       -1.893185   -1.000496    2.106164
     36          1           0       -0.277780   -0.432627    2.457183
     37          1           0       -3.670951   -0.817051    0.697449
     38          1           0       -4.131208    0.870409    0.948518
     39          1           0       -4.370099    0.110674   -0.634367
     40          1           0       -2.869880    2.756666   -0.170994
     41          1           0       -1.462688    2.413144   -1.192467
     42          1           0       -3.090446    1.984088   -1.751005
     43          1           0        1.117181   -2.785210   -1.130898
 ---------------------------------------------------------------------

 SCF Done:  E(UB3LYP) =  -625.827953713     A.U. after   28 cycles

 The electronic state is 2-A.
 Alpha  occ. eigenvalues --  -19.01831 -10.11876 -10.08192 -10.07344 -10.07266
 Alpha  occ. eigenvalues --  -10.07075 -10.06908 -10.06828 -10.06627 -10.06299
 Alpha  occ. eigenvalues --  -10.06224 -10.06202 -10.05875 -10.05871 -10.05766
 Alpha  occ. eigenvalues --   -0.92179  -0.74706  -0.71657  -0.68635  -0.65597
 Alpha  occ. eigenvalues --   -0.64521  -0.60097  -0.58903  -0.58472  -0.55748
 Alpha  occ. eigenvalues --   -0.51822  -0.51013  -0.47004  -0.46362  -0.42765
 Alpha  occ. eigenvalues --   -0.39431  -0.38039  -0.37250  -0.36174  -0.35583
 Alpha  occ. eigenvalues --   -0.34731  -0.34257  -0.33480  -0.32343  -0.31729
 Alpha  occ. eigenvalues --   -0.31285  -0.30026  -0.28669  -0.28427  -0.27835
 Alpha  occ. eigenvalues --   -0.27361  -0.27111  -0.26263  -0.25823  -0.25745
 Alpha  occ. eigenvalues --   -0.25056  -0.24170  -0.23546  -0.22332  -0.22239
 Alpha  occ. eigenvalues --   -0.22026  -0.20042  -0.19907  -0.19453  -0.16942
 Alpha  occ. eigenvalues --    0.04210
 Alpha virt. eigenvalues --    0.06317   0.06592   0.07164   0.08284   0.08544
 Alpha virt. eigenvalues --    0.08577   0.09157   0.09676   0.10712   0.10792
 Alpha virt. eigenvalues --    0.10908   0.11241   0.11644   0.12232   0.12421

  Beta  occ. eigenvalues --  -19.01809 -10.11871 -10.08192 -10.07338 -10.07265
  Beta  occ. eigenvalues --  -10.07060 -10.06901 -10.06818 -10.06599 -10.06286
  Beta  occ. eigenvalues --  -10.06197 -10.06183 -10.05852 -10.05847 -10.05738
  Beta  occ. eigenvalues --   -0.92132  -0.74686  -0.71634  -0.68610  -0.65565
  Beta  occ. eigenvalues --   -0.64486  -0.60064  -0.58855  -0.58428  -0.55703
  Beta  occ. eigenvalues --   -0.51768  -0.50964  -0.46968  -0.46321  -0.42724
  Beta  occ. eigenvalues --   -0.39397  -0.37994  -0.37220  -0.36150  -0.35552
  Beta  occ. eigenvalues --   -0.34706  -0.34222  -0.33450  -0.32310  -0.31700
  Beta  occ. eigenvalues --   -0.31262  -0.29999  -0.28642  -0.28398  -0.27801
  Beta  occ. eigenvalues --   -0.27326  -0.27087  -0.26237  -0.25793  -0.25713
  Beta  occ. eigenvalues --   -0.25027  -0.24143  -0.23522  -0.22304  -0.22216
  Beta  occ. eigenvalues --   -0.22002  -0.20016  -0.19873  -0.19429  -0.16921
  Beta virt. eigenvalues --    0.06215   0.06975   0.07440   0.07506   0.08795
  Beta virt. eigenvalues --    0.08828   0.08989   0.09398   0.09994   0.10898
  Beta virt. eigenvalues --    0.11123   0.11260   0.11493   0.11865   0.12427

 Mulliken charges and spin densities:
               1          2
     1  C   -0.481205  -0.010076
     2  C    0.795856  -1.437497
     3  C   -0.975198   0.917679
     4  C   -0.492134   1.093304
     5  C    0.390191  -1.110862
     6  C    0.373501  -1.142403
     7  C   -0.456314   1.053254
     8  C    1.066644  -1.730380
     9  C   -0.031519  -0.150903
    10  C   -0.785722   1.092779
    11  C   -0.018060  -0.039456
    12  C   -0.772455  -0.130388
    13  C    0.341290  -0.963016
    14  C    0.093058  -0.615752
    15  O   -0.160899   0.012419
    16  H   -0.199826   0.361816
    17  H   -0.536436   0.699532
    18  H   -0.059415   0.229236
    19  H    0.147684  -0.011086
    20  H   -0.145187   0.292337
    21  H    0.056340   0.090246
    22  H    0.042344   0.104196
    23  H    1.809987  -1.886411
    24  H    0.044634   0.148456
    25  H   -0.261815   0.390601
    26  H   -0.100762   0.227219
    27  H    0.187244   0.022105
    28  H    0.031603   0.202291
    29  H    0.004805   0.167633
    30  H   -0.406245   0.515662
    31  H   -0.182544   0.379172
    32  H   -0.661862   0.913393
    33  H    0.796572  -0.707990
    34  H   -0.121831   0.323777
    35  H   -0.015294   0.169311
    36  H   -0.104287   0.266530
    37  H   -0.040827   0.164461
    38  H   -0.041486   0.190963
    39  H   -0.138008   0.284290
    40  H   -0.063349   0.198402
    41  H    0.091563   0.020509
    42  H   -0.108044   0.249510
    43  H    0.087408   0.155139
 Sum of Mulliken charges =  -1.00000   1.00000

 Dipole moment (field-independent basis, Debye):
    X=              0.4729    Y=             -0.5913    Z=              2.6072  Tot=              2.7149
 Quadrupole moment (field-independent basis, Debye-Ang):
   XX=           -161.9108   YY=           -158.9098   ZZ=           -141.5545
   XY=             -3.6483   XZ=              1.3321   YZ=             -3.7480

 Summary of Natural Population Analysis:

                                       Natural Population
                Natural  -----------------------------------------------
    Atom  No    Charge         Core      Valence    Rydberg      Total
 -----------------------------------------------------------------------
      C    1   -0.28751      0.99966     2.28276    0.00509     3.28751
      C    2   -0.19032      0.99964     2.18276    0.00792     3.19032
      C    3   -0.18578      0.99961     2.17796    0.00821     3.18578
      C    4   -0.13456      0.99957     2.12536    0.00963     3.13456
      C    5   -0.28394      0.99965     2.27691    0.00738     3.28394
      C    6    0.07674      0.99951     1.90907    0.01468     2.92326
      C    7   -0.11694      0.99956     2.10653    0.01086     3.11694
      C    8   -0.19042      0.99960     2.18050    0.01031     3.19042
      C    9   -0.18819      0.99958     2.17798    0.01064     3.18819
      C   10   -0.04516      0.99957     2.03397    0.01162     3.04516
      C   11   -0.19303      0.99958     2.18384    0.00961     3.19303
      C   12   -0.18968      0.99961     2.18135    0.00872     3.18968
      C   13   -0.28678      0.99962     2.28001    0.00714     3.28678
      C   14   -0.28080      0.99962     2.27400    0.00717     3.28080
      O   15   -0.37206      0.99990     3.36594    0.00622     4.37206
      H   16    0.09695      0.00000     0.40180    0.00125     0.40305
      H   17    0.09955      0.00000     0.39949    0.00096     0.40045
      H   18    0.09687      0.00000     0.40190    0.00123     0.40313
      H   19    0.09385      0.00000     0.40505    0.00109     0.40615
      H   20    0.09506      0.00000     0.40399    0.00095     0.40494
      H   21    0.09563      0.00000     0.40327    0.00110     0.40437
      H   22    0.09727      0.00000     0.40130    0.00142     0.40273
      H   23    0.09913      0.00000     0.39733    0.00354     0.40087
      H   24    0.10034      0.00000     0.39884    0.00083     0.39966
      H   25    0.09931      0.00000     0.39953    0.00116     0.40069
      H   26    0.09830      0.00000     0.40078    0.00092     0.40170
      H   27    0.08346      0.00000     0.41485    0.00170     0.41654
      H   28    0.10200      0.00000     0.39662    0.00138     0.39800
      H   29    0.09934      0.00000     0.39933    0.00133     0.40066
      H   30    0.09594      0.00000     0.40236    0.00170     0.40406
      H   31    0.10100      0.00000     0.39768    0.00131     0.39900
      H   32    0.09613      0.00000     0.40171    0.00216     0.40387
      H   33    0.09902      0.00000     0.39819    0.00280     0.40098
      H   34    0.09890      0.00000     0.40005    0.00105     0.40110
      H   35    0.09827      0.00000     0.40061    0.00112     0.40173
      H   36    0.09877      0.00000     0.40022    0.00101     0.40123
      H   37    0.09981      0.00000     0.39909    0.00110     0.40019
      H   38    0.09881      0.00000     0.40025    0.00094     0.40119
      H   39    0.09980      0.00000     0.39926    0.00094     0.40020
      H   40    0.09820      0.00000     0.40092    0.00087     0.40180
      H   41    0.10031      0.00000     0.39849    0.00120     0.39969
      H   42    0.09899      0.00000     0.40013    0.00088     0.40101
      H   43    0.22742      0.00000     0.26923    0.00335     0.27258
 =======================================================================
   * Total *    0.00000     14.99428    44.83118    0.17454    60.00000

 Normal termination of Gaussian 16 at Thu Dec 10 18:31:28 2020.
