 Gaussian 16, Revision A.03,

 -----------------------------------------------------------
 # opt freq B3LYP/6-31G(d) empiricaldispersion=gd3bj scf=xqc
 -----------------------------------------------------------

 -------------------------------
 CID_144127149_JID_1615_neutraal
 -------------------------------
 Symbolic Z-matrix:
 Charge =  0 Multiplicity = 1

 SCF Done:  E(RB3LYP) =  -430.009479915     A.U. after   14 cycles
 SCF Done:  E(RB3LYP) =  -430.010006175     A.U. after   12 cycles
 SCF Done:  E(RB3LYP) =  -430.009535876     A.U. after   12 cycles
 SCF Done:  E(RB3LYP) =  -430.009936698     A.U. after   12 cycles
 SCF Done:  E(RB3LYP) =  -430.010829128     A.U. after    9 cycles
 SCF Done:  E(RB3LYP) =  -430.011069987     A.U. after   11 cycles
 SCF Done:  E(RB3LYP) =  -430.011161956     A.U. after   10 cycles
 SCF Done:  E(RB3LYP) =  -430.011178191     A.U. after    9 cycles
 SCF Done:  E(RB3LYP) =  -430.011211732     A.U. after   11 cycles
 SCF Done:  E(RB3LYP) =  -430.011221279     A.U. after    9 cycles
 SCF Done:  E(RB3LYP) =  -430.011224111     A.U. after    9 cycles
 SCF Done:  E(RB3LYP) =  -430.011224214     A.U. after    7 cycles
 SCF Done:  E(RB3LYP) =  -430.011224236     A.U. after    7 cycles
 SCF Done:  E(RB3LYP) =  -430.011224237     A.U. after    7 cycles
 Optimization completed.
    -- Stationary point found.
 Normal termination of Gaussian 16 at Tue Dec  8 19:47:16 2020.

 --------------------------------------------------------------------
 #N Geom=AllCheck Guess=TCheck SCRF=Check GenChk RB3LYP/6-31G(d) Freq
 --------------------------------------------------------------------

 Structure from the checkpoint file:  "JID_1615.chk"
 -------------------------------
 CID_144127149_JID_1615_neutraal
 -------------------------------
 Charge =  0 Multiplicity = 1

 SCF Done:  E(RB3LYP) =  -430.011224237     A.U. after    1 cycles

  Exact polarizability: 221.516  -4.668 104.987   2.923  10.324  79.256
 Approx polarizability: 331.424  -1.280 144.402   8.580  19.247 114.451

                      1                      2                      3
                      A                      A                      A
 Frequencies --     20.5632                38.7215               108.4640
 Red. masses --      3.3233                 2.6102                 2.7790
 Frc consts  --      0.0008                 0.0023                 0.0193
 IR Inten    --      0.0308                 0.0274                 0.1047

                      4                      5                      6
                      A                      A                      A
 Frequencies --    122.8669               130.5162               170.5603
 Red. masses --      3.3139                 2.3757                 2.2529
 Frc consts  --      0.0295                 0.0238                 0.0386
 IR Inten    --      0.0844                 0.0423                 0.3598

                      7                      8                      9
                      A                      A                      A
 Frequencies --    198.5029               206.2976               232.7315
 Red. masses --      2.5130                 1.1714                 1.1532
 Frc consts  --      0.0583                 0.0294                 0.0368
 IR Inten    --      0.4960                 0.0321                 0.1061

                     10                     11                     12
                      A                      A                      A
 Frequencies --    240.7200               257.2356               286.6538
 Red. masses --      2.1598                 1.1713                 2.2328
 Frc consts  --      0.0737                 0.0457                 0.1081
 IR Inten    --      0.0957                 0.0149                 1.6612

                     13                     14                     15
                      A                      A                      A
 Frequencies --    320.6080               345.2723               399.7497
 Red. masses --      2.4045                 2.2068                 2.5991
 Frc consts  --      0.1456                 0.1550                 0.2447
 IR Inten    --      1.6043                 3.6714                 0.1175

                     16                     17                     18
                      A                      A                      A
 Frequencies --    452.3556               462.7895               521.0470
 Red. masses --      2.5069                 2.5268                 3.4261
 Frc consts  --      0.3022                 0.3188                 0.5480
 IR Inten    --      1.5793                 7.0178                 0.1192

                     19                     20                     21
                      A                      A                      A
 Frequencies --    647.3608               680.8809               718.9412
 Red. masses --      2.6929                 1.4725                 3.3341
 Frc consts  --      0.6649                 0.4022                 1.0153
 IR Inten    --      2.1422                13.0764                 0.3415

                     22                     23                     24
                      A                      A                      A
 Frequencies --    764.1294               812.9714               820.3473
 Red. masses --      2.7981                 1.4366                 1.3816
 Frc consts  --      0.9626                 0.5594                 0.5478
 IR Inten    --      1.2828                 7.7671                 9.1430

                     25                     26                     27
                      A                      A                      A
 Frequencies --    861.7040               907.6979               925.6561
 Red. masses --      2.1031                 1.3069                 1.5553
 Frc consts  --      0.9201                 0.6344                 0.7852
 IR Inten    --      5.5828                12.3772                28.8724

                     28                     29                     30
                      A                      A                      A
 Frequencies --    938.1513               943.5690               960.4918
 Red. masses --      1.6941                 1.4008                 1.9128
 Frc consts  --      0.8785                 0.7348                 1.0397
 IR Inten    --     12.5601                 4.6863                 6.7327

                     31                     32                     33
                      A                      A                      A
 Frequencies --    975.4884              1007.4038              1008.7083
 Red. masses --      1.4776                 1.7136                 1.2577
 Frc consts  --      0.8284                 1.0246                 0.7540
 IR Inten    --      0.1339                 0.7271                 0.9620

                     34                     35                     36
                      A                      A                      A
 Frequencies --   1030.3389              1089.7400              1109.7803
 Red. masses --      1.1044                 1.9668                 1.5004
 Frc consts  --      0.6907                 1.3761                 1.0888
 IR Inten    --     13.7915                10.3350                 3.8499

                     37                     38                     39
                      A                      A                      A
 Frequencies --   1128.2329              1141.0398              1193.3951
 Red. masses --      2.3129                 1.7361                 2.3108
 Frc consts  --      1.7347                 1.3318                 1.9390
 IR Inten    --      4.0556                 0.5355                 0.2091

                     40                     41                     42
                      A                      A                      A
 Frequencies --   1200.8630              1269.6620              1294.3007
 Red. masses --      1.8475                 2.0262                 1.1880
 Frc consts  --      1.5697                 1.9245                 1.1726
 IR Inten    --      7.6958                 3.4533                 0.1848

                     43                     44                     45
                      A                      A                      A
 Frequencies --   1336.6872              1345.6539              1355.5100
 Red. masses --      1.2894                 1.3437                 1.3096
 Frc consts  --      1.3574                 1.4336                 1.4178
 IR Inten    --      1.5279                13.1977                 3.6170

                     46                     47                     48
                      A                      A                      A
 Frequencies --   1365.9571              1380.0264              1402.6493
 Red. masses --      1.3049                 1.3742                 1.4840
 Frc consts  --      1.4345                 1.5420                 1.7203
 IR Inten    --      0.8383                 3.0121                 1.8073

                     49                     50                     51
                      A                      A                      A
 Frequencies --   1422.6065              1436.9417              1441.6355
 Red. masses --      1.2226                 1.2256                 1.2387
 Frc consts  --      1.4578                 1.4910                 1.5168
 IR Inten    --      2.9693                 3.8214                 0.6913

                     52                     53                     54
                      A                      A                      A
 Frequencies --   1463.8761              1495.1747              1516.7657
 Red. masses --      1.3333                 1.4417                 1.0429
 Frc consts  --      1.6834                 1.8990                 1.4136
 IR Inten    --      4.9387                 0.1689                 0.2540

                     55                     56                     57
                      A                      A                      A
 Frequencies --   1519.3603              1523.8244              1528.2485
 Red. masses --      1.0499                 1.0416                 1.0543
 Frc consts  --      1.4280                 1.4250                 1.4508
 IR Inten    --      2.5317                 5.7325                 2.8979

                     58                     59                     60
                      A                      A                      A
 Frequencies --   1532.3518              1538.6918              1543.9026
 Red. masses --      1.0551                 1.0622                 1.0802
 Frc consts  --      1.4597                 1.4817                 1.5170
 IR Inten    --      5.5823                 4.1596                10.1527

                     61                     62                     63
                      A                      A                      A
 Frequencies --   1643.0350              1701.8678              1706.3453
 Red. masses --      4.7605                 4.3104                 6.2035
 Frc consts  --      7.5717                 7.3556                10.6419
 IR Inten    --      1.6493                13.4752                 0.3355

                     64                     65                     66
                      A                      A                      A
 Frequencies --   3039.1544              3043.0554              3054.9139
 Red. masses --      1.0350                 1.0356                 1.0565
 Frc consts  --      5.6323                 5.6502                 5.8090
 IR Inten    --     25.3998                48.0962                28.6842

                     67                     68                     69
                      A                      A                      A
 Frequencies --   3055.8654              3084.6030              3102.2999
 Red. masses --      1.0404                 1.1019                 1.0978
 Frc consts  --      5.7240                 6.1774                 6.2249
 IR Inten    --     29.9727                18.3849                32.4323

                     70                     71                     72
                      A                      A                      A
 Frequencies --   3103.2914              3112.1407              3117.1423
 Red. masses --      1.1019                 1.0851                 1.1028
 Frc consts  --      6.2524                 6.1922                 6.3131
 IR Inten    --      2.3144                 8.9583                34.0968

                     73                     74                     75
                      A                      A                      A
 Frequencies --   3120.7139              3121.3786              3137.7517
 Red. masses --      1.1026                 1.1020                 1.0997
 Frc consts  --      6.3268                 6.3258                 6.3789
 IR Inten    --     22.3868                51.7733                46.5801

                     76                     77                     78
                      A                      A                      A
 Frequencies --   3144.5225              3147.2420              3161.6497
 Red. masses --      1.0869                 1.0868                 1.0597
 Frc consts  --      6.3323                 6.3423                 6.2412
 IR Inten    --     22.2373                28.5161                11.8775

                     79                     80                     81
                      A                      A                      A
 Frequencies --   3171.3621              3189.8324              3247.2620
 Red. masses --      1.0895                 1.0873                 1.1154
 Frc consts  --      6.4563                 6.5184                 6.9295
 IR Inten    --      3.3061                27.6854                18.9520

 - Thermochemistry -
 -------------------
 Temperature   298.150 Kelvin.  Pressure   1.00000 Atm.
 Atom     1 has atomic number  6 and mass  12.00000

 Molecular mass:   150.14085 amu.
 Principal axes and moments of inertia in atomic units:
                           1         2         3
     Eigenvalues --   986.041833522.705634022.15397
           X            1.00000   0.00228  -0.00005
           Y           -0.00228   0.99999   0.00443
           Z            0.00006  -0.00443   0.99999
 This molecule is an asymmetric top.
 Rotational symmetry number  1.
 Warning -- assumption of classical behavior for rotation
           may cause significant error
 Rotational temperatures (Kelvin)      0.08784     0.02459     0.02153
 Rotational constants (GHZ):           1.83029     0.51232     0.44870
 Zero-point vibrational energy     689657.9 (Joules/Mol)
                                  164.83220 (Kcal/Mol)
 Warning -- explicit consideration of  18 degrees of freedom as
           vibrations may cause significant error
 Vibrational temperatures:     29.59    55.71   156.06   176.78   187.78
          (Kelvin)            245.40   285.60   296.82   334.85   346.34
                              370.10   412.43   461.28   496.77   575.15
                              650.84   665.85   749.67   931.41   979.64
                             1034.40  1099.41  1169.68  1180.30  1239.80
                             1305.97  1331.81  1349.79  1357.59  1381.93
                             1403.51  1449.43  1451.31  1482.43  1567.89
                             1596.73  1623.28  1641.70  1717.03  1727.77
                             1826.76  1862.21  1923.19  1936.10  1950.28
                             1965.31  1985.55  2018.10  2046.81  2067.44
                             2074.19  2106.19  2151.22  2182.29  2186.02
                             2192.44  2198.81  2204.71  2213.83  2221.33
                             2363.96  2448.61  2455.05  4372.67  4378.28
                             4395.34  4396.71  4438.06  4463.52  4464.94
                             4477.68  4484.87  4490.01  4490.97  4514.52
                             4524.27  4528.18  4548.91  4562.88  4589.46
                             4672.09

 Zero-point correction=                           0.262677 (Hartree/Particle)
 Thermal correction to Energy=                    0.276109
 Thermal correction to Enthalpy=                  0.277053
 Thermal correction to Gibbs Free Energy=         0.222106
 Sum of electronic and zero-point Energies=           -429.748547
 Sum of electronic and thermal Energies=              -429.735115
 Sum of electronic and thermal Enthalpies=            -429.734171
 Sum of electronic and thermal Free Energies=         -429.789118

                     E (Thermal)             CV                S
                      KCal/Mol        Cal/Mol-Kelvin    Cal/Mol-Kelvin
 Total                  173.261             49.287            115.647
 Electronic               0.000              0.000              0.000
 Translational            0.889              2.981             40.929
 Rotational               0.889              2.981             31.014
 Vibrational            171.484             43.325             43.703
 Vibration     1          0.593              1.986              6.579
 Vibration     2          0.594              1.981              5.323
 Vibration     3          0.606              1.942              3.296
 Vibration     4          0.610              1.930              3.055
 Vibration     5          0.612              1.923              2.938
 Vibration     6          0.626              1.879              2.429
 Vibration     7          0.637              1.842              2.147
 Vibration     8          0.641              1.831              2.076
 Vibration     9          0.653              1.791              1.858
 Vibration    10          0.658              1.778              1.798
 Vibration    11          0.667              1.751              1.680
 Vibration    12          0.684              1.698              1.494
 Vibration    13          0.706              1.634              1.307
 Vibration    14          0.724              1.585              1.188
 Vibration    15          0.766              1.471              0.964
 Vibration    16          0.811              1.356              0.789
 Vibration    17          0.820              1.333              0.758
 Vibration    18          0.876              1.203              0.608

 Optimization completed.
    -- Stationary point found.
 Normal termination of Gaussian 16 at Tue Dec  8 19:53:32 2020.

 ----------------------------------------------------------------------
 # B3LYP/6-311++G(d,p) empiricaldispersion=gd3bj scf=xqc pop=npa geom=c
 heck
 ----------------------------------------------------------------------

 ---------------------------------------
 CID_144127149_JID_1615_Energie_neutraal
 ---------------------------------------
 Structure from the checkpoint file:  "JID_1615.chk"
 Charge =  0 Multiplicity = 1

 SCF Done:  E(RB3LYP) =  -430.131747369     A.U. after   14 cycles
 Normal termination of Gaussian 16 at Tue Dec  8 19:56:45 2020.

 ----------------------------------------------------------------------
 # B3LYP/6-311++G(d,p) empiricaldispersion=gd3bj scf=xqc pop=npa geom=c
 heck
 ----------------------------------------------------------------------

 -------------------------------------
 CID_144127149_JID_1615_Energie_kation
 -------------------------------------
 Structure from the checkpoint file:  "JID_1615.chk"
 Charge =  1 Multiplicity = 2

 SCF Done:  E(UB3LYP) =  -429.856608700     A.U. after   19 cycles
 Normal termination of Gaussian 16 at Tue Dec  8 20:03:02 2020.
 Gaussian 16:  ES64L-G16RevA.03 25-Dec-2016

 ----------------------------------------------------------------------
 # B3LYP/6-311++G(d,p) empiricaldispersion=gd3bj scf=xqc pop=npa geom=c
 heck
 ----------------------------------------------------------------------

 ------------------------------------
 CID_144127149_JID_1615_Energie_anion
 ------------------------------------
 Structure from the checkpoint file:  "JID_1615.chk"
 Charge = -1 Multiplicity = 2

                         Standard orientation:
 ---------------------------------------------------------------------
 Center     Atomic      Atomic             Coordinates (Angstroms)
 Number     Number       Type             X           Y           Z
 ---------------------------------------------------------------------
      1          6           0       -0.273243    2.464700   -0.386476
      2          6           0        0.299259    1.565674    0.721692
      3          6           0        0.956177    0.311296    0.184037
      4          6           0        2.313455    0.226260    0.257012
      5          6           0        3.181874   -0.844795   -0.192884
      6          6           0        4.519520   -0.806114   -0.074453
      7          6           0        0.170446   -0.752670   -0.445022
      8          6           0       -1.154258   -1.002199   -0.490219
      9          6           0       -2.349983   -0.312439    0.113438
     10          6           0       -3.416012   -0.065737   -0.968113
     11          6           0       -2.922494   -1.175290    1.254006
     12          1           0        0.529561    2.802722   -1.050502
     13          1           0       -0.760800    3.348960    0.039239
     14          1           0       -1.006003    1.933219   -1.000440
     15          1           0        1.044103    2.135947    1.288121
     16          1           0       -0.488033    1.307030    1.439202
     17          1           0        2.837050    1.062904    0.720001
     18          1           0        2.730125   -1.726737   -0.640399
     19          1           0        5.147790   -1.622078   -0.417625
     20          1           0        5.025653    0.046786    0.372497
     21          1           0        0.774887   -1.485971   -0.972476
     22          1           0       -1.435656   -1.901618   -1.042981
     23          1           0       -2.071234    0.654031    0.534692
     24          1           0       -3.737680   -1.011895   -1.421343
     25          1           0       -4.300877    0.418678   -0.539415
     26          1           0       -3.029379    0.573941   -1.768964
     27          1           0       -2.183047   -1.315393    2.049295
     28          1           0       -3.813480   -0.705191    1.687264
     29          1           0       -3.211420   -2.167449    0.885729
 ---------------------------------------------------------------------

 SCF Done:  E(UB3LYP) =  -430.127944705     A.U. after   31 cycles

 The electronic state is 2-A.
 Alpha  occ. eigenvalues --  -10.05412 -10.04940 -10.04340 -10.03804 -10.03702
 Alpha  occ. eigenvalues --  -10.02352 -10.02295 -10.01905 -10.01853 -10.00823
 Alpha  occ. eigenvalues --  -10.00782  -0.69570  -0.67459  -0.63466  -0.61006
 Alpha  occ. eigenvalues --   -0.57140  -0.56961  -0.49824  -0.48759  -0.44112
 Alpha  occ. eigenvalues --   -0.42330  -0.37731  -0.35045  -0.33233  -0.32397
 Alpha  occ. eigenvalues --   -0.30592  -0.29994  -0.28660  -0.27875  -0.27500
 Alpha  occ. eigenvalues --   -0.27442  -0.25214  -0.23698  -0.23106  -0.22702
 Alpha  occ. eigenvalues --   -0.22276  -0.21411  -0.19560  -0.18236  -0.17462
 Alpha  occ. eigenvalues --   -0.13880  -0.07104   0.05119
 Alpha virt. eigenvalues --    0.07441   0.08610   0.09378   0.09585   0.10182
 Alpha virt. eigenvalues --    0.10932   0.11323   0.12005   0.12343   0.12920
 Alpha virt. eigenvalues --    0.13146   0.13777   0.14281   0.14821   0.15374

  Beta  occ. eigenvalues --  -10.05426 -10.04924 -10.04292 -10.03817 -10.03676
  Beta  occ. eigenvalues --  -10.02338 -10.02280 -10.01655 -10.01640 -10.00566
  Beta  occ. eigenvalues --  -10.00502  -0.69312  -0.67174  -0.63137  -0.60771
  Beta  occ. eigenvalues --   -0.57068  -0.56598  -0.49584  -0.48447  -0.43759
  Beta  occ. eigenvalues --   -0.42008  -0.37535  -0.34943  -0.33109  -0.32286
  Beta  occ. eigenvalues --   -0.30512  -0.29850  -0.28549  -0.27724  -0.27444
  Beta  occ. eigenvalues --   -0.27248  -0.25023  -0.23520  -0.23005  -0.22600
  Beta  occ. eigenvalues --   -0.22208  -0.21286  -0.19413  -0.17491  -0.16952
  Beta  occ. eigenvalues --   -0.12712  -0.05350
  Beta virt. eigenvalues --    0.07554   0.08797   0.09272   0.09405   0.10121
  Beta virt. eigenvalues --    0.10633   0.11027   0.11403   0.12019   0.12372
  Beta virt. eigenvalues --    0.12925   0.13154   0.14007   0.14542   0.15067

 Mulliken charges and spin densities:
               1          2
     1  C   -0.112697  -0.546373
     2  C   -0.364183   0.040216
     3  C    1.204157   0.156075
     4  C   -0.285169  -0.070241
     5  C    0.339530  -0.046713
     6  C   -0.729496   0.317087
     7  C   -0.948142  -0.019982
     8  C   -0.065763  -0.019388
     9  C   -0.203311   0.771295
    10  C   -0.548911  -0.167798
    11  C    0.040916  -0.771797
    12  H    0.117663   0.004904
    13  H   -0.181573   0.288653
    14  H    0.126929   0.001835
    15  H    0.012148   0.148713
    16  H    0.006406   0.122289
    17  H    0.064410  -0.027841
    18  H    0.085078   0.000581
    19  H    0.099342  -0.016625
    20  H    0.065027  -0.011389
    21  H    0.063181  -0.001279
    22  H    0.132235  -0.018047
    23  H   -0.000538   0.175616
    24  H    0.117535   0.003689
    25  H    0.059191   0.074205
    26  H    0.127064   0.000591
    27  H    0.101287   0.037112
    28  H   -0.309442   0.436682
    29  H   -0.012875   0.137932
 Sum of Mulliken charges =  -1.00000   1.00000

 Dipole moment (field-independent basis, Debye):
    X=             -2.2928    Y=             -0.0230    Z=             -1.8554  Tot=              2.9496
 Quadrupole moment (field-independent basis, Debye-Ang):
   XX=           -130.2553   YY=            -92.7489   ZZ=            -90.4436
   XY=              4.3272   XZ=              7.4232   YZ=              1.8160

 Summary of Natural Population Analysis:

                                       Natural Population
                Natural  -----------------------------------------------
    Atom  No    Charge         Core      Valence    Rydberg      Total
 -----------------------------------------------------------------------
      C    1   -0.28335      0.99966     2.27830    0.00539     3.28335
      C    2   -0.19842      0.99961     2.18963    0.00918     3.19842
      C    3    0.00580      0.99948     1.98400    0.01073     2.99420
      C    4   -0.06425      0.99949     2.05574    0.00902     3.06425
      C    5   -0.11025      0.99956     2.10178    0.00891     3.11025
      C    6   -0.13763      0.99960     2.12928    0.00875     3.13763
      C    7   -0.10641      0.99951     2.09833    0.00857     3.10641
      C    8   -0.04925      0.99955     2.03789    0.01181     3.04925
      C    9   -0.14076      0.99959     2.13237    0.00880     3.14076
      C   10   -0.27650      0.99965     2.27112    0.00572     3.27650
      C   11   -0.27629      0.99965     2.27091    0.00573     3.27629
      H   12    0.09510      0.00000     0.40403    0.00086     0.40490
      H   13    0.09144      0.00000     0.40712    0.00144     0.40856
      H   14    0.09769      0.00000     0.40135    0.00096     0.40231
      H   15    0.09417      0.00000     0.40476    0.00107     0.40583
      H   16    0.09561      0.00000     0.40290    0.00149     0.40439
      H   17    0.08001      0.00000     0.41816    0.00183     0.41999
      H   18    0.08580      0.00000     0.41272    0.00147     0.41420
      H   19    0.07969      0.00000     0.41928    0.00103     0.42031
      H   20    0.07805      0.00000     0.42081    0.00114     0.42195
      H   21    0.09019      0.00000     0.40816    0.00165     0.40981
      H   22    0.07963      0.00000     0.41900    0.00137     0.42037
      H   23    0.10007      0.00000     0.39728    0.00265     0.39993
      H   24    0.09138      0.00000     0.40769    0.00093     0.40862
      H   25    0.09312      0.00000     0.40618    0.00070     0.40688
      H   26    0.09785      0.00000     0.40131    0.00084     0.40215
      H   27    0.10131      0.00000     0.39792    0.00077     0.39869
      H   28    0.09403      0.00000     0.40462    0.00135     0.40597
      H   29    0.09218      0.00000     0.40695    0.00087     0.40782
 =======================================================================
   * Total *    0.00000     10.99535    30.88960    0.11504    42.00000

 Normal termination of Gaussian 16 at Tue Dec  8 20:12:31 2020.
