 Gaussian 16, Revision A.03,

 -----------------------------------------------------------
 # opt freq B3LYP/6-31G(d) empiricaldispersion=gd3bj scf=xqc
 -----------------------------------------------------------

 ------------------------------
 CID_145368645_JID_412_neutraal
 ------------------------------
 Symbolic Z-matrix:
 Charge =  0 Multiplicity = 1

 SCF Done:  E(RB3LYP) =  -442.571356616     A.U. after   15 cycles
 SCF Done:  E(RB3LYP) =  -442.574059303     A.U. after   13 cycles
 SCF Done:  E(RB3LYP) =  -442.572046977     A.U. after   15 cycles
 SCF Done:  E(RB3LYP) =  -442.573982843     A.U. after   13 cycles
 SCF Done:  E(RB3LYP) =  -442.574299844     A.U. after   11 cycles
 SCF Done:  E(RB3LYP) =  -442.574339882     A.U. after   13 cycles
 SCF Done:  E(RB3LYP) =  -442.574505680     A.U. after   16 cycles
 SCF Done:  E(RB3LYP) =  -442.574613610     A.U. after   13 cycles
 SCF Done:  E(RB3LYP) =  -442.574911891     A.U. after   12 cycles
 SCF Done:  E(RB3LYP) =  -442.575262081     A.U. after   12 cycles
 SCF Done:  E(RB3LYP) =  -442.576604954     A.U. after    8 cycles
 SCF Done:  E(RB3LYP) =  -442.576604984     A.U. after    8 cycles
 SCF Done:  E(RB3LYP) =  -442.576605014     A.U. after    8 cycles
 SCF Done:  E(RB3LYP) =  -442.576605029     A.U. after    8 cycles
 SCF Done:  E(RB3LYP) =  -442.576605042     A.U. after    8 cycles
 SCF Done:  E(RB3LYP) =  -442.576605057     A.U. after    7 cycles
 Optimization completed.
    -- Stationary point found.
 Normal termination of Gaussian 16 at Tue Dec  8 11:25:22 2020.

 --------------------------------------------------------------------
 #N Geom=AllCheck Guess=TCheck SCRF=Check GenChk RB3LYP/6-31G(d) Freq
 --------------------------------------------------------------------

 Structure from the checkpoint file:  "JID_412.chk"
 ------------------------------
 CID_145368645_JID_412_neutraal
 ------------------------------
 Charge =  0 Multiplicity = 1

 SCF Done:  E(RB3LYP) =  -442.576605057     A.U. after    1 cycles

  Exact polarizability:  81.180   0.654 106.851  -4.411  -0.643  73.598
 Approx polarizability: 110.322   1.480 175.250  -7.618  -6.733 104.595

                      1                      2                      3
                      A                      A                      A
 Frequencies --     25.2375                43.7621                44.4039
 Red. masses --      4.5972                 3.2231                 3.3922
 Frc consts  --      0.0017                 0.0036                 0.0039
 IR Inten    --      1.8824                 3.2563                 3.2638

                      4                      5                      6
                      A                      A                      A
 Frequencies --     66.1217                80.3909                82.7694
 Red. masses --      4.3324                 4.7732                 3.2073
 Frc consts  --      0.0112                 0.0182                 0.0129
 IR Inten    --      5.5999                 0.4182                 2.3547

                      7                      8                      9
                      A                      A                      A
 Frequencies --    112.3425               200.4931               215.7283
 Red. masses --      1.6012                 2.2393                 5.0073
 Frc consts  --      0.0119                 0.0530                 0.1373
 IR Inten    --      0.1438                 2.7041                 4.8863

                     10                     11                     12
                      A                      A                      A
 Frequencies --    264.2968               290.7792               343.9952
 Red. masses --      1.0509                 3.5026                 2.3835
 Frc consts  --      0.0432                 0.1745                 0.1662
 IR Inten    --      0.6030                 6.6916                 0.1621

                     13                     14                     15
                      A                      A                      A
 Frequencies --    367.3912               575.5205               625.0515
 Red. masses --      2.0691                 3.3483                 2.1724
 Frc consts  --      0.1645                 0.6534                 0.5001
 IR Inten    --     10.5721                 1.8695                20.7659

                     16                     17                     18
                      A                      A                      A
 Frequencies --    643.5509               653.7906               694.9405
 Red. masses --      2.2186                 2.8688                 1.2663
 Frc consts  --      0.5414                 0.7225                 0.3603
 IR Inten    --     39.2755                 0.8027                33.7779

                     19                     20                     21
                      A                      A                      A
 Frequencies --    767.1687               876.7622               893.2684
 Red. masses --      1.2694                 1.5043                 3.4374
 Frc consts  --      0.4402                 0.6813                 1.6160
 IR Inten    --      0.8934                 2.8967                13.7508

                     22                     23                     24
                      A                      A                      A
 Frequencies --    913.1386               964.4525               970.0798
 Red. masses --      2.4009                 2.0439                 5.1703
 Frc consts  --      1.1795                 1.1202                 2.8667
 IR Inten    --      4.7641                 0.2220                92.2161

                     25                     26                     27
                      A                      A                      A
 Frequencies --    993.5853              1011.1372              1063.6405
 Red. masses --      1.6671                 1.7594                 2.0312
 Frc consts  --      0.9697                 1.0598                 1.3539
 IR Inten    --      1.7437                 0.3292                 0.7922

                     28                     29                     30
                      A                      A                      A
 Frequencies --   1072.0285              1139.8413              1154.8028
 Red. masses --      1.8365                 1.6054                 1.3044
 Frc consts  --      1.2435                 1.2289                 1.0249
 IR Inten    --     12.1060                 0.8513                12.9624

                     31                     32                     33
                      A                      A                      A
 Frequencies --   1186.5684              1217.4527              1246.0863
 Red. masses --      2.1063                 1.4388                 1.4870
 Frc consts  --      1.7473                 1.2565                 1.3603
 IR Inten    --     20.4526                 0.8912                 8.7273

                     34                     35                     36
                      A                      A                      A
 Frequencies --   1259.6856              1288.1664              1307.4101
 Red. masses --      1.3750                 1.7850                 1.4763
 Frc consts  --      1.2855                 1.7452                 1.4868
 IR Inten    --      7.6721                12.0268                11.1924

                     37                     38                     39
                      A                      A                      A
 Frequencies --   1334.4275              1338.2092              1387.1600
 Red. masses --      1.3015                 1.2879                 1.4624
 Frc consts  --      1.3655                 1.3589                 1.6580
 IR Inten    --      1.3093                 0.7721                 0.7078

                     40                     41                     42
                      A                      A                      A
 Frequencies --   1412.5017              1433.2565              1481.8789
 Red. masses --      1.4736                 1.1820                 1.1898
 Frc consts  --      1.7322                 1.4305                 1.5394
 IR Inten    --     17.7569                 9.3684                 0.1238

                     43                     44                     45
                      A                      A                      A
 Frequencies --   1512.3183              1518.0621              1532.7796
 Red. masses --      1.0810                 1.0488                 1.0951
 Frc consts  --      1.4567                 1.4240                 1.5158
 IR Inten    --      1.0691                 8.3898                 7.1171

                     46                     47                     48
                      A                      A                      A
 Frequencies --   1535.1731              1542.4433              1563.6859
 Red. masses --      1.0620                 1.0761                 1.1058
 Frc consts  --      1.4747                 1.5084                 1.5931
 IR Inten    --      3.7184                 0.2253                 1.1276

                     49                     50                     51
                      A                      A                      A
 Frequencies --   1770.6410              2215.4382              2916.5741
 Red. masses --     10.1455                 5.9840                 1.0730
 Frc consts  --     18.7407                17.3047                 5.3777
 IR Inten    --    157.0708                65.5152                74.3813

                     52                     53                     54
                      A                      A                      A
 Frequencies --   2957.6381              2972.6889              2975.3763
 Red. masses --      1.0591                 1.0709                 1.0839
 Frc consts  --      5.4584                 5.5757                 5.6534
 IR Inten    --     49.0119                86.6803                74.8079

                     55                     56                     57
                      A                      A                      A
 Frequencies --   3067.1959              3070.5716              3073.2108
 Red. masses --      1.0708                 1.0790                 1.0751
 Frc consts  --      5.9352                 5.9942                 5.9826
 IR Inten    --      1.6450                 1.9724                96.7837

                     58                     59                     60
                      A                      A                      A
 Frequencies --   3075.9607              3086.1126              3105.1620
 Red. masses --      1.0771                 1.0699                 1.1069
 Frc consts  --      6.0045                 6.0037                 6.2883
 IR Inten    --     97.0271                24.6606                 1.5641

                     61                     62                     63
                      A                      A                      A
 Frequencies --   3112.1714              3126.1013              3488.6191
 Red. masses --      1.1037                 1.1066                 1.1596
 Frc consts  --      6.2981                 6.3715                 8.3154
 IR Inten    --     34.6663                81.2904                41.3447

 - Thermochemistry -
 -------------------
 Temperature   298.150 Kelvin.  Pressure   1.00000 Atm.
 Atom     1 has atomic number  6 and mass  12.00000

 Molecular mass:   139.09971 amu.
 Principal axes and moments of inertia in atomic units:
                           1         2         3
     Eigenvalues --  1154.019591953.943362602.45733
           X            0.99981   0.01886  -0.00532
           Y           -0.01878   0.99973   0.01343
           Z            0.00557  -0.01333   0.99990
 This molecule is an asymmetric top.
 Rotational symmetry number  1.
 Warning -- assumption of classical behavior for rotation
           may cause significant error
 Rotational temperatures (Kelvin)      0.07505     0.04433     0.03328
 Rotational constants (GHZ):           1.56387     0.92364     0.69348
 Zero-point vibrational energy     515956.6 (Joules/Mol)
                                  123.31658 (Kcal/Mol)
 Warning -- explicit consideration of  14 degrees of freedom as
           vibrations may cause significant error
 Vibrational temperatures:     36.31    62.96    63.89    95.13   115.66
          (Kelvin)            119.09   161.64   288.46   310.38   380.26
                              418.37   494.93   528.59   828.05   899.31
                              925.93   940.66   999.86  1103.78  1261.47
                             1285.21  1313.80  1387.63  1395.73  1429.55
                             1454.80  1530.34  1542.41  1639.98  1661.50
                             1707.21  1751.64  1792.84  1812.41  1853.38
                             1881.07  1919.94  1925.38  1995.81  2032.27
                             2062.14  2132.09  2175.89  2184.15  2205.33
                             2208.77  2219.23  2249.80  2547.56  3187.52
                             4196.30  4255.38  4277.04  4280.90  4413.01
                             4417.87  4421.66  4425.62  4440.23  4467.64
                             4477.72  4497.76  5019.34

 Zero-point correction=                           0.196517 (Hartree/Particle)
 Thermal correction to Energy=                    0.209062
 Thermal correction to Enthalpy=                  0.210007
 Thermal correction to Gibbs Free Energy=         0.155120
 Sum of electronic and zero-point Energies=           -442.380088
 Sum of electronic and thermal Energies=              -442.367543
 Sum of electronic and thermal Enthalpies=            -442.366598
 Sum of electronic and thermal Free Energies=         -442.421485

                     E (Thermal)             CV                S
                      KCal/Mol        Cal/Mol-Kelvin    Cal/Mol-Kelvin
 Total                  131.189             41.760            115.518
 Electronic               0.000              0.000              0.000
 Translational            0.889              2.981             40.702
 Rotational               0.889              2.981             30.152
 Vibrational            129.411             35.799             44.665
 Vibration     1          0.593              1.985              6.172
 Vibration     2          0.595              1.980              5.081
 Vibration     3          0.595              1.980              5.052
 Vibration     4          0.598              1.970              4.266
 Vibration     5          0.600              1.962              3.881
 Vibration     6          0.600              1.961              3.824
 Vibration     7          0.607              1.939              3.228
 Vibration     8          0.638              1.839              2.129
 Vibration     9          0.645              1.817              1.995
 Vibration    10          0.671              1.738              1.633
 Vibration    11          0.687              1.691              1.469
 Vibration    12          0.723              1.587              1.194
 Vibration    13          0.740              1.539              1.091
 Vibration    14          0.932              1.084              0.494

 Optimization completed.
    -- Stationary point found.
 Normal termination of Gaussian 16 at Tue Dec  8 11:30:09 2020.

 ----------------------------------------------------------------------
 # B3LYP/6-311++G(d,p) empiricaldispersion=gd3bj scf=xqc pop=npa geom=c
 heck
 ----------------------------------------------------------------------

 --------------------------------------
 CID_145368645_JID_412_Energie_neutraal
 --------------------------------------
 Structure from the checkpoint file:  "JID_412.chk"
 Charge =  0 Multiplicity = 1

 SCF Done:  E(RB3LYP) =  -442.707365436     A.U. after   14 cycles
 Normal termination of Gaussian 16 at Tue Dec  8 11:34:44 2020.

 ----------------------------------------------------------------------
 # B3LYP/6-311++G(d,p) empiricaldispersion=gd3bj scf=xqc pop=npa geom=c
 heck
 ----------------------------------------------------------------------

 ------------------------------------
 CID_145368645_JID_412_Energie_kation
 ------------------------------------
 Structure from the checkpoint file:  "JID_412.chk"
 Charge =  1 Multiplicity = 2

 SCF Done:  E(UB3LYP) =  -442.417937465     A.U. after   21 cycles
 Normal termination of Gaussian 16 at Tue Dec  8 11:38:35 2020.
 Gaussian 16:  ES64L-G16RevA.03 25-Dec-2016

 ----------------------------------------------------------------------
 # B3LYP/6-311++G(d,p) empiricaldispersion=gd3bj scf=xqc pop=npa geom=c
 heck
 ----------------------------------------------------------------------

 -----------------------------------
 CID_145368645_JID_412_Energie_anion
 -----------------------------------
 Structure from the checkpoint file:  "JID_412.chk"
 Charge = -1 Multiplicity = 2

                         Standard orientation:
 ---------------------------------------------------------------------
 Center     Atomic      Atomic             Coordinates (Angstroms)
 Number     Number       Type             X           Y           Z
 ---------------------------------------------------------------------
      1          6           0       -1.657712   -2.032282   -0.211981
      2          7           0       -1.817155   -0.599133   -0.056212
      3          6           0       -1.254939    0.180307   -1.154603
      4          6           0       -1.272265    1.623600   -0.623737
      5          6           0       -1.202259    1.462534    0.921887
      6          6           0       -1.175887   -0.060386    1.145115
      7          6           0        2.279556    1.770262   -0.071737
      8          6           0        2.427953    0.570327   -0.115846
      9          6           0        2.657704   -0.854541   -0.201686
     10          8           0        2.016379   -1.686276    0.410932
     11          1           0       -2.171033   -2.364932   -1.121509
     12          1           0       -0.597439   -2.342479   -0.275558
     13          1           0       -2.112299   -2.549244    0.640491
     14          1           0       -0.214639   -0.128107   -1.383526
     15          1           0       -1.847129    0.043828   -2.067007
     16          1           0       -2.197422    2.129226   -0.915767
     17          1           0       -0.437566    2.205793   -1.026163
     18          1           0       -2.081892    1.910097    1.393798
     19          1           0       -0.317173    1.939509    1.352871
     20          1           0       -1.721572   -0.376253    2.041772
     21          1           0       -0.134961   -0.419268    1.240247
     22          1           0        2.127948    2.825424   -0.017594
     23          1           0        3.481316   -1.148382   -0.880498
 ---------------------------------------------------------------------

 SCF Done:  E(UB3LYP) =  -442.725745887     A.U. after   27 cycles

 The electronic state is 2-A.
 Alpha  occ. eigenvalues --  -18.89233 -14.17429 -10.06093 -10.06057 -10.05522
 Alpha  occ. eigenvalues --  -10.04252 -10.04207 -10.03504  -9.99263  -9.98330
 Alpha  occ. eigenvalues --   -0.83520  -0.80550  -0.65477  -0.59567  -0.58326
 Alpha  occ. eigenvalues --   -0.54908  -0.46270  -0.45579  -0.44543  -0.36696
 Alpha  occ. eigenvalues --   -0.36077  -0.35611  -0.31842  -0.30495  -0.30002
 Alpha  occ. eigenvalues --   -0.28250  -0.25266  -0.24078  -0.23555  -0.23418
 Alpha  occ. eigenvalues --   -0.22009  -0.21273  -0.21118  -0.19608  -0.11873
 Alpha  occ. eigenvalues --   -0.11132  -0.08948  -0.06435   0.05834
 Alpha virt. eigenvalues --    0.08518   0.09625   0.10294   0.10796   0.12250
 Alpha virt. eigenvalues --    0.12372   0.12771   0.14132   0.14595   0.15300
 Alpha virt. eigenvalues --    0.15708   0.17199   0.17570   0.17834   0.18940

  Beta  occ. eigenvalues --  -18.88396 -14.17428 -10.06092 -10.06055 -10.05523
  Beta  occ. eigenvalues --  -10.04241 -10.04206 -10.03025  -9.99318  -9.97926
  Beta  occ. eigenvalues --   -0.81999  -0.80547  -0.65470  -0.59563  -0.57698
  Beta  occ. eigenvalues --   -0.54899  -0.45569  -0.44563  -0.44540  -0.36689
  Beta  occ. eigenvalues --   -0.36025  -0.35066  -0.31838  -0.30474  -0.29552
  Beta  occ. eigenvalues --   -0.28238  -0.25250  -0.23559  -0.23441  -0.23039
  Beta  occ. eigenvalues --   -0.22001  -0.21155  -0.19602  -0.17486  -0.10908
  Beta  occ. eigenvalues --   -0.09279  -0.08895  -0.05724
  Beta virt. eigenvalues --    0.08445   0.09570   0.10203   0.10742   0.12106
  Beta virt. eigenvalues --    0.12291   0.12707   0.13744   0.14292   0.14925
  Beta virt. eigenvalues --    0.15308   0.15796   0.17279   0.17490   0.17887

 Mulliken charges and spin densities:
               1          2
     1  C   -0.314794  -0.008693
     2  N    0.061572  -0.006939
     3  C   -0.355879   0.055971
     4  C   -0.087067  -0.162998
     5  C   -0.324888   0.041316
     6  C   -0.331430  -0.004212
     7  C   -1.972242   0.527861
     8  C    1.795307  -0.123462
     9  C   -0.433242   0.368351
    10  O   -0.395878   0.258377
    11  H    0.098780   0.001912
    12  H    0.179279   0.005501
    13  H    0.097426   0.001217
    14  H    0.129815   0.000734
    15  H    0.110163   0.012103
    16  H    0.087054   0.012345
    17  H    0.073522   0.057488
    18  H    0.091204   0.009722
    19  H    0.135968  -0.002191
    20  H    0.116638   0.000660
    21  H    0.165495  -0.002673
    22  H    0.078900  -0.011714
    23  H   -0.005701  -0.030676
 Sum of Mulliken charges =  -1.00000   1.00000

 Dipole moment (field-independent basis, Debye):
    X=             -7.1668    Y=              1.6985    Z=             -0.7274  Tot=              7.4012
 Quadrupole moment (field-independent basis, Debye-Ang):
   XX=            -99.4273   YY=            -79.4792   ZZ=            -70.1978
   XY=              2.8505   XZ=             -2.1579   YZ=              2.2685

 Summary of Natural Population Analysis:

                                       Natural Population
                Natural  -----------------------------------------------
    Atom  No    Charge         Core      Valence    Rydberg      Total
 -----------------------------------------------------------------------
      C    1   -0.17931      0.99966     2.17225    0.00739     3.17931
      N    2   -0.28850      0.99972     2.77256    0.01622     3.78850
      C    3   -0.08693      0.99964     2.07830    0.00899     3.08693
      C    4   -0.19414      0.99965     2.18697    0.00753     3.19414
      C    5   -0.19390      0.99965     2.18795    0.00631     3.19390
      C    6   -0.09229      0.99964     2.08341    0.00924     3.09229
      C    7   -0.06764      0.99929     2.06312    0.00523     3.06764
      C    8   -0.05779      0.99933     2.05030    0.00816     3.05779
      C    9    0.22014      0.99965     1.75995    0.02026     2.77986
      O   10   -0.21422      0.99988     3.20594    0.00841     4.21422
      H   11    0.08481      0.00000     0.41428    0.00091     0.41519
      H   12    0.10025      0.00000     0.39794    0.00181     0.39975
      H   13    0.08719      0.00000     0.41194    0.00087     0.41281
      H   14    0.09571      0.00000     0.40254    0.00175     0.40429
      H   15    0.08496      0.00000     0.41379    0.00125     0.41504
      H   16    0.08761      0.00000     0.41076    0.00163     0.41239
      H   17    0.10510      0.00000     0.39333    0.00156     0.39490
      H   18    0.08730      0.00000     0.41144    0.00126     0.41270
      H   19    0.10534      0.00000     0.39380    0.00086     0.39466
      H   20    0.08470      0.00000     0.41416    0.00114     0.41530
      H   21    0.10631      0.00000     0.39133    0.00236     0.39369
      H   22    0.09421      0.00000     0.40454    0.00125     0.40579
      H   23    0.03109      0.00000     0.46512    0.00379     0.46891
 =======================================================================
   * Total *    0.00000      9.99609    27.88572    0.11819    38.00000

 Normal termination of Gaussian 16 at Tue Dec  8 11:43:43 2020.
