 Gaussian 16, Revision A.03,

 -----------------------------------------------------------
 # opt freq B3LYP/6-31G(d) empiricaldispersion=gd3bj scf=xqc
 -----------------------------------------------------------

 ------------------------------
 CID_69539605_JID_9398_neutraal
 ------------------------------
 Symbolic Z-matrix:
 Charge =  0 Multiplicity = 1

 SCF Done:  E(RB3LYP) =  -1219.96955172     A.U. after   15 cycles
 SCF Done:  E(RB3LYP) =  -1219.97591662     A.U. after   13 cycles
 SCF Done:  E(RB3LYP) =  -1219.97662859     A.U. after   13 cycles
 SCF Done:  E(RB3LYP) =  -1219.97812304     A.U. after   15 cycles
 SCF Done:  E(RB3LYP) =  -1219.97985132     A.U. after   15 cycles
 SCF Done:  E(RB3LYP) =  -1219.97818710     A.U. after   16 cycles
 SCF Done:  E(RB3LYP) =  -1219.98027455     A.U. after   14 cycles
 SCF Done:  E(RB3LYP) =  -1219.98132774     A.U. after   15 cycles
 SCF Done:  E(RB3LYP) =  -1219.98144266     A.U. after   11 cycles
 SCF Done:  E(RB3LYP) =  -1219.98148132     A.U. after   11 cycles
 SCF Done:  E(RB3LYP) =  -1219.98148689     A.U. after   10 cycles
 SCF Done:  E(RB3LYP) =  -1219.98148761     A.U. after    8 cycles
 SCF Done:  E(RB3LYP) =  -1219.98148769     A.U. after    8 cycles
 SCF Done:  E(RB3LYP) =  -1219.98148772     A.U. after    7 cycles
 Optimization completed.
    -- Stationary point found.
 Normal termination of Gaussian 16 at Mon Dec 14 18:50:28 2020.

 --------------------------------------------------------------------
 #N Geom=AllCheck Guess=TCheck SCRF=Check GenChk RB3LYP/6-31G(d) Freq
 --------------------------------------------------------------------

 Structure from the checkpoint file:  "JID_9398.chk"
 ------------------------------
 CID_69539605_JID_9398_neutraal
 ------------------------------
 Charge =  0 Multiplicity = 1

 SCF Done:  E(RB3LYP) =  -1219.98148772     A.U. after    1 cycles

  Exact polarizability: 269.941  -2.554 138.073   2.378   8.384 163.845
 Approx polarizability: 346.263  -4.560 219.348  14.453  19.140 302.888

                      1                      2                      3
                      A                      A                      A
 Frequencies --     15.1380                27.2453                42.9865
 Red. masses --      5.7683                 3.9898                 3.9904
 Frc consts  --      0.0008                 0.0017                 0.0043
 IR Inten    --      0.9640                 0.2360                 0.0418

                      4                      5                      6
                      A                      A                      A
 Frequencies --     64.2707                84.1762               107.1809
 Red. masses --      5.1074                 4.7563                 6.6523
 Frc consts  --      0.0124                 0.0199                 0.0450
 IR Inten    --      1.7689                 2.0617                 0.7909

                      7                      8                      9
                      A                      A                      A
 Frequencies --    119.6907               134.5177               182.6520
 Red. masses --      7.0135                 5.3298                 5.7216
 Frc consts  --      0.0592                 0.0568                 0.1125
 IR Inten    --      0.3278                 4.8375                 5.2927

                     10                     11                     12
                      A                      A                      A
 Frequencies --    210.2488               249.4686               270.4715
 Red. masses --      3.8941                 1.6302                 3.5390
 Frc consts  --      0.1014                 0.0598                 0.1525
 IR Inten    --      0.4432                 0.9172                 7.0684

                     13                     14                     15
                      A                      A                      A
 Frequencies --    290.5816               299.4506               321.2096
 Red. masses --      5.7470                 4.5396                 5.3522
 Frc consts  --      0.2859                 0.2398                 0.3254
 IR Inten    --      5.8541                 4.3843                 0.3225

                     16                     17                     18
                      A                      A                      A
 Frequencies --    349.0805               354.6680               385.6333
 Red. masses --      1.0537                 7.2239                 3.9336
 Frc consts  --      0.0757                 0.5354                 0.3447
 IR Inten    --     19.3213                16.4704                 6.1251

                     19                     20                     21
                      A                      A                      A
 Frequencies --    414.8138               421.0910               431.5241
 Red. masses --      6.5228                 3.2350                 3.2845
 Frc consts  --      0.6613                 0.3380                 0.3604
 IR Inten    --     15.5032                 0.4517                 0.7765

                     22                     23                     24
                      A                      A                      A
 Frequencies --    468.4429               499.5489               506.6813
 Red. masses --      5.5506                 1.8563                 3.9470
 Frc consts  --      0.7176                 0.2729                 0.5970
 IR Inten    --      2.5721               220.3674                 2.9055

                     25                     26                     27
                      A                      A                      A
 Frequencies --    540.5615               547.3857               620.8192
 Red. masses --      2.5490                 1.9059                 6.2185
 Frc consts  --      0.4388                 0.3365                 1.4121
 IR Inten    --     97.1969               298.3964                 7.8158

                     28                     29                     30
                      A                      A                      A
 Frequencies --    643.2775               654.4507               657.5509
 Red. masses --      6.7533                 6.9475                 6.4189
 Frc consts  --      1.6465                 1.7532                 1.6352
 IR Inten    --      1.3713                 2.4791                 1.0239

                     31                     32                     33
                      A                      A                      A
 Frequencies --    700.9534               720.5795               729.7924
 Red. masses --      3.7784                 5.8043                 6.2507
 Frc consts  --      1.0938                 1.7757                 1.9614
 IR Inten    --     13.4493                65.5695                77.4485

                     34                     35                     36
                      A                      A                      A
 Frequencies --    768.4107               813.8177               821.1711
 Red. masses --      5.9885                 6.7318                 1.3316
 Frc consts  --      2.0833                 2.6269                 0.5290
 IR Inten    --     32.0409                 2.9293                 8.0466

                     37                     38                     39
                      A                      A                      A
 Frequencies --    825.1269               826.8562               847.2081
 Red. masses --      5.3614                 1.2658                 1.8750
 Frc consts  --      2.1506                 0.5099                 0.7929
 IR Inten    --     14.8155                 0.7180                32.9841

                     40                     41                     42
                      A                      A                      A
 Frequencies --    851.3361               863.2926               953.8175
 Red. masses --      1.5724                 6.3626                 1.2980
 Frc consts  --      0.6714                 2.7938                 0.6958
 IR Inten    --     43.7577                13.6172                 0.2764

                     43                     44                     45
                      A                      A                      A
 Frequencies --    964.4900               980.6345               982.4167
 Red. masses --      1.3100                 1.3025                 1.3025
 Frc consts  --      0.7180                 0.7380                 0.7407
 IR Inten    --      0.0330                 0.4037                 1.0608

                     46                     47                     48
                      A                      A                      A
 Frequencies --   1028.6956              1030.3382              1072.4088
 Red. masses --      3.4125                 3.3522                 3.2519
 Frc consts  --      2.1276                 2.0967                 2.2035
 IR Inten    --     71.6312                 0.4464               313.0460

                     49                     50                     51
                      A                      A                      A
 Frequencies --   1077.3040              1096.2011              1116.0450
 Red. masses --      6.8902                 1.6301                 3.1034
 Frc consts  --      4.7115                 1.1541                 2.2775
 IR Inten    --     79.4337                76.3258                27.1836

                     52                     53                     54
                      A                      A                      A
 Frequencies --   1142.2605              1164.1769              1185.6521
 Red. masses --      1.3423                 1.1882                 1.2710
 Frc consts  --      1.0319                 0.9488                 1.0527
 IR Inten    --     10.1259                 5.3221                 0.6764

                     55                     56                     57
                      A                      A                      A
 Frequencies --   1205.6937              1211.6797              1219.6686
 Red. masses --      1.1815                 1.1725                 1.3664
 Frc consts  --      1.0119                 1.0142                 1.1976
 IR Inten    --    269.3054                24.3815                 7.7106

                     58                     59                     60
                      A                      A                      A
 Frequencies --   1284.5495              1307.8082              1335.3842
 Red. masses --      4.0892                 4.5034                 1.3540
 Frc consts  --      3.9755                 4.5382                 1.4226
 IR Inten    --    512.0249               205.1448                 6.5927

                     61                     62                     63
                      A                      A                      A
 Frequencies --   1341.2160              1347.7657              1358.4725
 Red. masses --      3.0372                 1.4685                 5.9111
 Frc consts  --      3.2190                 1.5716                 6.4272
 IR Inten    --     82.9199                22.7644                69.5058

                     64                     65                     66
                      A                      A                      A
 Frequencies --   1387.8241              1458.8342              1489.6385
 Red. masses --      4.8632                 3.0615                 3.1058
 Frc consts  --      5.5187                 3.8389                 4.0605
 IR Inten    --      5.1624                 4.5863                14.6784

                     67                     68                     69
                      A                      A                      A
 Frequencies --   1498.8217              1522.2179              1533.7814
 Red. masses --      1.2138                 1.0475                 1.0954
 Frc consts  --      1.6065                 1.4300                 1.5182
 IR Inten    --     26.6265                 5.9899                61.0747

                     70                     71                     72
                      A                      A                      A
 Frequencies --   1546.1451              1567.0093              1617.2346
 Red. masses --      2.1244                 2.7024                 6.6205
 Frc consts  --      2.9922                 3.9097                10.2020
 IR Inten    --     46.9115                24.2862                16.2279

                     73                     74                     75
                      A                      A                      A
 Frequencies --   1629.2426              1654.8630              1670.4943
 Red. masses --      6.3883                 5.5016                 3.3891
 Frc consts  --      9.9909                 8.8769                 5.5722
 IR Inten    --     11.3754               189.5319               145.1613

                     76                     77                     78
                      A                      A                      A
 Frequencies --   1695.2449              1796.5890              3032.0844
 Red. masses --      1.3526                12.8334                 1.0344
 Frc consts  --      2.2902                24.4057                 5.6032
 IR Inten    --    231.4441               186.9690                58.0122

                     79                     80                     81
                      A                      A                      A
 Frequencies --   3093.5166              3164.9415              3181.5799
 Red. masses --      1.1069                 1.1003                 1.0896
 Frc consts  --      6.2413                 6.4938                 6.4986
 IR Inten    --     38.6693                25.7955                17.2328

                     82                     83                     84
                      A                      A                      A
 Frequencies --   3182.4522              3209.2823              3215.8202
 Red. masses --      1.0894                 1.0892                 1.0900
 Frc consts  --      6.5009                 6.6095                 6.6413
 IR Inten    --     24.2634                 3.9146                 3.9862

                     85                     86                     87
                      A                      A                      A
 Frequencies --   3226.6366              3232.7434              3236.0511
 Red. masses --      1.0922                 1.0923                 1.0922
 Frc consts  --      6.6999                 6.7255                 6.7391
 IR Inten    --      3.8723                12.3878                 2.2193

                     88                     89                     90
                      A                      A                      A
 Frequencies --   3245.0256              3567.7610              3669.9490
 Red. masses --      1.0937                 1.0473                 1.0997
 Frc consts  --      6.7857                 7.8543                 8.7262
 IR Inten    --      2.7711                35.2306                13.2722

 - Thermochemistry -
 -------------------
 Temperature   298.150 Kelvin.  Pressure   1.00000 Atm.
 Atom     1 has atomic number  6 and mass  12.00000

 Molecular mass:   275.06162 amu.
 Principal axes and moments of inertia in atomic units:
                           1         2         3
     Eigenvalues --  2595.91164********************
           X            0.99999   0.00189  -0.00306
           Y           -0.00194   0.99987  -0.01603
           Z            0.00303   0.01604   0.99987
 This molecule is an asymmetric top.
 Rotational symmetry number  1.
 Warning -- assumption of classical behavior for rotation
           may cause significant error
 Rotational temperatures (Kelvin)      0.03337     0.00653     0.00615
 Rotational constants (GHZ):           0.69522     0.13614     0.12817
 Zero-point vibrational energy     648470.6 (Joules/Mol)
                                  154.98820 (Kcal/Mol)
 Warning -- explicit consideration of  26 degrees of freedom as
           vibrations may cause significant error
 Vibrational temperatures:     21.78    39.20    61.85    92.47   121.11
          (Kelvin)            154.21   172.21   193.54   262.80   302.50
                              358.93   389.15   418.08   430.84   462.15
                              502.25   510.29   554.84   596.82   605.86
                              620.87   673.98   718.74   729.00   777.75
                              787.57   893.22   925.53   941.61   946.07
                             1008.52  1036.75  1050.01  1105.57  1170.90
                             1181.48  1187.17  1189.66  1218.94  1224.88
                             1242.09  1372.33  1387.69  1410.91  1413.48
                             1480.06  1482.43  1542.96  1550.00  1577.19
                             1605.74  1643.46  1674.99  1705.89  1734.72
                             1743.34  1754.83  1848.18  1881.64  1921.32
                             1929.71  1939.13  1954.54  1996.77  2098.94
                             2143.26  2156.47  2190.13  2206.77  2224.56
                             2254.58  2326.84  2344.12  2380.98  2403.47
                             2439.08  2584.89  4362.49  4450.88  4553.64
                             4577.58  4578.84  4617.44  4626.85  4642.41
                             4651.20  4655.96  4668.87  5133.21  5280.24

 Zero-point correction=                           0.246989 (Hartree/Particle)
 Thermal correction to Energy=                    0.264431
 Thermal correction to Enthalpy=                  0.265375
 Thermal correction to Gibbs Free Energy=         0.199195
 Sum of electronic and zero-point Energies=          -1219.734498
 Sum of electronic and thermal Energies=             -1219.717057
 Sum of electronic and thermal Enthalpies=           -1219.716113
 Sum of electronic and thermal Free Energies=        -1219.782292

                     E (Thermal)             CV                S
                      KCal/Mol        Cal/Mol-Kelvin    Cal/Mol-Kelvin
 Total                  165.933             66.287            139.287
 Electronic               0.000              0.000              0.000
 Translational            0.889              2.981             42.734
 Rotational               0.889              2.981             34.537
 Vibrational            164.155             60.325             62.015
 Vibration     1          0.593              1.986              7.187
 Vibration     2          0.593              1.984              6.021
 Vibration     3          0.595              1.980              5.116
 Vibration     4          0.597              1.971              4.322
 Vibration     5          0.601              1.960              3.791
 Vibration     6          0.606              1.943              3.319
 Vibration     7          0.609              1.933              3.105
 Vibration     8          0.613              1.919              2.880
 Vibration     9          0.630              1.863              2.301
 Vibration    10          0.642              1.825              2.042
 Vibration    11          0.662              1.764              1.734
 Vibration    12          0.674              1.728              1.593
 Vibration    13          0.687              1.691              1.471
 Vibration    14          0.692              1.675              1.420
 Vibration    15          0.707              1.633              1.304
 Vibration    16          0.726              1.577              1.170
 Vibration    17          0.731              1.566              1.145
 Vibration    18          0.754              1.501              1.017
 Vibration    19          0.778              1.438              0.910
 Vibration    20          0.784              1.424              0.888
 Vibration    21          0.793              1.402              0.854
 Vibration    22          0.826              1.320              0.742
 Vibration    23          0.855              1.251              0.659
 Vibration    24          0.862              1.235              0.642
 Vibration    25          0.896              1.160              0.564
 Vibration    26          0.903              1.145              0.550

                           ! Non-Optimized Parameters !
 Normal termination of Gaussian 16 at Mon Dec 14 19:03:02 2020.

 ----------------------------------------------------------------------
 # B3LYP/6-311++G(d,p) empiricaldispersion=gd3bj scf=xqc pop=npa geom=c
 heck
 ----------------------------------------------------------------------

 --------------------------------------
 CID_69539605_JID_9398_Energie_neutraal
 --------------------------------------
 Structure from the checkpoint file:  "JID_9398.chk"
 Charge =  0 Multiplicity = 1

 SCF Done:  E(RB3LYP) =  -1220.23830723     A.U. after   17 cycles
 Normal termination of Gaussian 16 at Mon Dec 14 19:09:26 2020.

 ----------------------------------------------------------------------
 # B3LYP/6-311++G(d,p) empiricaldispersion=gd3bj scf=xqc pop=npa geom=c
 heck
 ----------------------------------------------------------------------

 ------------------------------------
 CID_69539605_JID_9398_Energie_kation
 ------------------------------------
 Structure from the checkpoint file:  "JID_9398.chk"
 Charge =  1 Multiplicity = 2

 SCF Done:  E(UB3LYP) =  -1219.95840300     A.U. after   28 cycles
 Normal termination of Gaussian 16 at Mon Dec 14 19:24:33 2020.
 Gaussian 16:  ES64L-G16RevA.03 25-Dec-2016

 ----------------------------------------------------------------------
 # B3LYP/6-311++G(d,p) empiricaldispersion=gd3bj scf=xqc pop=npa geom=c
 heck
 ----------------------------------------------------------------------

 -----------------------------------
 CID_69539605_JID_9398_Energie_anion
 -----------------------------------
 Structure from the checkpoint file:  "JID_9398.chk"
 Charge = -1 Multiplicity = 2

                         Standard orientation:
 ---------------------------------------------------------------------
 Center     Atomic      Atomic             Coordinates (Angstroms)
 Number     Number       Type             X           Y           Z
 ---------------------------------------------------------------------
      1          6           0        5.803217    2.204356   -0.589532
      2          8           0        4.992442    1.741710    0.480358
      3          6           0        4.034939    0.817179    0.207744
      4          6           0        3.263659    0.401886    1.306476
      5          6           0        2.264588   -0.541885    1.139401
      6          6           0        2.007942   -1.083954   -0.134662
      7          6           0        2.775966   -0.660004   -1.225157
      8          6           0        3.791071    0.281730   -1.063844
      9         16           0        0.780246   -2.338218   -0.355271
     10          8           0       -0.667324   -1.404830   -0.567554
     11          6           0       -1.276195   -0.916578    0.562726
     12          8           0       -0.818029   -1.020900    1.681110
     13          6           0       -2.545515   -0.235893    0.231287
     14          6           0       -3.275217    0.346845    1.278686
     15          6           0       -4.471119    1.000638    1.033863
     16          6           0       -4.977595    1.091817   -0.277183
     17          6           0       -4.245335    0.507089   -1.327901
     18          6           0       -3.048975   -0.146417   -1.075500
     19          7           0       -6.199445    1.700054   -0.520921
     20          1           0        6.490735    2.928948   -0.150978
     21          1           0        5.201165    2.695215   -1.364686
     22          1           0        6.376256    1.384611   -1.041127
     23          1           0        3.474490    0.836207    2.278220
     24          1           0        1.653686   -0.857517    1.976690
     25          1           0        2.577502   -1.075371   -2.208035
     26          1           0        4.374801    0.590396   -1.922616
     27          1           0       -2.880020    0.275486    2.286310
     28          1           0       -5.029192    1.444587    1.854557
     29          1           0       -4.628695    0.567273   -2.343520
     30          1           0       -2.492516   -0.591422   -1.891987
     31          1           0       -6.514149    2.362877    0.175058
     32          1           0       -6.357173    2.021122   -1.466835
 ---------------------------------------------------------------------

 SCF Done:  E(UB3LYP) =  -1220.24186477     A.U. after   33 cycles
 SCF Done:  E(UB3LYP) =  -1220.24186477     a.u. after    1 cycles

 The electronic state is 2-A.
 Alpha  occ. eigenvalues --  -88.73823 -19.06468 -19.02636 -18.97802 -14.22361
 Alpha  occ. eigenvalues --  -10.16597 -10.14862 -10.12746 -10.11402 -10.07424
 Alpha  occ. eigenvalues --  -10.07155 -10.07035 -10.06962 -10.06893 -10.06784
 Alpha  occ. eigenvalues --  -10.06738 -10.06486 -10.06300 -10.06282  -7.82068
 Alpha  occ. eigenvalues --   -5.78748  -5.78078  -5.77264  -0.98244  -0.95966
 Alpha  occ. eigenvalues --   -0.88141  -0.82672  -0.75158  -0.74026  -0.67466
 Alpha  occ. eigenvalues --   -0.64991  -0.64624  -0.64048  -0.62168  -0.57136
 Alpha  occ. eigenvalues --   -0.51972  -0.51409  -0.50937  -0.48378  -0.44597
 Alpha  occ. eigenvalues --   -0.44091  -0.42313  -0.41612  -0.39259  -0.39112
 Alpha  occ. eigenvalues --   -0.38727  -0.35644  -0.34953  -0.34041  -0.33762
 Alpha  occ. eigenvalues --   -0.32893  -0.32282  -0.32085  -0.31983  -0.30833
 Alpha  occ. eigenvalues --   -0.29199  -0.28885  -0.28024  -0.27000  -0.25523
 Alpha  occ. eigenvalues --   -0.24349  -0.23935  -0.23289  -0.22201  -0.20952
 Alpha  occ. eigenvalues --   -0.17679  -0.15715  -0.15503  -0.15245  -0.12938
 Alpha  occ. eigenvalues --   -0.11203  -0.10184   0.03683
 Alpha virt. eigenvalues --    0.04987   0.05625   0.06770   0.07764   0.08202
 Alpha virt. eigenvalues --    0.08899   0.08933   0.08989   0.09467   0.09819
 Alpha virt. eigenvalues --    0.10494   0.11245   0.11564   0.11799   0.12132

  Beta  occ. eigenvalues --  -88.73726 -19.06421 -19.02318 -18.97746 -14.22294
  Beta  occ. eigenvalues --  -10.16518 -10.14862 -10.12539 -10.11289 -10.07388
  Beta  occ. eigenvalues --  -10.07208 -10.06992 -10.06919 -10.06804 -10.06773
  Beta  occ. eigenvalues --  -10.06759 -10.06535 -10.06250 -10.06208  -7.81972
  Beta  occ. eigenvalues --   -5.78475  -5.78016  -5.77202  -0.98119  -0.95595
  Beta  occ. eigenvalues --   -0.87756  -0.82549  -0.74985  -0.73934  -0.67210
  Beta  occ. eigenvalues --   -0.64832  -0.64561  -0.63871  -0.61996  -0.56764
  Beta  occ. eigenvalues --   -0.51702  -0.51306  -0.50853  -0.48177  -0.44428
  Beta  occ. eigenvalues --   -0.43964  -0.42130  -0.41531  -0.39198  -0.38963
  Beta  occ. eigenvalues --   -0.38512  -0.35463  -0.34844  -0.33975  -0.33572
  Beta  occ. eigenvalues --   -0.32730  -0.32158  -0.32047  -0.31837  -0.30626
  Beta  occ. eigenvalues --   -0.28997  -0.28478  -0.27764  -0.26935  -0.25105
  Beta  occ. eigenvalues --   -0.23930  -0.23864  -0.23226  -0.21680  -0.20688
  Beta  occ. eigenvalues --   -0.17411  -0.15462  -0.15337  -0.14962  -0.12372
  Beta  occ. eigenvalues --   -0.10902  -0.09866
  Beta virt. eigenvalues --    0.05576   0.06271   0.07451   0.07929   0.08107
  Beta virt. eigenvalues --    0.08259   0.08957   0.09024   0.09147   0.09521
  Beta virt. eigenvalues --    0.09836   0.10502   0.11366   0.11740   0.11991

 Mulliken charges and spin densities:
               1          2
     1  C   -0.293462  -0.023874
     2  O   -0.159187   0.007817
     3  C   -0.528124   0.085994
     4  C   -0.522730  -0.007925
     5  C   -0.285291   0.045694
     6  C    0.849984  -0.035189
     7  C   -0.583953   0.127996
     8  C    0.353804  -0.060892
     9  S   -0.392576   0.328539
    10  O    0.057062   0.046691
    11  C   -0.757434   0.118878
    12  O   -0.255932   0.022024
    13  C    1.262472  -0.264293
    14  C    0.115484  -0.096402
    15  C   -0.230747  -0.197541
    16  C   -0.292574  -0.107597
    17  C    0.170952  -0.066483
    18  C   -0.573087   0.170195
    19  N   -0.225264  -0.064538
    20  H    0.150608   0.003442
    21  H    0.146496  -0.000222
    22  H    0.123674   0.018113
    23  H    0.158600   0.005362
    24  H    0.231362  -0.001550
    25  H    0.156852   0.001417
    26  H    0.131618   0.008235
    27  H    0.168840   0.002404
    28  H    0.071760   0.059794
    29  H    0.047013   0.093854
    30  H    0.196619  -0.001556
    31  H   -0.143222   0.383713
    32  H   -0.149619   0.397900
 Sum of Mulliken charges =  -1.00000   1.00000

 Dipole moment (field-independent basis, Debye):
    X=              7.0625    Y=              1.7828    Z=             -1.3109  Tot=              7.4011
 Quadrupole moment (field-independent basis, Debye-Ang):
   XX=           -198.6361   YY=           -147.2058   ZZ=           -130.0679
   XY=             22.1272   XZ=            -11.6809   YZ=              1.6676

 Summary of Natural Population Analysis:

                                       Natural Population
                Natural  -----------------------------------------------
    Atom  No    Charge         Core      Valence    Rydberg      Total
 -----------------------------------------------------------------------
      C    1   -0.10083      0.99961     2.09325    0.00797     3.10083
      O    2   -0.26999      0.99985     3.26105    0.00909     4.26999
      C    3    0.19608      0.99940     1.79214    0.01239     2.80392
      C    4   -0.13988      0.99953     2.13179    0.00856     3.13988
      C    5   -0.06070      0.99951     2.05079    0.01040     3.06070
      C    6   -0.12156      0.99941     2.10994    0.01221     3.12156
      C    7   -0.05789      0.99951     2.04763    0.01076     3.05789
      C    8   -0.16999      0.99953     2.16222    0.00824     3.16999
      S    9    0.26318      4.99943     2.71519    0.02220     7.73682
      O   10   -0.31473      0.99989     3.30542    0.00942     4.31473
      C   11    0.41009      0.99962     1.56681    0.02348     2.58991
      O   12   -0.30892      0.99987     3.30381    0.00524     4.30892
      C   13   -0.09737      0.99944     2.08699    0.01093     3.09737
      C   14   -0.06019      0.99955     2.05140    0.00924     3.06019
      C   15   -0.14027      0.99953     2.13109    0.00965     3.14027
      C   16    0.10914      0.99950     1.88037    0.01100     2.89086
      C   17   -0.14033      0.99953     2.13087    0.00993     3.14033
      C   18   -0.06139      0.99955     2.05279    0.00905     3.06139
      N   19   -0.39150      0.99971     2.88171    0.01008     3.89150
      H   20    0.08906      0.00000     0.41019    0.00075     0.41094
      H   21    0.08251      0.00000     0.41602    0.00147     0.41749
      H   22    0.08178      0.00000     0.41674    0.00148     0.41822
      H   23    0.10162      0.00000     0.39698    0.00139     0.39838
      H   24    0.11526      0.00000     0.38374    0.00100     0.38474
      H   25    0.09985      0.00000     0.39858    0.00158     0.40015
      H   26    0.09867      0.00000     0.40038    0.00095     0.40133
      H   27    0.10903      0.00000     0.39008    0.00089     0.39097
      H   28    0.09688      0.00000     0.40227    0.00085     0.40312
      H   29    0.09718      0.00000     0.40195    0.00087     0.40282
      H   30    0.11038      0.00000     0.38876    0.00085     0.38962
      H   31    0.18722      0.00000     0.30970    0.00309     0.31278
      H   32    0.18761      0.00000     0.30904    0.00334     0.31239
 =======================================================================
   * Total *    0.00000     22.99196    48.77969    0.22835    72.00000

 Normal termination of Gaussian 16 at Mon Dec 14 19:42:26 2020.
