 Gaussian 16, Revision A.03,

 -----------------------------------------------------------
 # opt freq B3LYP/6-31G(d) empiricaldispersion=gd3bj scf=xqc
 -----------------------------------------------------------

 -------------------------------
 CID_149643593_JID_4274_neutraal
 -------------------------------
 Symbolic Z-matrix:
 Charge =  0 Multiplicity = 1

 SCF Done:  E(RB3LYP) =  -653.304507066     A.U. after   15 cycles
 SCF Done:  E(RB3LYP) =  -653.309378055     A.U. after   12 cycles
 SCF Done:  E(RB3LYP) =  -653.309415486     A.U. after   12 cycles
 SCF Done:  E(RB3LYP) =  -653.309654727     A.U. after   12 cycles
 SCF Done:  E(RB3LYP) =  -653.310440942     A.U. after   12 cycles
 SCF Done:  E(RB3LYP) =  -653.310494084     A.U. after   13 cycles
 SCF Done:  E(RB3LYP) =  -653.310554608     A.U. after   13 cycles
 SCF Done:  E(RB3LYP) =  -653.310719999     A.U. after   11 cycles
 SCF Done:  E(RB3LYP) =  -653.310805027     A.U. after   13 cycles
 SCF Done:  E(RB3LYP) =  -653.310860017     A.U. after   13 cycles
 SCF Done:  E(RB3LYP) =  -653.310889138     A.U. after   11 cycles
 SCF Done:  E(RB3LYP) =  -653.310923559     A.U. after   12 cycles
 SCF Done:  E(RB3LYP) =  -653.310938315     A.U. after   10 cycles
 SCF Done:  E(RB3LYP) =  -653.310939416     A.U. after   10 cycles
 SCF Done:  E(RB3LYP) =  -653.310939594     A.U. after    9 cycles
 SCF Done:  E(RB3LYP) =  -653.310939628     A.U. after    8 cycles
 Optimization completed.
    -- Stationary point found.
 Normal termination of Gaussian 16 at Thu Dec 10 09:24:14 2020.

 --------------------------------------------------------------------
 #N Geom=AllCheck Guess=TCheck SCRF=Check GenChk RB3LYP/6-31G(d) Freq
 --------------------------------------------------------------------

 Structure from the checkpoint file:  "JID_4274.chk"
 -------------------------------
 CID_149643593_JID_4274_neutraal
 -------------------------------
 Charge =  0 Multiplicity = 1

 SCF Done:  E(RB3LYP) =  -653.310939628     A.U. after    1 cycles

  Exact polarizability: 155.204   6.065 120.128  -4.278   3.925  80.658
 Approx polarizability: 207.573  19.394 203.541  -6.094   4.251 129.075

                      1                      2                      3
                      A                      A                      A
 Frequencies --     32.8228                35.6299                52.5917
 Red. masses --      3.8160                 5.1982                 4.2639
 Frc consts  --      0.0024                 0.0039                 0.0069
 IR Inten    --      1.1399                 2.6761                 3.3210

                      4                      5                      6
                      A                      A                      A
 Frequencies --    108.1104               135.3389               175.4648
 Red. masses --      4.6095                 4.0422                 4.9075
 Frc consts  --      0.0317                 0.0436                 0.0890
 IR Inten    --      0.9699                 0.4352                 1.6907

                      7                      8                      9
                      A                      A                      A
 Frequencies --    211.5321               218.0798               242.9195
 Red. masses --      1.1143                 3.9696                 2.2599
 Frc consts  --      0.0294                 0.1112                 0.0786
 IR Inten    --      0.6153                 5.9252                 0.5641

                     10                     11                     12
                      A                      A                      A
 Frequencies --    258.0619               274.9345               311.0033
 Red. masses --      1.3509                 1.0872                 3.0875
 Frc consts  --      0.0530                 0.0484                 0.1759
 IR Inten    --      0.0946                 0.1244                 1.2294

                     13                     14                     15
                      A                      A                      A
 Frequencies --    325.9200               355.5002               422.1230
 Red. masses --      4.1174                 2.5330                 2.6981
 Frc consts  --      0.2577                 0.1886                 0.2833
 IR Inten    --      7.0629                 1.0069                 0.3648

                     16                     17                     18
                      A                      A                      A
 Frequencies --    447.9777               455.5321               464.0881
 Red. masses --      2.8159                 2.9006                 3.5155
 Frc consts  --      0.3330                 0.3546                 0.4461
 IR Inten    --     11.1025                 1.0749                 1.1601

                     19                     20                     21
                      A                      A                      A
 Frequencies --    491.0805               505.8164               571.6839
 Red. masses --      4.7122                 3.6472                 4.8899
 Frc consts  --      0.6695                 0.5498                 0.9416
 IR Inten    --      9.9961                 6.8408                 0.5237

                     22                     23                     24
                      A                      A                      A
 Frequencies --    608.0331               689.8225               723.9014
 Red. masses --      4.3615                 4.4639                 1.8081
 Frc consts  --      0.9500                 1.2515                 0.5583
 IR Inten    --      9.0499                 2.3621                37.9153

                     25                     26                     27
                      A                      A                      A
 Frequencies --    752.7216               790.9021               809.9050
 Red. masses --      4.1281                 4.1210                 1.9817
 Frc consts  --      1.3781                 1.5188                 0.7659
 IR Inten    --      9.9618                25.3093                12.2660

                     28                     29                     30
                      A                      A                      A
 Frequencies --    856.3486               880.1296               928.2323
 Red. masses --      2.9009                 4.1486                 4.3277
 Frc consts  --      1.2534                 1.8934                 2.1969
 IR Inten    --     32.6893                 3.6634                 3.0835

                     31                     32                     33
                      A                      A                      A
 Frequencies --    940.7387               942.2957               982.8536
 Red. masses --      1.6279                 1.6304                 1.3301
 Frc consts  --      0.8488                 0.8529                 0.7570
 IR Inten    --      0.1235                 0.1187                 1.5610

                     34                     35                     36
                      A                      A                      A
 Frequencies --    985.6323               987.3247              1019.3881
 Red. masses --      1.2003                 2.4812                 1.3646
 Frc consts  --      0.6870                 1.4251                 0.8355
 IR Inten    --      0.1961                 5.0545                 1.3936

                     37                     38                     39
                      A                      A                      A
 Frequencies --   1022.0779              1067.6448              1075.9438
 Red. masses --      2.8789                 1.4098                 1.4967
 Frc consts  --      1.7719                 0.9468                 1.0209
 IR Inten    --      9.6343                 0.4107                 0.2494

                     40                     41                     42
                      A                      A                      A
 Frequencies --   1086.5184              1159.6139              1173.4432
 Red. masses --      1.9784                 1.7489                 1.4956
 Frc consts  --      1.3761                 1.3856                 1.2133
 IR Inten    --      5.6549               129.0481                62.0609

                     43                     44                     45
                      A                      A                      A
 Frequencies --   1202.1727              1225.0937              1240.4465
 Red. masses --      1.4156                 1.7272                 1.7758
 Frc consts  --      1.2054                 1.5273                 1.6099
 IR Inten    --    215.4220                80.9990                 2.9511

                     46                     47                     48
                      A                      A                      A
 Frequencies --   1277.9016              1289.9073              1301.5690
 Red. masses --      1.8836                 2.6851                 2.7470
 Frc consts  --      1.8123                 2.6322                 2.7419
 IR Inten    --     87.0546                10.8729                25.6130

                     49                     50                     51
                      A                      A                      A
 Frequencies --   1339.1779              1414.0448              1424.8956
 Red. masses --      3.5625                 1.5515                 1.2780
 Frc consts  --      3.7643                 1.8278                 1.5288
 IR Inten    --    211.8811                11.8125                19.0021

                     52                     53                     54
                      A                      A                      A
 Frequencies --   1428.7754              1453.4759              1461.9702
 Red. masses --      1.2897                 1.2334                 1.8032
 Frc consts  --      1.5511                 1.5352                 2.2708
 IR Inten    --     16.9029                20.2488                 5.2239

                     55                     56                     57
                      A                      A                      A
 Frequencies --   1499.6961              1520.4581              1520.7688
 Red. masses --      1.0467                 1.0495                 1.0511
 Frc consts  --      1.3870                 1.4294                 1.4322
 IR Inten    --      0.7804                 1.7142                 1.6590

                     58                     59                     60
                      A                      A                      A
 Frequencies --   1524.6194              1535.2004              1557.2680
 Red. masses --      1.0642                 1.0524                 1.0550
 Frc consts  --      1.4574                 1.4614                 1.5073
 IR Inten    --      9.9154                 1.1669                13.2551

                     61                     62                     63
                      A                      A                      A
 Frequencies --   1628.2479              1714.9497              1766.6030
 Red. masses --      7.8920                 5.8564                11.0245
 Frc consts  --     12.3276                10.1480                20.2715
 IR Inten    --     29.7778                18.9912               253.0553

                     64                     65                     66
                      A                      A                      A
 Frequencies --   1811.1235              3005.4251              3058.5713
 Red. masses --     11.3280                 1.0798                 1.0365
 Frc consts  --     21.8927                 5.7463                 5.7131
 IR Inten    --    172.2451                 1.2085                10.2630

                     67                     68                     69
                      A                      A                      A
 Frequencies --   3061.8745              3069.6268              3121.5925
 Red. masses --      1.0367                 1.0382                 1.1024
 Frc consts  --      5.7266                 5.7639                 6.3292
 IR Inten    --     21.4730                20.5479                11.7464

                     70                     71                     72
                      A                      A                      A
 Frequencies --   3133.3431              3136.7320              3142.7171
 Red. masses --      1.1020                 1.1026                 1.1026
 Frc consts  --      6.3747                 6.3916                 6.4162
 IR Inten    --     14.7146                26.3255                37.6145

                     73                     74                     75
                      A                      A                      A
 Frequencies --   3168.6408              3173.0374              3182.5790
 Red. masses --      1.1014                 1.0995                 1.0873
 Frc consts  --      6.5154                 6.5223                 6.4887
 IR Inten    --      3.1181                12.2348                10.1224

                     76                     77                     78
                      A                      A                      A
 Frequencies --   3197.0838              3214.2403              3220.1252
 Red. masses --      1.0868                 1.0967                 1.0963
 Frc consts  --      6.5448                 6.6758                 6.6974
 IR Inten    --      5.8220                18.7821                 7.7894

 - Thermochemistry -
 -------------------
 Temperature   298.150 Kelvin.  Pressure   1.00000 Atm.
 Atom     1 has atomic number  6 and mass  12.00000

 Molecular mass:   194.09429 amu.
 Principal axes and moments of inertia in atomic units:
                           1         2         3
     Eigenvalues --  1168.755564331.117014891.33952
           X            0.99998   0.00621  -0.00078
           Y           -0.00620   0.99986   0.01538
           Z            0.00087  -0.01538   0.99988
 This molecule is an asymmetric top.
 Rotational symmetry number  1.
 Warning -- assumption of classical behavior for rotation
           may cause significant error
 Rotational temperatures (Kelvin)      0.07411     0.02000     0.01771
 Rotational constants (GHZ):           1.54416     0.41669     0.36897
 Zero-point vibrational energy     607724.7 (Joules/Mol)
                                  145.24969 (Kcal/Mol)
 Warning -- explicit consideration of  22 degrees of freedom as
           vibrations may cause significant error
 Vibrational temperatures:     47.22    51.26    75.67   155.55   194.72
          (Kelvin)            252.45   304.35   313.77   349.51   371.29
                              395.57   447.46   468.93   511.49   607.34
                              644.54   655.41   667.72   706.56   727.76
                              822.53   874.82   992.50  1041.53  1083.00
                             1137.93  1165.27  1232.09  1266.31  1335.52
                             1353.51  1355.75  1414.11  1418.11  1420.54
                             1466.67  1470.54  1536.10  1548.04  1563.26
                             1668.43  1688.32  1729.66  1762.64  1784.73
                             1838.62  1855.89  1872.67  1926.78  2034.50
                             2050.11  2055.69  2091.23  2103.45  2157.73
                             2187.60  2188.05  2193.59  2208.81  2240.56
                             2342.69  2467.43  2541.75  2605.80  4324.14
                             4400.60  4405.35  4416.51  4491.28  4508.18
                             4513.06  4521.67  4558.97  4565.29  4579.02
                             4599.89  4624.57  4633.04

 Zero-point correction=                           0.231470 (Hartree/Particle)
 Thermal correction to Energy=                    0.245551
 Thermal correction to Enthalpy=                  0.246495
 Thermal correction to Gibbs Free Energy=         0.189926
 Sum of electronic and zero-point Energies=           -653.079470
 Sum of electronic and thermal Energies=              -653.065389
 Sum of electronic and thermal Enthalpies=            -653.064445
 Sum of electronic and thermal Free Energies=         -653.121014

                     E (Thermal)             CV                S
                      KCal/Mol        Cal/Mol-Kelvin    Cal/Mol-Kelvin
 Total                  154.085             52.972            119.060
 Electronic               0.000              0.000              0.000
 Translational            0.889              2.981             41.695
 Rotational               0.889              2.981             31.582
 Vibrational            152.308             47.010             45.783
 Vibration     1          0.594              1.983              5.651
 Vibration     2          0.594              1.982              5.488
 Vibration     3          0.596              1.977              4.717
 Vibration     4          0.606              1.943              3.303
 Vibration     5          0.613              1.918              2.869
 Vibration     6          0.627              1.873              2.376
 Vibration     7          0.643              1.823              2.030
 Vibration     8          0.646              1.814              1.975
 Vibration     9          0.659              1.774              1.781
 Vibration    10          0.667              1.749              1.675
 Vibration    11          0.677              1.720              1.565
 Vibration    12          0.700              1.653              1.357
 Vibration    13          0.710              1.624              1.280
 Vibration    14          0.731              1.564              1.142
 Vibration    15          0.784              1.422              0.885
 Vibration    16          0.807              1.365              0.802
 Vibration    17          0.814              1.349              0.779
 Vibration    18          0.822              1.330              0.754
 Vibration    19          0.847              1.270              0.681
 Vibration    20          0.861              1.237              0.644
 Vibration    21          0.928              1.092              0.501
 Vibration    22          0.967              1.015              0.436

 Optimization completed.
    -- Stationary point found.
 Normal termination of Gaussian 16 at Thu Dec 10 09:31:35 2020.

 ----------------------------------------------------------------------
 # B3LYP/6-311++G(d,p) empiricaldispersion=gd3bj scf=xqc pop=npa geom=c
 heck
 ----------------------------------------------------------------------

 ---------------------------------------
 CID_149643593_JID_4274_Energie_neutraal
 ---------------------------------------
 Structure from the checkpoint file:  "JID_4274.chk"
 Charge =  0 Multiplicity = 1

 SCF Done:  E(RB3LYP) =  -653.497455950     A.U. after   16 cycles
 Normal termination of Gaussian 16 at Thu Dec 10 09:35:12 2020.

 ----------------------------------------------------------------------
 # B3LYP/6-311++G(d,p) empiricaldispersion=gd3bj scf=xqc pop=npa geom=c
 heck
 ----------------------------------------------------------------------

 -------------------------------------
 CID_149643593_JID_4274_Energie_kation
 -------------------------------------
 Structure from the checkpoint file:  "JID_4274.chk"
 Charge =  1 Multiplicity = 2

 SCF Done:  E(UB3LYP) =  -653.171686016     A.U. after   30 cycles
 Normal termination of Gaussian 16 at Thu Dec 10 09:44:58 2020.
 Gaussian 16:  ES64L-G16RevA.03 25-Dec-2016

 ----------------------------------------------------------------------
 # B3LYP/6-311++G(d,p) empiricaldispersion=gd3bj scf=xqc pop=npa geom=c
 heck
 ----------------------------------------------------------------------

 ------------------------------------
 CID_149643593_JID_4274_Energie_anion
 ------------------------------------
 Structure from the checkpoint file:  "JID_4274.chk"
 Charge = -1 Multiplicity = 2

                         Standard orientation:
 ---------------------------------------------------------------------
 Center     Atomic      Atomic             Coordinates (Angstroms)
 Number     Number       Type             X           Y           Z
 ---------------------------------------------------------------------
      1          6           0        3.296426    0.924705   -1.103438
      2          6           0        2.589977    0.053930   -0.066283
      3          6           0        3.213297   -1.340423    0.002426
      4          6           0        2.547586    0.751714    1.294094
      5          8           0        1.219792   -0.035486   -0.609306
      6          6           0        0.241719   -0.634677    0.074904
      7          8           0        0.362090   -1.325193    1.065031
      8          6           0       -1.109707   -0.305264   -0.550742
      9          6           0       -2.098955   -1.423520   -0.406628
     10          6           0       -3.394535   -1.187300   -0.146670
     11          6           0       -3.871885    0.167457    0.086759
     12          6           0       -3.040707    1.234129    0.124775
     13          6           0       -1.592146    1.076498   -0.037176
     14          8           0       -0.802651    1.980987    0.188895
     15          1           0        4.343497    1.070185   -0.818962
     16          1           0        2.811552    1.902924   -1.173176
     17          1           0        3.266606    0.450484   -2.089661
     18          1           0        4.264310   -1.255019    0.299768
     19          1           0        2.691638   -1.966934    0.727032
     20          1           0        3.175522   -1.823533   -0.979907
     21          1           0        1.974761    1.680495    1.215760
     22          1           0        2.085031    0.116461    2.051055
     23          1           0        3.568102    0.990926    1.612124
     24          1           0       -0.939846   -0.135421   -1.626877
     25          1           0       -1.728854   -2.434372   -0.550268
     26          1           0       -4.106556   -2.004954   -0.087868
     27          1           0       -4.934626    0.309327    0.269644
     28          1           0       -3.391411    2.233467    0.362261
 ---------------------------------------------------------------------

 SCF Done:  E(UB3LYP) =  -653.521728323     A.U. after   25 cycles

 The electronic state is 2-A.
 Alpha  occ. eigenvalues --  -19.03600 -18.97469 -18.91172 -10.16292 -10.13848
 Alpha  occ. eigenvalues --  -10.06750 -10.06503 -10.06459 -10.05330 -10.03346
 Alpha  occ. eigenvalues --  -10.00584 -10.00118  -9.99739  -9.98419  -0.97474
 Alpha  occ. eigenvalues --   -0.88953  -0.85322  -0.71250  -0.67158  -0.60289
 Alpha  occ. eigenvalues --   -0.59990  -0.59307  -0.56199  -0.51540  -0.45098
 Alpha  occ. eigenvalues --   -0.41612  -0.40826  -0.37046  -0.36314  -0.35749
 Alpha  occ. eigenvalues --   -0.34168  -0.32751  -0.31923  -0.30924  -0.30318
 Alpha  occ. eigenvalues --   -0.29488  -0.29103  -0.27252  -0.26876  -0.25688
 Alpha  occ. eigenvalues --   -0.25489  -0.24718  -0.23588  -0.22660  -0.20881
 Alpha  occ. eigenvalues --   -0.19688  -0.18744  -0.17933  -0.16207  -0.13884
 Alpha  occ. eigenvalues --   -0.07776  -0.06788   0.04311
 Alpha virt. eigenvalues --    0.07037   0.09409   0.09442   0.10254   0.10860
 Alpha virt. eigenvalues --    0.11646   0.12273   0.12691   0.12738   0.13215
 Alpha virt. eigenvalues --    0.13611   0.14281   0.15045   0.15540   0.15866

  Beta  occ. eigenvalues --  -19.03597 -18.97474 -18.90762 -10.16232 -10.13847
  Beta  occ. eigenvalues --  -10.06749 -10.06503 -10.06239 -10.05330 -10.03408
  Beta  occ. eigenvalues --  -10.00663  -9.99667  -9.99333  -9.98285  -0.97453
  Beta  occ. eigenvalues --   -0.88950  -0.84587  -0.71231  -0.66568  -0.60003
  Beta  occ. eigenvalues --   -0.59828  -0.59306  -0.55681  -0.51295  -0.44299
  Beta  occ. eigenvalues --   -0.41169  -0.40692  -0.36876  -0.36258  -0.35682
  Beta  occ. eigenvalues --   -0.34012  -0.32652  -0.31785  -0.30739  -0.30030
  Beta  occ. eigenvalues --   -0.29341  -0.28807  -0.27231  -0.26790  -0.25505
  Beta  occ. eigenvalues --   -0.25254  -0.24614  -0.23350  -0.22434  -0.19957
  Beta  occ. eigenvalues --   -0.19110  -0.18063  -0.17871  -0.14463  -0.13654
  Beta  occ. eigenvalues --   -0.06935  -0.05140
  Beta virt. eigenvalues --    0.07022   0.09362   0.09412   0.10203   0.10830
  Beta virt. eigenvalues --    0.11253   0.11611   0.12243   0.12659   0.12829
  Beta virt. eigenvalues --    0.13238   0.13593   0.14351   0.15037   0.15533

 Mulliken charges and spin densities:
               1          2
     1  C   -0.361401  -0.019790
     2  C   -0.069027   0.009292
     3  C   -0.484883  -0.003102
     4  C   -0.382481   0.002361
     5  O    0.187148   0.007296
     6  C   -0.556758  -0.208369
     7  O   -0.248170  -0.000875
     8  C    0.851001   0.062731
     9  C   -0.669467   0.329624
    10  C    0.077316  -0.054719
    11  C   -0.490713   0.375008
    12  C    0.232084   0.065845
    13  C   -0.606903   0.220517
    14  O   -0.380305   0.143999
    15  H    0.116851  -0.000316
    16  H    0.165040   0.007651
    17  H    0.136853   0.002183
    18  H    0.130404  -0.000194
    19  H    0.191373  -0.001427
    20  H    0.130890   0.001208
    21  H    0.186066  -0.001001
    22  H    0.170916  -0.000044
    23  H    0.131178  -0.000066
    24  H    0.124401   0.109816
    25  H    0.111930  -0.021785
    26  H    0.096737   0.005882
    27  H    0.087693  -0.023512
    28  H    0.122227  -0.008215
 Sum of Mulliken charges =  -1.00000   1.00000

 Dipole moment (field-independent basis, Debye):
    X=              8.2052    Y=             -1.8450    Z=             -1.2139  Tot=              8.4973
 Quadrupole moment (field-independent basis, Debye-Ang):
   XX=           -114.1724   YY=           -103.8912   ZZ=            -95.3428
   XY=              2.2523   XZ=             -0.7589   YZ=              2.1859

 Summary of Natural Population Analysis:

                                       Natural Population
                Natural  -----------------------------------------------
    Atom  No    Charge         Core      Valence    Rydberg      Total
 -----------------------------------------------------------------------
      C    1   -0.28874      0.99961     2.28341    0.00571     3.28874
      C    2    0.13384      0.99955     1.85492    0.01169     2.86616
      C    3   -0.30041      0.99961     2.29557    0.00523     3.30041
      C    4   -0.30465      0.99961     2.29955    0.00549     3.30465
      O    5   -0.28982      0.99984     3.27925    0.01073     4.28982
      C    6    0.43404      0.99967     1.53861    0.02769     2.56596
      O    7   -0.32154      0.99987     3.31640    0.00527     4.32154
      C    8   -0.21394      0.99950     2.20142    0.01301     3.21394
      C    9    0.02178      0.99955     1.96958    0.00910     2.97822
      C   10   -0.14849      0.99954     2.13916    0.00979     3.14849
      C   11   -0.00647      0.99956     1.99703    0.00988     3.00647
      C   12   -0.13707      0.99951     2.12698    0.01058     3.13707
      C   13    0.29732      0.99962     1.68138    0.02168     2.70268
      O   14   -0.27979      0.99987     3.27303    0.00689     4.27979
      H   15    0.09324      0.00000     0.40599    0.00077     0.40676
      H   16    0.10942      0.00000     0.38976    0.00082     0.39058
      H   17    0.10040      0.00000     0.39878    0.00083     0.39960
      H   18    0.09404      0.00000     0.40516    0.00080     0.40596
      H   19    0.11610      0.00000     0.38298    0.00092     0.38390
      H   20    0.09896      0.00000     0.40020    0.00084     0.40104
      H   21    0.11704      0.00000     0.38208    0.00087     0.38296
      H   22    0.11381      0.00000     0.38531    0.00088     0.38619
      H   23    0.09167      0.00000     0.40751    0.00082     0.40833
      H   24    0.12978      0.00000     0.36872    0.00150     0.37022
      H   25    0.08192      0.00000     0.41643    0.00165     0.41808
      H   26    0.08816      0.00000     0.41069    0.00115     0.41184
      H   27    0.07905      0.00000     0.41901    0.00193     0.42095
      H   28    0.09032      0.00000     0.40775    0.00193     0.40968
 =======================================================================
   * Total *   -0.00000     13.99491    37.83664    0.16845    52.00000

 Normal termination of Gaussian 16 at Thu Dec 10 09:53:23 2020.
