 Gaussian 16, Revision A.03,

 -----------------------------------------------------------
 # opt freq B3LYP/6-31G(d) empiricaldispersion=gd3bj scf=xqc
 -----------------------------------------------------------

 -----------------------------
 CID_12280087_JID_349_neutraal
 -----------------------------
 Symbolic Z-matrix:
 Charge =  0 Multiplicity = 1

 SCF Done:  E(RB3LYP) =  -794.040803012     A.U. after   15 cycles
 SCF Done:  E(RB3LYP) =  -794.069136563     A.U. after   13 cycles
 SCF Done:  E(RB3LYP) =  -794.075402308     A.U. after   13 cycles
 SCF Done:  E(RB3LYP) =  -794.075761517     A.U. after   12 cycles
 SCF Done:  E(RB3LYP) =  -794.075789478     A.U. after   11 cycles
 SCF Done:  E(RB3LYP) =  -794.075795533     A.U. after    9 cycles
 SCF Done:  E(RB3LYP) =  -794.075796870     A.U. after    9 cycles
 SCF Done:  E(RB3LYP) =  -794.075797794     A.U. after    8 cycles
 SCF Done:  E(RB3LYP) =  -794.075798189     A.U. after    8 cycles
 Optimization completed.
    -- Stationary point found.
 Normal termination of Gaussian 16 at Tue Dec  8 10:25:26 2020.

 --------------------------------------------------------------------
 #N Geom=AllCheck Guess=TCheck SCRF=Check GenChk RB3LYP/6-31G(d) Freq
 --------------------------------------------------------------------

 Structure from the checkpoint file:  "JID_349.chk"
 -----------------------------
 CID_12280087_JID_349_neutraal
 -----------------------------
 Charge =  0 Multiplicity = 1

 SCF Done:  E(RB3LYP) =  -794.075798189     A.U. after    1 cycles

  Exact polarizability: 131.143  -2.350 113.500  -0.372  -0.014  37.919
 Approx polarizability: 246.523   1.546 215.919  -1.631   1.937  60.668

                      1                      2                      3
                      A                      A                      A
 Frequencies --    139.4916               174.7037               259.6522
 Red. masses --      5.1062                 6.5519                 4.4293
 Frc consts  --      0.0585                 0.1178                 0.1759
 IR Inten    --      6.2161                 1.2218                 1.6057

                      4                      5                      6
                      A                      A                      A
 Frequencies --    269.8743               377.4540               449.2701
 Red. masses --      4.8254                 1.1248                 5.8577
 Frc consts  --      0.2071                 0.0944                 0.6966
 IR Inten    --      3.8324                70.3495                 2.7941

                      7                      8                      9
                      A                      A                      A
 Frequencies --    459.9114               492.6377               548.5935
 Red. masses --      4.6825                 6.5991                 6.8881
 Frc consts  --      0.5835                 0.9436                 1.2214
 IR Inten    --     11.2150                 0.6695                15.0842

                     10                     11                     12
                      A                      A                      A
 Frequencies --    554.7864               595.3887               620.6407
 Red. masses --      6.5316                 2.1306                 7.2453
 Frc consts  --      1.1845                 0.4450                 1.6443
 IR Inten    --      8.7789                94.4448                 2.9628

                     13                     14                     15
                      A                      A                      A
 Frequencies --    659.4178               697.4500               768.9415
 Red. masses --      1.2453                 2.1629                 3.9645
 Frc consts  --      0.3190                 0.6199                 1.3811
 IR Inten    --      1.4574               224.3673                 6.2371

                     16                     17                     18
                      A                      A                      A
 Frequencies --    773.7971               798.1704               869.1806
 Red. masses --      1.3596                 5.6816                 4.6719
 Frc consts  --      0.4797                 2.1326                 2.0795
 IR Inten    --     56.0675                 7.0263                 2.8096

                     19                     20                     21
                      A                      A                      A
 Frequencies --    874.4315               901.7404               909.4175
 Red. masses --      5.1251                 1.4037                 4.4486
 Frc consts  --      2.3089                 0.6725                 2.1677
 IR Inten    --     24.2786                11.1833                 7.5156

                     22                     23                     24
                      A                      A                      A
 Frequencies --   1006.1191              1119.4174              1169.1957
 Red. masses --      3.0977                 3.8697                 1.7936
 Frc consts  --      1.8475                 2.8570                 1.4446
 IR Inten    --     20.2055                 0.8699                 3.3745

                     25                     26                     27
                      A                      A                      A
 Frequencies --   1191.9487              1240.3838              1346.6350
 Red. masses --      1.3447                 1.6742                 1.6763
 Frc consts  --      1.1256                 1.5177                 1.7910
 IR Inten    --      1.9545                 9.2404                 6.6813

                     28                     29                     30
                      A                      A                      A
 Frequencies --   1409.5346              1442.1794              1496.2776
 Red. masses --      5.1194                 7.5884                 3.8819
 Frc consts  --      5.9927                 9.2990                 5.1206
 IR Inten    --     72.3563                 5.3416                33.4482

                     31                     32                     33
                      A                      A                      A
 Frequencies --   1523.4898              1537.9992              1629.4540
 Red. masses --      7.5386                 5.1659                 7.1042
 Frc consts  --     10.3091                 7.1995                11.1135
 IR Inten    --     48.9481                99.7058                 5.3571

                     34                     35                     36
                      A                      A                      A
 Frequencies --   1671.4980              3184.3974              3275.6524
 Red. masses --      1.2846                 1.0907                 1.0925
 Frc consts  --      2.1146                 6.5162                 6.9068
 IR Inten    --    168.4666                17.7325                 0.8922

                     37                     38                     39
                      A                      A                      A
 Frequencies --   3277.2186              3546.7142              3656.4397
 Red. masses --      1.0950                 1.0470                 1.0991
 Frc consts  --      6.9291                 7.7597                 8.6574
 IR Inten    --      1.3416                30.5254                19.1150

 - Thermochemistry -
 -------------------
 Temperature   298.150 Kelvin.  Pressure   1.00000 Atm.
 Atom     1 has atomic number  6 and mass  12.00000

 Molecular mass:   151.02042 amu.
 Principal axes and moments of inertia in atomic units:
                           1         2         3
     Eigenvalues --   803.653311739.116262540.69913
           X            0.99926  -0.03843   0.00202
           Y            0.03844   0.99925  -0.00528
           Z           -0.00181   0.00535   0.99998
 This molecule is an asymmetric top.
 Rotational symmetry number  1.
 Warning -- assumption of classical behavior for rotation
           may cause significant error
 Rotational temperatures (Kelvin)      0.10778     0.04980     0.03409
 Rotational constants (GHZ):           2.24567     1.03773     0.71033
 Zero-point vibrational energy     280641.0 (Joules/Mol)
                                   67.07480 (Kcal/Mol)
 Warning -- explicit consideration of  12 degrees of freedom as
           vibrations may cause significant error
 Vibrational temperatures:    200.70   251.36   373.58   388.29   543.07
          (Kelvin)            646.40   661.71   708.80   789.30   798.21
                              856.63   892.96   948.76  1003.48  1106.34
                             1113.32  1148.39  1250.56  1258.11  1297.40
                             1308.45  1447.58  1610.59  1682.21  1714.95
                             1784.64  1937.51  2028.01  2074.97  2152.81
                             2191.96  2212.84  2344.42  2404.91  4581.64
                             4712.93  4715.19  5102.93  5260.80

 Zero-point correction=                           0.106890 (Hartree/Particle)
 Thermal correction to Energy=                    0.114563
 Thermal correction to Enthalpy=                  0.115507
 Thermal correction to Gibbs Free Energy=         0.074360
 Sum of electronic and zero-point Energies=           -793.968908
 Sum of electronic and thermal Energies=              -793.961236
 Sum of electronic and thermal Enthalpies=            -793.960292
 Sum of electronic and thermal Free Energies=         -794.001438

                     E (Thermal)             CV                S
                      KCal/Mol        Cal/Mol-Kelvin    Cal/Mol-Kelvin
 Total                   71.889             30.741             86.599
 Electronic               0.000              0.000              0.000
 Translational            0.889              2.981             40.947
 Rotational               0.889              2.981             29.653
 Vibrational             70.112             24.779             16.000
 Vibration     1          0.615              1.914              2.811
 Vibration     2          0.627              1.874              2.384
 Vibration     3          0.668              1.746              1.664
 Vibration     4          0.674              1.729              1.597
 Vibration     5          0.748              1.518              1.049
 Vibration     6          0.808              1.362              0.798
 Vibration     7          0.818              1.339              0.766
 Vibration     8          0.848              1.266              0.677
 Vibration     9          0.904              1.143              0.547
 Vibration    10          0.910              1.129              0.534
 Vibration    11          0.953              1.042              0.458
 Vibration    12          0.981              0.988              0.415

 Optimization completed.
    -- Stationary point found.
 Normal termination of Gaussian 16 at Tue Dec  8 10:28:01 2020.

 ----------------------------------------------------------------------
 # B3LYP/6-311++G(d,p) empiricaldispersion=gd3bj scf=xqc pop=npa geom=c
 heck
 ----------------------------------------------------------------------

 -------------------------------------
 CID_12280087_JID_349_Energie_neutraal
 -------------------------------------
 Structure from the checkpoint file:  "JID_349.chk"
 Charge =  0 Multiplicity = 1

 SCF Done:  E(RB3LYP) =  -794.211193975     A.U. after   16 cycles
 Normal termination of Gaussian 16 at Tue Dec  8 10:28:51 2020.

 ----------------------------------------------------------------------
 # B3LYP/6-311++G(d,p) empiricaldispersion=gd3bj scf=xqc pop=npa geom=c
 heck
 ----------------------------------------------------------------------

 -----------------------------------
 CID_12280087_JID_349_Energie_kation
 -----------------------------------
 Structure from the checkpoint file:  "JID_349.chk"
 Charge =  1 Multiplicity = 2

 SCF Done:  E(UB3LYP) =  -793.912052938     A.U. after   25 cycles
 Normal termination of Gaussian 16 at Tue Dec  8 10:30:32 2020.
 Gaussian 16:  ES64L-G16RevA.03 25-Dec-2016

 ----------------------------------------------------------------------
 # B3LYP/6-311++G(d,p) empiricaldispersion=gd3bj scf=xqc pop=npa geom=c
 heck
 ----------------------------------------------------------------------

 ----------------------------------
 CID_12280087_JID_349_Energie_anion
 ----------------------------------
 Structure from the checkpoint file:  "JID_349.chk"
 Charge = -1 Multiplicity = 2

                         Standard orientation:
 ---------------------------------------------------------------------
 Center     Atomic      Atomic             Coordinates (Angstroms)
 Number     Number       Type             X           Y           Z
 ---------------------------------------------------------------------
      1          6           0       -1.691337    1.148989    0.026012
      2          6           0       -0.322959    0.961299    0.018073
      3          6           0        0.753436    1.907476    0.004948
      4          7           0        2.009222    1.553701   -0.019188
      5          7           0        2.367124    0.226277   -0.001437
      6          6           0        1.451858   -0.718373   -0.003386
      7          6           0        0.038079   -0.430507   -0.006165
      8          6           0       -1.057277   -1.269262   -0.027366
      9         16           0       -2.522028   -0.360989   -0.005350
     10          7           0        1.890896   -2.025700   -0.054256
     11          1           0       -2.243468    2.078183    0.043533
     12          1           0        0.555821    2.977062    0.006532
     13          1           0       -1.089206   -2.348223   -0.081183
     14          1           0        1.339640   -2.704081    0.455613
     15          1           0        2.888165   -2.104786    0.112568
 ---------------------------------------------------------------------

 SCF Done:  E(UB3LYP) =  -794.229062813     A.U. after   26 cycles

 The electronic state is 2-A.
 Alpha  occ. eigenvalues --  -88.71466 -14.18176 -14.15909 -14.15337 -10.07462
 Alpha  occ. eigenvalues --  -10.03133 -10.03048 -10.02834 -10.02673 -10.02585
 Alpha  occ. eigenvalues --   -7.80144  -5.76426  -5.76059  -5.75842  -0.83530
 Alpha  occ. eigenvalues --   -0.77211  -0.72673  -0.64404  -0.60480  -0.57425
 Alpha  occ. eigenvalues --   -0.48592  -0.45311  -0.42474  -0.39582  -0.35898
 Alpha  occ. eigenvalues --   -0.34156  -0.32184  -0.27641  -0.27402  -0.24949
 Alpha  occ. eigenvalues --   -0.22687  -0.21941  -0.20423  -0.19239  -0.13856
 Alpha  occ. eigenvalues --   -0.11692  -0.10722  -0.07271  -0.06548   0.04618
 Alpha virt. eigenvalues --    0.08978   0.10383   0.11301   0.12447   0.13509
 Alpha virt. eigenvalues --    0.14499   0.15214   0.15726   0.16193   0.16567
 Alpha virt. eigenvalues --    0.17284   0.18306   0.19116   0.19423   0.19816

  Beta  occ. eigenvalues --  -88.71349 -14.18136 -14.15799 -14.15356 -10.07174
  Beta  occ. eigenvalues --  -10.02926 -10.02917 -10.02763 -10.02646 -10.02142
  Beta  occ. eigenvalues --   -7.80039  -5.76373  -5.76008  -5.75456  -0.83281
  Beta  occ. eigenvalues --   -0.77013  -0.72267  -0.64166  -0.60132  -0.56782
  Beta  occ. eigenvalues --   -0.48106  -0.44867  -0.41848  -0.39420  -0.35693
  Beta  occ. eigenvalues --   -0.33991  -0.31957  -0.27369  -0.26571  -0.24652
  Beta  occ. eigenvalues --   -0.22617  -0.20703  -0.19870  -0.18357  -0.13772
  Beta  occ. eigenvalues --   -0.10637  -0.09477  -0.07104  -0.04673
  Beta virt. eigenvalues --    0.08931   0.10377   0.10757   0.11254   0.12445
  Beta virt. eigenvalues --    0.13574   0.14906   0.15546   0.15969   0.16194
  Beta virt. eigenvalues --    0.16987   0.17540   0.18361   0.19240   0.19442

 Mulliken charges and spin densities:
               1          2
     1  C    0.500880   0.349234
     2  C   -1.026763  -0.070673
     3  C   -0.904122   0.170549
     4  N   -0.190325   0.041175
     5  N   -0.119153  -0.012629
     6  C   -0.712406   0.127918
     7  C    1.118968  -0.084874
     8  C    0.372927   0.289368
     9  S   -0.658641   0.182599
    10  N   -0.304058   0.017547
    11  H    0.212291  -0.022494
    12  H    0.107724  -0.012081
    13  H    0.188337  -0.017101
    14  H    0.174198   0.038392
    15  H    0.240145   0.003072
 Sum of Mulliken charges =  -1.00000   1.00000

 Dipole moment (field-independent basis, Debye):
    X=             -2.7003    Y=             -2.3984    Z=              0.7641  Tot=              3.6915
 Quadrupole moment (field-independent basis, Debye-Ang):
   XX=            -97.9021   YY=            -73.1661   ZZ=            -74.7381
   XY=            -10.0270   XZ=              1.6423   YZ=             -2.0984

 Summary of Natural Population Analysis:

                                       Natural Population
                Natural  -----------------------------------------------
    Atom  No    Charge         Core      Valence    Rydberg      Total
 -----------------------------------------------------------------------
      C    1   -0.11735      0.99952     2.10609    0.01174     3.11735
      C    2   -0.08567      0.99948     2.07803    0.00817     3.08567
      C    3    0.05090      0.99958     1.93418    0.01534     2.94910
      N    4   -0.14047      0.99970     2.62342    0.01734     3.64047
      N    5   -0.20137      0.99965     2.68630    0.01543     3.70137
      C    6    0.24104      0.99953     1.74241    0.01701     2.75896
      C    7   -0.09249      0.99945     2.08106    0.01199     3.09249
      C    8   -0.13237      0.99953     2.12182    0.01102     3.13237
      S    9    0.24438      4.99944     2.73051    0.02567     7.75562
      N   10   -0.40008      0.99971     2.88922    0.01114     3.90008
      H   11    0.09477      0.00000     0.40426    0.00097     0.40523
      H   12    0.07884      0.00000     0.41934    0.00182     0.42116
      H   13    0.09671      0.00000     0.40237    0.00092     0.40329
      H   14    0.18068      0.00000     0.31667    0.00265     0.31932
      H   15    0.18248      0.00000     0.31336    0.00416     0.31752
 =======================================================================
   * Total *    0.00000     13.99559    24.84904    0.15537    39.00000

 Normal termination of Gaussian 16 at Tue Dec  8 10:33:39 2020.
