 Gaussian 16, Revision A.03,

 -----------------------------------------------------------
 # opt freq B3LYP/6-31G(d) empiricaldispersion=gd3bj scf=xqc
 -----------------------------------------------------------

 -------------------------------
 CID_143778867_JID_4053_neutraal
 -------------------------------
 Symbolic Z-matrix:
 Charge =  0 Multiplicity = 1

 SCF Done:  E(RB3LYP) =  -596.300296167     A.U. after   15 cycles
 SCF Done:  E(RB3LYP) =  -596.322799097     A.U. after   13 cycles
 SCF Done:  E(RB3LYP) =  -596.324701363     A.U. after   13 cycles
 SCF Done:  E(RB3LYP) =  -596.325100125     A.U. after   12 cycles
 SCF Done:  E(RB3LYP) =  -596.325184236     A.U. after   11 cycles
 SCF Done:  E(RB3LYP) =  -596.325213360     A.U. after   10 cycles
 SCF Done:  E(RB3LYP) =  -596.325245750     A.U. after   10 cycles
 SCF Done:  E(RB3LYP) =  -596.325255546     A.U. after   10 cycles
 SCF Done:  E(RB3LYP) =  -596.325260809     A.U. after    9 cycles
 SCF Done:  E(RB3LYP) =  -596.325261585     A.U. after    8 cycles
 SCF Done:  E(RB3LYP) =  -596.325261837     A.U. after    7 cycles
 SCF Done:  E(RB3LYP) =  -596.325262033     A.U. after    7 cycles
 SCF Done:  E(RB3LYP) =  -596.325262093     A.U. after    7 cycles
 Optimization completed.
    -- Stationary point found.
 Normal termination of Gaussian 16 at Thu Dec 10 09:16:29 2020.

 --------------------------------------------------------------------
 #N Geom=AllCheck Guess=TCheck SCRF=Check GenChk RB3LYP/6-31G(d) Freq
 --------------------------------------------------------------------

 Structure from the checkpoint file:  "JID_4053.chk"
 -------------------------------
 CID_143778867_JID_4053_neutraal
 -------------------------------
 Charge =  0 Multiplicity = 1

 SCF Done:  E(RB3LYP) =  -596.325262093     A.U. after    1 cycles

  Exact polarizability: 187.975   4.677 124.704 -11.894   6.526  81.206
 Approx polarizability: 259.063  13.963 200.621 -25.121  15.804 123.374

                      1                      2                      3
                      A                      A                      A
 Frequencies --     37.5228                47.4765                66.8076
 Red. masses --      4.5485                 4.2646                 2.9554
 Frc consts  --      0.0038                 0.0057                 0.0078
 IR Inten    --      3.7206                 0.1448                 1.4515

                      4                      5                      6
                      A                      A                      A
 Frequencies --    100.8027               124.2866               152.4233
 Red. masses --      3.4086                 1.2245                 6.5333
 Frc consts  --      0.0204                 0.0111                 0.0894
 IR Inten    --      5.8678                 0.4836                 3.9671

                      7                      8                      9
                      A                      A                      A
 Frequencies --    184.0752               208.9615               217.5925
 Red. masses --      3.5314                 1.9130                 3.0489
 Frc consts  --      0.0705                 0.0492                 0.0851
 IR Inten    --      0.6421                 0.2004                 2.3389

                     10                     11                     12
                      A                      A                      A
 Frequencies --    231.0367               263.4101               271.6258
 Red. masses --      1.4840                 2.2646                 1.3594
 Frc consts  --      0.0467                 0.0926                 0.0591
 IR Inten    --      1.0175                 1.2768                 0.3542

                     13                     14                     15
                      A                      A                      A
 Frequencies --    301.2389               360.8878               369.5940
 Red. masses --      2.6073                 4.4172                 2.4364
 Frc consts  --      0.1394                 0.3390                 0.1961
 IR Inten    --      0.6350                 3.5236                 1.4152

                     16                     17                     18
                      A                      A                      A
 Frequencies --    420.7953               461.4876               488.8229
 Red. masses --      2.8508                 3.2689                 4.0478
 Frc consts  --      0.2974                 0.4102                 0.5699
 IR Inten    --      2.0408                 3.3201                 2.6506

                     19                     20                     21
                      A                      A                      A
 Frequencies --    516.5776               550.1724               566.5071
 Red. masses --      3.9543                 4.2175                 5.1455
 Frc consts  --      0.6217                 0.7521                 0.9729
 IR Inten    --      0.4875                 1.5762                 0.4645

                     22                     23                     24
                      A                      A                      A
 Frequencies --    580.4709               603.8758               724.5682
 Red. masses --      4.7604                 3.0423                 3.9937
 Frc consts  --      0.9451                 0.6537                 1.2353
 IR Inten    --     10.0024                 1.7833                 1.8329

                     25                     26                     27
                      A                      A                      A
 Frequencies --    736.4032               797.7262               823.9461
 Red. masses --      5.1983                 3.8930                 1.8496
 Frc consts  --      1.6609                 1.4596                 0.7398
 IR Inten    --      1.1613                 0.2977                15.0511

                     28                     29                     30
                      A                      A                      A
 Frequencies --    854.0849               865.6997               903.2351
 Red. masses --      1.7362                 1.6210                 1.6268
 Frc consts  --      0.7462                 0.7158                 0.7820
 IR Inten    --      0.9816                25.9258                 1.1896

                     31                     32                     33
                      A                      A                      A
 Frequencies --    928.0699               957.5882               967.2707
 Red. masses --      1.9454                 1.3053                 3.8815
 Frc consts  --      0.9872                 0.7052                 2.1397
 IR Inten    --      3.5576                 0.0079                 7.4258

                     34                     35                     36
                      A                      A                      A
 Frequencies --   1032.5565              1066.4921              1071.9731
 Red. masses --      1.5939                 1.7257                 1.6149
 Frc consts  --      1.0012                 1.1565                 1.0934
 IR Inten    --     11.1274                 3.0083                 1.0948

                     37                     38                     39
                      A                      A                      A
 Frequencies --   1087.1755              1089.4551              1136.0094
 Red. masses --      3.2966                 2.6553                 1.7994
 Frc consts  --      2.2957                 1.8569                 1.3682
 IR Inten    --     20.8398                30.5690                 1.9264

                     40                     41                     42
                      A                      A                      A
 Frequencies --   1149.6711              1186.3215              1199.8111
 Red. masses --      1.7645                 1.2713                 1.6819
 Frc consts  --      1.3741                 1.0541                 1.4265
 IR Inten    --     37.4282                 0.7321                11.8053

                     43                     44                     45
                      A                      A                      A
 Frequencies --   1224.1086              1245.4913              1250.6845
 Red. masses --      1.4726                 1.6373                 1.8030
 Frc consts  --      1.3001                 1.4964                 1.6617
 IR Inten    --      0.5727                 4.4113                42.9443

                     46                     47                     48
                      A                      A                      A
 Frequencies --   1310.5364              1320.3419              1332.7521
 Red. masses --      2.2006                 1.4202                 1.8429
 Frc consts  --      2.2269                 1.4587                 1.9287
 IR Inten    --    135.1078                30.1718                21.8025

                     49                     50                     51
                      A                      A                      A
 Frequencies --   1351.4151              1378.6384              1388.4858
 Red. masses --      1.6141                 2.7164                 1.4550
 Frc consts  --      1.7368                 3.0419                 1.6527
 IR Inten    --     56.8915                31.3928                 0.0360

                     52                     53                     54
                      A                      A                      A
 Frequencies --   1438.3167              1447.9250              1461.5642
 Red. masses --      1.2205                 1.2330                 2.7917
 Frc consts  --      1.4877                 1.5231                 3.5136
 IR Inten    --      4.7743                 2.1219                10.3525

                     55                     56                     57
                      A                      A                      A
 Frequencies --   1503.5331              1513.7911              1520.3225
 Red. masses --      1.2215                 1.1092                 1.0857
 Frc consts  --      1.6269                 1.4975                 1.4786
 IR Inten    --     10.4009                 2.0074                 9.2510

                     58                     59                     60
                      A                      A                      A
 Frequencies --   1521.4672              1525.6668              1529.0642
 Red. masses --      1.0543                 1.1217                 1.0484
 Frc consts  --      1.4380                 1.5383                 1.4441
 IR Inten    --      1.9721                 4.3104                 8.0985

                     61                     62                     63
                      A                      A                      A
 Frequencies --   1532.3858              1535.9219              1562.3334
 Red. masses --      1.0823                 1.0703                 2.3490
 Frc consts  --      1.4974                 1.4876                 3.3782
 IR Inten    --     16.1609                49.3128                81.1779

                     64                     65                     66
                      A                      A                      A
 Frequencies --   1636.6834              1673.2800              2362.4358
 Red. masses --      7.1613                 5.7010                12.6521
 Frc consts  --     11.3025                 9.4045                41.6039
 IR Inten    --      9.8723               105.3994                14.4325

                     67                     68                     69
                      A                      A                      A
 Frequencies --   3025.9823              3046.7156              3056.7657
 Red. masses --      1.0349                 1.0398                 1.0752
 Frc consts  --      5.5829                 5.6866                 5.9191
 IR Inten    --     53.6671                20.9340                 4.2959

                     70                     71                     72
                      A                      A                      A
 Frequencies --   3064.9813              3068.5128              3084.6702
 Red. masses --      1.0489                 1.0517                 1.1066
 Frc consts  --      5.8054                 5.8343                 6.2039
 IR Inten    --     21.6183                16.3014                42.6380

                     73                     74                     75
                      A                      A                      A
 Frequencies --   3096.6417              3106.6837              3130.5258
 Red. masses --      1.1000                 1.1040                 1.1003
 Frc consts  --      6.2148                 6.2781                 6.3530
 IR Inten    --     19.9833                17.0712                20.9951

                     76                     77                     78
                      A                      A                      A
 Frequencies --   3138.2818              3153.3637              3160.3553
 Red. masses --      1.1027                 1.1033                 1.0997
 Frc consts  --      6.3986                 6.4636                 6.4713
 IR Inten    --     18.8370                15.9221                27.8244

                     79                     80                     81
                      A                      A                      A
 Frequencies --   3182.8018              3218.3508              3219.9076
 Red. masses --      1.0889                 1.0892                 1.0931
 Frc consts  --      6.4989                 6.6468                 6.6774
 IR Inten    --     16.0413                11.6076                 7.6780

 - Thermochemistry -
 -------------------
 Temperature   298.150 Kelvin.  Pressure   1.00000 Atm.
 Atom     1 has atomic number  6 and mass  12.00000

 Molecular mass:   189.11536 amu.
 Principal axes and moments of inertia in atomic units:
                           1         2         3
     Eigenvalues --  1043.205695630.022166221.40369
           X            0.99989  -0.01449  -0.00195
           Y            0.01449   0.99989  -0.00080
           Z            0.00196   0.00077   1.00000
 This molecule is an asymmetric top.
 Rotational symmetry number  1.
 Warning -- assumption of classical behavior for rotation
           may cause significant error
 Rotational temperatures (Kelvin)      0.08303     0.01538     0.01392
 Rotational constants (GHZ):           1.73000     0.32056     0.29009
 Zero-point vibrational energy     646140.1 (Joules/Mol)
                                  154.43120 (Kcal/Mol)
 Warning -- explicit consideration of  23 degrees of freedom as
           vibrations may cause significant error
 Vibrational temperatures:     53.99    68.31    96.12   145.03   178.82
          (Kelvin)            219.30   264.84   300.65   313.07   332.41
                              378.99   390.81   433.42   519.24   531.76
                              605.43   663.98   703.31   743.24   791.58
                              815.08   835.17   868.84  1042.49  1059.52
                             1147.75  1185.47  1228.84  1245.55  1299.55
                             1335.29  1377.76  1391.69  1485.62  1534.44
                             1542.33  1564.20  1567.48  1634.46  1654.12
                             1706.85  1726.26  1761.22  1791.98  1799.46
                             1885.57  1899.68  1917.53  1944.38  1983.55
                             1997.72  2069.42  2083.24  2102.86  2163.25
                             2178.01  2187.41  2189.05  2195.09  2199.98
                             2204.76  2209.85  2247.85  2354.82  2407.48
                             3399.02  4353.71  4383.54  4398.00  4409.82
                             4414.91  4438.15  4455.38  4469.82  4504.13
                             4515.29  4536.99  4547.05  4579.34  4630.49
                             4632.73

 Zero-point correction=                           0.246102 (Hartree/Particle)
 Thermal correction to Energy=                    0.260442
 Thermal correction to Enthalpy=                  0.261386
 Thermal correction to Gibbs Free Energy=         0.204418
 Sum of electronic and zero-point Energies=           -596.079160
 Sum of electronic and thermal Energies=              -596.064821
 Sum of electronic and thermal Enthalpies=            -596.063876
 Sum of electronic and thermal Free Energies=         -596.120844

                     E (Thermal)             CV                S
                      KCal/Mol        Cal/Mol-Kelvin    Cal/Mol-Kelvin
 Total                  163.430             53.227            119.898
 Electronic               0.000              0.000              0.000
 Translational            0.889              2.981             41.617
 Rotational               0.889              2.981             31.969
 Vibrational            161.652             47.265             46.311
 Vibration     1          0.594              1.982              5.386
 Vibration     2          0.595              1.979              4.920
 Vibration     3          0.598              1.970              4.245
 Vibration     4          0.604              1.948              3.439
 Vibration     5          0.610              1.929              3.033
 Vibration     6          0.619              1.900              2.642
 Vibration     7          0.631              1.862              2.287
 Vibration     8          0.642              1.827              2.053
 Vibration     9          0.646              1.814              1.979
 Vibration    10          0.653              1.794              1.871
 Vibration    11          0.670              1.740              1.639
 Vibration    12          0.675              1.726              1.586
 Vibration    13          0.693              1.671              1.410
 Vibration    14          0.735              1.553              1.118
 Vibration    15          0.742              1.535              1.081
 Vibration    16          0.783              1.425              0.889
 Vibration    17          0.819              1.335              0.762
 Vibration    18          0.845              1.275              0.687
 Vibration    19          0.872              1.213              0.618
 Vibration    20          0.905              1.139              0.544
 Vibration    21          0.922              1.104              0.511
 Vibration    22          0.937              1.074              0.484
 Vibration    23          0.962              1.024              0.443

 Optimization completed.
    -- Stationary point found.
 Normal termination of Gaussian 16 at Thu Dec 10 09:24:18 2020.

 ----------------------------------------------------------------------
 # B3LYP/6-311++G(d,p) empiricaldispersion=gd3bj scf=xqc pop=npa geom=c
 heck
 ----------------------------------------------------------------------

 ---------------------------------------
 CID_143778867_JID_4053_Energie_neutraal
 ---------------------------------------
 Structure from the checkpoint file:  "JID_4053.chk"
 Charge =  0 Multiplicity = 1

 SCF Done:  E(RB3LYP) =  -596.486616510     A.U. after   16 cycles
 Normal termination of Gaussian 16 at Thu Dec 10 09:27:39 2020.

 ----------------------------------------------------------------------
 # B3LYP/6-311++G(d,p) empiricaldispersion=gd3bj scf=xqc pop=npa geom=c
 heck
 ----------------------------------------------------------------------

 -------------------------------------
 CID_143778867_JID_4053_Energie_kation
 -------------------------------------
 Structure from the checkpoint file:  "JID_4053.chk"
 Charge =  1 Multiplicity = 2

 SCF Done:  E(UB3LYP) =  -596.189877406     A.U. after   24 cycles
 Normal termination of Gaussian 16 at Thu Dec 10 09:35:16 2020.
 Gaussian 16:  ES64L-G16RevA.03 25-Dec-2016

 ----------------------------------------------------------------------
 # B3LYP/6-311++G(d,p) empiricaldispersion=gd3bj scf=xqc pop=npa geom=c
 heck
 ----------------------------------------------------------------------

 ------------------------------------
 CID_143778867_JID_4053_Energie_anion
 ------------------------------------
 Structure from the checkpoint file:  "JID_4053.chk"
 Charge = -1 Multiplicity = 2

                         Standard orientation:
 ---------------------------------------------------------------------
 Center     Atomic      Atomic             Coordinates (Angstroms)
 Number     Number       Type             X           Y           Z
 ---------------------------------------------------------------------
      1          6           0        0.126387    2.370898   -0.025939
      2          6           0       -0.485867    0.997767   -0.181930
      3          6           0        0.281914   -0.107608   -0.591195
      4          6           0       -0.357563   -1.345999   -0.745193
      5          6           0       -1.712548   -1.510034   -0.495259
      6          6           0       -2.471749   -0.410303   -0.080610
      7          6           0       -1.854684    0.835132    0.069302
      8          8           0       -3.795523   -0.649742    0.145105
      9          6           0       -4.608449    0.436243    0.557109
     10          6           0        1.766305    0.007353   -0.843237
     11          6           0        2.610388   -0.101815    0.460835
     12          6           0        2.491571   -1.479630    1.134675
     13          6           0        4.015982    0.205717    0.164778
     14          7           0        5.124092    0.440697   -0.090083
     15          1           0        0.909191    2.393125    0.741531
     16          1           0        0.588776    2.714912   -0.959193
     17          1           0       -0.631167    3.106617    0.258420
     18          1           0        0.226522   -2.201957   -1.074161
     19          1           0       -2.202347   -2.470152   -0.618522
     20          1           0       -2.430109    1.699891    0.379120
     21          1           0       -4.268087    0.854141    1.513730
     22          1           0       -4.627388    1.234073   -0.196952
     23          1           0       -5.613663    0.029244    0.677878
     24          1           0        2.093620   -0.786334   -1.524199
     25          1           0        2.006947    0.957219   -1.331478
     26          1           0        2.256685    0.661041    1.165645
     27          1           0        2.845351   -2.268685    0.462906
     28          1           0        3.085345   -1.518973    2.052225
     29          1           0        1.445744   -1.677450    1.382786
 ---------------------------------------------------------------------

 SCF Done:  E(UB3LYP) =  -596.476794454     A.U. after   33 cycles
 SCF Done:  E(UB3LYP) =  -596.476794455     a.u. after    1 cycles

 The electronic state is 2-A.
 Alpha  occ. eigenvalues --  -19.06068 -14.22477 -10.14205 -10.13447 -10.12399
 Alpha  occ. eigenvalues --  -10.12291 -10.10025 -10.09562 -10.08968 -10.08689
 Alpha  occ. eigenvalues --  -10.08637 -10.07889 -10.07726 -10.07479  -0.97664
 Alpha  occ. eigenvalues --   -0.82292  -0.77565  -0.73682  -0.68835  -0.66899
 Alpha  occ. eigenvalues --   -0.62541  -0.60955  -0.58737  -0.54885  -0.51395
 Alpha  occ. eigenvalues --   -0.48270  -0.43633  -0.43424  -0.40925  -0.38269
 Alpha  occ. eigenvalues --   -0.37508  -0.37450  -0.35393  -0.34534  -0.33141
 Alpha  occ. eigenvalues --   -0.32636  -0.32164  -0.30863  -0.29974  -0.29192
 Alpha  occ. eigenvalues --   -0.28779  -0.28152  -0.27939  -0.26654  -0.25989
 Alpha  occ. eigenvalues --   -0.24322  -0.23968  -0.23611  -0.22089  -0.16106
 Alpha  occ. eigenvalues --   -0.12991   0.04033
 Alpha virt. eigenvalues --    0.05970   0.06655   0.07153   0.07801   0.08220
 Alpha virt. eigenvalues --    0.08660   0.08881   0.09557   0.10033   0.10193
 Alpha virt. eigenvalues --    0.10669   0.11402   0.11585   0.11900   0.12169

  Beta  occ. eigenvalues --  -19.06059 -14.22465 -10.14202 -10.13427 -10.12344
  Beta  occ. eigenvalues --  -10.12289 -10.10015 -10.09556 -10.08940 -10.08685
  Beta  occ. eigenvalues --  -10.08632 -10.07886 -10.07707 -10.07436  -0.97642
  Beta  occ. eigenvalues --   -0.82268  -0.77548  -0.73652  -0.68805  -0.66872
  Beta  occ. eigenvalues --   -0.62487  -0.60898  -0.58679  -0.54829  -0.51352
  Beta  occ. eigenvalues --   -0.48231  -0.43591  -0.43380  -0.40897  -0.38238
  Beta  occ. eigenvalues --   -0.37469  -0.37408  -0.35359  -0.34493  -0.33096
  Beta  occ. eigenvalues --   -0.32594  -0.32128  -0.30831  -0.29929  -0.29160
  Beta  occ. eigenvalues --   -0.28747  -0.28123  -0.27910  -0.26625  -0.25956
  Beta  occ. eigenvalues --   -0.24302  -0.23923  -0.23576  -0.22062  -0.16082
  Beta  occ. eigenvalues --   -0.12970
  Beta virt. eigenvalues --    0.06090   0.07020   0.07197   0.07401   0.07931
  Beta virt. eigenvalues --    0.08516   0.09004   0.09335   0.10109   0.10417
  Beta virt. eigenvalues --    0.10653   0.10989   0.11478   0.11806   0.12146

 Mulliken charges and spin densities:
               1          2
     1  C    0.627021  -1.316267
     2  C   -1.415085   2.307684
     3  C    0.138090   0.876039
     4  C    0.420054  -1.088427
     5  C   -0.549623   0.269299
     6  C   -0.047828  -0.693304
     7  C    0.429364  -0.488007
     8  O   -0.231509   0.079373
     9  C    1.085465  -1.426755
    10  C    1.046227  -1.850585
    11  C   -0.543481   1.639208
    12  C    0.084800  -0.776734
    13  C    0.708536  -1.516067
    14  N   -0.327451   0.044363
    15  H   -0.128929   0.280383
    16  H   -0.083743   0.245073
    17  H   -0.743479   0.918826
    18  H   -0.027088   0.169065
    19  H   -0.045427   0.236415
    20  H    0.149885   0.012697
    21  H   -0.475854   0.643096
    22  H   -0.393209   0.552420
    23  H   -0.501686   0.681429
    24  H   -0.052548   0.251706
    25  H    0.221804  -0.061571
    26  H   -0.230674   0.408312
    27  H   -0.008257   0.164992
    28  H   -0.151551   0.309837
    29  H    0.046177   0.127500
 Sum of Mulliken charges =  -1.00000   1.00000

 Dipole moment (field-independent basis, Debye):
    X=              2.6373    Y=             -4.4786    Z=             -2.4911  Tot=              5.7636
 Quadrupole moment (field-independent basis, Debye-Ang):
   XX=           -197.3685   YY=           -126.1694   ZZ=           -116.6417
   XY=              5.9310   XZ=              4.9196   YZ=             -2.7776

 Summary of Natural Population Analysis:

                                       Natural Population
                Natural  -----------------------------------------------
    Atom  No    Charge         Core      Valence    Rydberg      Total
 -----------------------------------------------------------------------
      C    1   -0.29511      0.99963     2.28919    0.00628     3.29511
      C    2    0.00033      0.99949     1.98958    0.01061     2.99967
      C    3   -0.04138      0.99946     2.03060    0.01133     3.04138
      C    4   -0.08916      0.99952     2.08122    0.00842     3.08916
      C    5   -0.12267      0.99952     2.11371    0.00944     3.12267
      C    6    0.16694      0.99938     1.81962    0.01406     2.83306
      C    7   -0.13904      0.99947     2.13062    0.00895     3.13904
      O    8   -0.27285      0.99986     3.26284    0.01016     4.27285
      C    9   -0.10100      0.99960     2.09227    0.00913     3.10100
      C   10   -0.18585      0.99959     2.17737    0.00890     3.18585
      C   11   -0.16135      0.99951     2.15247    0.00937     3.16135
      C   12   -0.27958      0.99965     2.27316    0.00677     3.27958
      C   13    0.16705      0.99964     1.81470    0.01861     2.83295
      N   14   -0.18995      0.99979     2.67844    0.01172     3.68995
      H   15    0.10414      0.00000     0.39414    0.00172     0.39586
      H   16    0.10383      0.00000     0.39507    0.00110     0.39617
      H   17    0.10826      0.00000     0.39020    0.00154     0.39174
      H   18    0.09862      0.00000     0.40039    0.00099     0.40138
      H   19    0.10478      0.00000     0.39384    0.00138     0.39522
      H   20    0.10926      0.00000     0.38864    0.00209     0.39074
      H   21    0.08809      0.00000     0.40940    0.00252     0.41191
      H   22    0.08634      0.00000     0.41156    0.00210     0.41366
      H   23    0.09419      0.00000     0.40431    0.00150     0.40581
      H   24    0.10249      0.00000     0.39616    0.00135     0.39751
      H   25    0.10854      0.00000     0.38988    0.00158     0.39146
      H   26    0.12061      0.00000     0.37671    0.00268     0.37939
      H   27    0.09908      0.00000     0.39975    0.00117     0.40092
      H   28    0.10495      0.00000     0.39405    0.00100     0.39505
      H   29    0.11043      0.00000     0.38848    0.00109     0.38957
 =======================================================================
   * Total *   -0.00000     13.99410    36.83833    0.16757    51.00000

 Normal termination of Gaussian 16 at Thu Dec 10 09:45:45 2020.
