 Gaussian 16, Revision A.03,

 -----------------------------------------------------------
 # opt freq B3LYP/6-31G(d) empiricaldispersion=gd3bj scf=xqc
 -----------------------------------------------------------

 -------------------------------
 CID_63798519_JID_10068_neutraal
 -------------------------------
 Symbolic Z-matrix:
 Charge =  0 Multiplicity = 1

 SCF Done:  E(RB3LYP) =  -1259.18380692     A.U. after   16 cycles
 SCF Done:  E(RB3LYP) =  -1259.20603944     A.U. after   14 cycles
 SCF Done:  E(RB3LYP) =  -1259.20735967     A.U. after   16 cycles
 SCF Done:  E(RB3LYP) =  -1259.20608112     A.U. after   16 cycles
 SCF Done:  E(RB3LYP) =  -1259.20749097     A.U. after   14 cycles
 SCF Done:  E(RB3LYP) =  -1259.20933618     A.U. after   13 cycles
 SCF Done:  E(RB3LYP) =  -1259.20827222     A.U. after   14 cycles
 SCF Done:  E(RB3LYP) =  -1259.21125683     A.U. after   13 cycles
 SCF Done:  E(RB3LYP) =  -1259.21202326     A.U. after   13 cycles
 SCF Done:  E(RB3LYP) =  -1259.21272726     A.U. after   13 cycles
 SCF Done:  E(RB3LYP) =  -1259.21417475     A.U. after   11 cycles
 SCF Done:  E(RB3LYP) =  -1259.21418278     A.U. after   11 cycles
 SCF Done:  E(RB3LYP) =  -1259.21418400     A.U. after    9 cycles
 SCF Done:  E(RB3LYP) =  -1259.21418474     A.U. after    9 cycles
 SCF Done:  E(RB3LYP) =  -1259.21418483     A.U. after    7 cycles
 Optimization completed.
    -- Stationary point found.
 Normal termination of Gaussian 16 at Sun Dec 13 16:48:16 2020.

 --------------------------------------------------------------------
 #N Geom=AllCheck Guess=TCheck SCRF=Check GenChk RB3LYP/6-31G(d) Freq
 --------------------------------------------------------------------

 Structure from the checkpoint file:  "JID_10068.chk"
 -------------------------------
 CID_63798519_JID_10068_neutraal
 -------------------------------
 Charge =  0 Multiplicity = 1

 SCF Done:  E(RB3LYP) =  -1259.21418483     A.U. after    1 cycles

  Exact polarizability: 206.558  -0.061 236.844  -0.000   2.505 114.905
 Approx polarizability: 286.562  18.812 404.203  -2.882   2.779 190.039

                      1                      2                      3
                      A                      A                      A
 Frequencies --     17.9672                27.2404                43.9551
 Red. masses --      3.8082                 6.4216                 6.1596
 Frc consts  --      0.0007                 0.0028                 0.0070
 IR Inten    --      0.0673                 0.4721                 1.3859

                      4                      5                      6
                      A                      A                      A
 Frequencies --     51.6343                59.2251                79.0279
 Red. masses --      3.9128                 5.4420                 5.3512
 Frc consts  --      0.0061                 0.0112                 0.0197
 IR Inten    --      0.7623                 0.3321                 1.0214

                      7                      8                      9
                      A                      A                      A
 Frequencies --     91.5864               114.0545               139.3942
 Red. masses --      4.6138                 4.6459                 5.6821
 Frc consts  --      0.0228                 0.0356                 0.0651
 IR Inten    --      5.0116                 0.7938                 4.0033

                     10                     11                     12
                      A                      A                      A
 Frequencies --    163.9284               168.5786               192.7826
 Red. masses --      1.1600                 5.3132                 3.8772
 Frc consts  --      0.0184                 0.0890                 0.0849
 IR Inten    --      0.3248                 1.9240                 0.6917

                     13                     14                     15
                      A                      A                      A
 Frequencies --    208.9755               230.4426               243.7975
 Red. masses --      4.3579                 2.8878                 1.8004
 Frc consts  --      0.1121                 0.0904                 0.0630
 IR Inten    --      5.8970                 1.2298                12.9521

                     16                     17                     18
                      A                      A                      A
 Frequencies --    253.1604               272.7560               293.4671
 Red. masses --      4.1482                 3.7408                 2.0033
 Frc consts  --      0.1566                 0.1640                 0.1017
 IR Inten    --      0.4200                 6.7578                 5.1883

                     19                     20                     21
                      A                      A                      A
 Frequencies --    319.6333               355.0036               379.0305
 Red. masses --      2.5945                 1.7295                 2.8867
 Frc consts  --      0.1562                 0.1284                 0.2443
 IR Inten    --      8.1464               110.7888                35.1296

                     22                     23                     24
                      A                      A                      A
 Frequencies --    392.2092               405.6250               417.7994
 Red. masses --      2.9968                 6.3131                 2.3533
 Frc consts  --      0.2716                 0.6120                 0.2420
 IR Inten    --     54.7453                 0.8753                 2.0095

                     25                     26                     27
                      A                      A                      A
 Frequencies --    457.2965               480.8473               541.9334
 Red. masses --      6.5263                 5.0579                 6.0761
 Frc consts  --      0.8041                 0.6890                 1.0514
 IR Inten    --     15.9720                 3.8864                 2.2107

                     28                     29                     30
                      A                      A                      A
 Frequencies --    557.4052               591.4972               622.6942
 Red. masses --      6.2335                 7.7894                 4.1750
 Frc consts  --      1.1411                 1.6057                 0.9538
 IR Inten    --     13.2118                40.0805                 2.9934

                     31                     32                     33
                      A                      A                      A
 Frequencies --    637.9285               644.8213               659.9652
 Red. masses --      4.5455                 6.0085                 3.7246
 Frc consts  --      1.0899                 1.4720                 0.9558
 IR Inten    --     10.7685                10.8235                 7.4984

                     34                     35                     36
                      A                      A                      A
 Frequencies --    696.0973               713.6775               726.3038
 Red. masses --      3.9650                 2.5485                 1.6118
 Frc consts  --      1.1320                 0.7648                 0.5009
 IR Inten    --      8.9313                23.7310                29.6694

                     37                     38                     39
                      A                      A                      A
 Frequencies --    731.4489               762.6934               778.6652
 Red. masses --      3.2523                 2.9797                 4.2146
 Frc consts  --      1.0252                 1.0212                 1.5056
 IR Inten    --      1.2020                18.8143                31.0237

                     40                     41                     42
                      A                      A                      A
 Frequencies --    831.0475               840.6705               889.3584
 Red. masses --      5.1254                 1.3188                 4.3924
 Frc consts  --      2.0856                 0.5491                 2.0469
 IR Inten    --      9.9727                 7.2423                 5.8951

                     43                     44                     45
                      A                      A                      A
 Frequencies --    893.2427               902.0169               915.0286
 Red. masses --      1.3426                 4.0376                 6.1091
 Frc consts  --      0.6311                 1.9356                 3.0137
 IR Inten    --      0.4723                 9.0773                 9.5118

                     46                     47                     48
                      A                      A                      A
 Frequencies --    966.7452               985.1955               988.4962
 Red. masses --      2.1949                 1.7165                 1.6132
 Frc consts  --      1.2086                 0.9816                 0.9287
 IR Inten    --      8.9421                 9.0587                30.2925

                     49                     50                     51
                      A                      A                      A
 Frequencies --   1034.4918              1063.9896              1078.5883
 Red. masses --      5.1291                 2.6632                 2.4418
 Frc consts  --      3.2340                 1.7764                 1.6737
 IR Inten    --     37.8474               133.7176                17.6969

                     52                     53                     54
                      A                      A                      A
 Frequencies --   1082.4684              1085.6492              1127.1724
 Red. masses --      1.7944                 1.4745                 1.3781
 Frc consts  --      1.2388                 1.0239                 1.0316
 IR Inten    --     11.3785                 5.9374                15.4479

                     55                     56                     57
                      A                      A                      A
 Frequencies --   1145.1319              1177.5891              1180.1536
 Red. masses --      1.9275                 1.3058                 2.2599
 Frc consts  --      1.4892                 1.0669                 1.8544
 IR Inten    --      7.9758                 6.1227                16.3759

                     58                     59                     60
                      A                      A                      A
 Frequencies --   1210.5146              1220.3471              1237.5386
 Red. masses --      2.3796                 1.1002                 3.1799
 Frc consts  --      2.0544                 0.9654                 2.8693
 IR Inten    --     28.2512                14.5418                25.1058

                     61                     62                     63
                      A                      A                      A
 Frequencies --   1259.1089              1278.4188              1292.1081
 Red. masses --      5.0135                 2.0898                 2.0853
 Frc consts  --      4.6829                 2.0123                 2.0513
 IR Inten    --     60.9253                13.6481                 6.0788

                     64                     65                     66
                      A                      A                      A
 Frequencies --   1326.0141              1372.4361              1398.6545
 Red. masses --      1.8140                 1.2202                 1.4064
 Frc consts  --      1.8792                 1.3541                 1.6210
 IR Inten    --     87.1086                 3.8306                 2.4931

                     67                     68                     69
                      A                      A                      A
 Frequencies --   1415.4712              1427.5404              1444.7784
 Red. masses --      2.4753                 1.4176                 1.6602
 Frc consts  --      2.9220                 1.7020                 2.0418
 IR Inten    --      7.8323                94.2427                26.2503

                     70                     71                     72
                      A                      A                      A
 Frequencies --   1457.4752              1465.2114              1473.8025
 Red. masses --      2.1027                 2.3751                 3.8120
 Frc consts  --      2.6316                 3.0043                 4.8785
 IR Inten    --     84.5647                 3.1260                38.3445

                     73                     74                     75
                      A                      A                      A
 Frequencies --   1502.4958              1508.0075              1517.3715
 Red. masses --      1.1812                 1.3361                 1.1436
 Frc consts  --      1.5711                 1.7902                 1.5513
 IR Inten    --      9.7478                56.5590                10.0059

                     76                     77                     78
                      A                      A                      A
 Frequencies --   1519.0101              1523.8736              1525.3172
 Red. masses --      1.0800                 1.0570                 1.0462
 Frc consts  --      1.4683                 1.4461                 1.4341
 IR Inten    --      0.5462                 4.6390                11.2039

                     79                     80                     81
                      A                      A                      A
 Frequencies --   1556.8304              1564.7457              1574.3966
 Red. masses --      1.2932                 3.7557                 4.7381
 Frc consts  --      1.8467                 5.4179                 6.9197
 IR Inten    --     43.8245                17.0432                20.5516

                     82                     83                     84
                      A                      A                      A
 Frequencies --   1668.6557              1704.4277              2345.4362
 Red. masses --      6.6485                10.1106                11.9042
 Frc consts  --     10.9071                17.3055                38.5831
 IR Inten    --      8.2967               264.0712                14.2461

                     85                     86                     87
                      A                      A                      A
 Frequencies --   3010.0779              3041.5591              3053.9546
 Red. masses --      1.0706                 1.0387                 1.0560
 Frc consts  --      5.7155                 5.6613                 5.8028
 IR Inten    --     68.7293                40.3392                25.1385

                     88                     89                     90
                      A                      A                      A
 Frequencies --   3058.0113              3091.3777              3094.7941
 Red. masses --      1.0520                 1.1009                 1.0916
 Frc consts  --      5.7965                 6.1986                 6.1599
 IR Inten    --     25.9233                16.9880                15.0256

                     91                     92                     93
                      A                      A                      A
 Frequencies --   3113.2214              3153.3584              3162.1383
 Red. masses --      1.1049                 1.1001                 1.0932
 Frc consts  --      6.3096                 6.4450                 6.4402
 IR Inten    --      9.0543                 5.0391                 3.0965

                     94                     95                     96
                      A                      A                      A
 Frequencies --   3188.6581              3235.4813              3256.5249
 Red. masses --      1.0980                 1.0909                 1.0927
 Frc consts  --      6.5775                 6.7282                 6.8275
 IR Inten    --      8.4328                 3.8919                 2.7451

                     97                     98                     99
                      A                      A                      A
 Frequencies --   3271.8845              3300.8586              3738.0029
 Red. masses --      1.0978                 1.1032                 1.0663
 Frc consts  --      6.9242                 7.0822                 8.7783
 IR Inten    --      0.4570                 2.6370                15.6595

 - Thermochemistry -
 -------------------
 Temperature   298.150 Kelvin.  Pressure   1.00000 Atm.
 Atom     1 has atomic number  6 and mass  12.00000

 Molecular mass:   289.07727 amu.
 Principal axes and moments of inertia in atomic units:
                           1         2         3
     Eigenvalues --  4563.023998376.94361**********
           X            0.99983   0.01816  -0.00297
           Y           -0.01816   0.99983  -0.00170
           Z            0.00294   0.00175   0.99999
 This molecule is an asymmetric top.
 Rotational symmetry number  1.
 Warning -- assumption of classical behavior for rotation
           may cause significant error
 Rotational temperatures (Kelvin)      0.01898     0.01034     0.00724
 Rotational constants (GHZ):           0.39551     0.21544     0.15091
 Zero-point vibrational energy     719383.2 (Joules/Mol)
                                  171.93671 (Kcal/Mol)
 Warning -- explicit consideration of  29 degrees of freedom as
           vibrations may cause significant error
 Vibrational temperatures:     25.85    39.19    63.24    74.29    85.21
          (Kelvin)            113.70   131.77   164.10   200.56   235.86
                              242.55   277.37   300.67   331.56   350.77
                              364.24   392.44   422.23   459.88   510.77
                              545.34   564.30   583.60   601.12   657.95
                              691.83   779.72   801.98   851.03   895.92
                              917.84   927.75   949.54  1001.53  1026.82
                             1044.99  1052.39  1097.35  1120.33  1195.69
                             1209.54  1279.59  1285.18  1297.80  1316.52
                             1390.93  1417.48  1422.23  1488.40  1530.84
                             1551.85  1557.43  1562.01  1621.75  1647.59
                             1694.29  1697.98  1741.66  1755.81  1780.54
                             1811.58  1839.36  1859.06  1907.84  1974.63
                             2012.35  2036.55  2053.91  2078.71  2096.98
                             2108.11  2120.47  2161.76  2169.69  2183.16
                             2185.52  2192.51  2194.59  2239.93  2251.32
                             2265.21  2400.82  2452.29  3374.56  4330.83
                             4376.13  4393.96  4399.80  4447.80  4452.72
                             4479.23  4536.98  4549.61  4587.77  4655.14
                             4685.41  4707.51  4749.20  5378.15

 Zero-point correction=                           0.273999 (Hartree/Particle)
 Thermal correction to Energy=                    0.293809
 Thermal correction to Enthalpy=                  0.294753
 Thermal correction to Gibbs Free Energy=         0.223272
 Sum of electronic and zero-point Energies=          -1258.940186
 Sum of electronic and thermal Energies=             -1258.920376
 Sum of electronic and thermal Enthalpies=           -1258.919432
 Sum of electronic and thermal Free Energies=        -1258.990913

                     E (Thermal)             CV                S
                      KCal/Mol        Cal/Mol-Kelvin    Cal/Mol-Kelvin
 Total                  184.368             72.748            150.444
 Electronic               0.000              0.000              0.000
 Translational            0.889              2.981             42.882
 Rotational               0.889              2.981             34.479
 Vibrational            182.590             66.786             73.083
 Vibration     1          0.593              1.986              6.847
 Vibration     2          0.593              1.984              6.021
 Vibration     3          0.595              1.980              5.072
 Vibration     4          0.596              1.977              4.754
 Vibration     5          0.597              1.974              4.483
 Vibration     6          0.600              1.963              3.915
 Vibration     7          0.602              1.955              3.626
 Vibration     8          0.607              1.938              3.199
 Vibration     9          0.615              1.914              2.812
 Vibration    10          0.623              1.887              2.504
 Vibration    11          0.625              1.881              2.451
 Vibration    12          0.635              1.850              2.201
 Vibration    13          0.642              1.827              2.053
 Vibration    14          0.652              1.794              1.875
 Vibration    15          0.659              1.773              1.775
 Vibration    16          0.664              1.757              1.708
 Vibration    17          0.676              1.724              1.579
 Vibration    18          0.688              1.686              1.454
 Vibration    19          0.706              1.636              1.312
 Vibration    20          0.731              1.565              1.144
 Vibration    21          0.749              1.515              1.043
 Vibration    22          0.760              1.487              0.992
 Vibration    23          0.771              1.458              0.942
 Vibration    24          0.781              1.432              0.899
 Vibration    25          0.815              1.345              0.774
 Vibration    26          0.837              1.293              0.708
 Vibration    27          0.897              1.157              0.561
 Vibration    28          0.913              1.124              0.529
 Vibration    29          0.949              1.050              0.465

                           ! Non-Optimized Parameters !
 Normal termination of Gaussian 16 at Sun Dec 13 17:05:39 2020.

 ----------------------------------------------------------------------
 # B3LYP/6-311++G(d,p) empiricaldispersion=gd3bj scf=xqc pop=npa geom=c
 heck
 ----------------------------------------------------------------------

 ---------------------------------------
 CID_63798519_JID_10068_Energie_neutraal
 ---------------------------------------
 Structure from the checkpoint file:  "JID_10068.chk"
 Charge =  0 Multiplicity = 1

 SCF Done:  E(RB3LYP) =  -1259.48572510     A.U. after   16 cycles
 Normal termination of Gaussian 16 at Sun Dec 13 17:12:27 2020.

 ----------------------------------------------------------------------
 # B3LYP/6-311++G(d,p) empiricaldispersion=gd3bj scf=xqc pop=npa geom=c
 heck
 ----------------------------------------------------------------------

 -------------------------------------
 CID_63798519_JID_10068_Energie_kation
 -------------------------------------
 Structure from the checkpoint file:  "JID_10068.chk"
 Charge =  1 Multiplicity = 2

 SCF Done:  E(UB3LYP) =  -1259.20041095     A.U. after   33 cycles
 SCF Done:  E(UB3LYP) =  -1259.20041095     a.u. after    1 cycles
 Normal termination of Gaussian 16 at Sun Dec 13 17:31:25 2020.
 Gaussian 16:  ES64L-G16RevA.03 25-Dec-2016

 ----------------------------------------------------------------------
 # B3LYP/6-311++G(d,p) empiricaldispersion=gd3bj scf=xqc pop=npa geom=c
 heck
 ----------------------------------------------------------------------

 ------------------------------------
 CID_63798519_JID_10068_Energie_anion
 ------------------------------------
 Structure from the checkpoint file:  "JID_10068.chk"
 Charge = -1 Multiplicity = 2

                         Standard orientation:
 ---------------------------------------------------------------------
 Center     Atomic      Atomic             Coordinates (Angstroms)
 Number     Number       Type             X           Y           Z
 ---------------------------------------------------------------------
      1          6           0       -3.337997   -2.039165    0.571750
      2          6           0       -3.554119   -0.643565    0.107220
      3          6           0       -2.859399    0.526130    0.268855
      4          6           0       -3.602928    1.537252   -0.438104
      5          6           0       -4.687483    0.916780   -0.970782
      6          8           0       -4.672907   -0.410943   -0.649203
      7          6           0       -1.569054    0.725438    1.014231
      8          7           0       -0.375798    0.296797    0.268366
      9          6           0       -0.109086    1.030619   -0.960348
     10          6           0        0.254416   -0.844872    0.668235
     11          8           0       -0.203515   -1.599955    1.532789
     12          6           0        1.569976   -1.184593    0.052004
     13          6           0        2.711694   -0.411980   -0.124886
     14          6           0        3.824383   -1.187147   -0.599828
     15          6           0        3.517428   -2.507577   -0.756596
     16         16           0        1.880719   -2.854032   -0.310265
     17          6           0        2.777030    0.976432    0.158437
     18          6           0        2.799849    2.161942    0.410447
     19          6           0        2.697615    3.610938    0.590953
     20          8           0        1.729896    4.201016   -0.280586
     21          1           0       -4.148826   -2.367487    1.234190
     22          1           0       -3.307834   -2.734032   -0.276615
     23          1           0       -2.388882   -2.109256    1.108513
     24          1           0       -3.349272    2.585862   -0.518560
     25          1           0       -5.523533    1.246192   -1.568007
     26          1           0       -1.443702    1.791053    1.242117
     27          1           0       -1.564074    0.171149    1.952248
     28          1           0        0.208990    2.054989   -0.738722
     29          1           0        0.669540    0.532735   -1.535470
     30          1           0       -1.024982    1.059768   -1.561241
     31          1           0        4.798290   -0.756664   -0.799681
     32          1           0        4.162342   -3.301318   -1.108535
     33          1           0        2.357767    3.846273    1.604958
     34          1           0        3.685577    4.079916    0.463993
     35          1           0        1.985940    3.967013   -1.187033
 ---------------------------------------------------------------------

 SCF Done:  E(UB3LYP) =  -1259.49737639     A.U. after   29 cycles

 The electronic state is 2-A.
 Alpha  occ. eigenvalues --  -88.72721 -19.09645 -19.01704 -18.94483 -14.21299
 Alpha  occ. eigenvalues --  -10.13212 -10.13186 -10.13149 -10.12666 -10.09895
 Alpha  occ. eigenvalues --  -10.08297 -10.07843 -10.07495 -10.07267 -10.05834
 Alpha  occ. eigenvalues --  -10.04751 -10.04690 -10.04564 -10.03645 -10.02550
 Alpha  occ. eigenvalues --   -7.81387  -5.77687  -5.77314  -5.77012  -1.02025
 Alpha  occ. eigenvalues --   -0.91788  -0.90098  -0.80986  -0.74470  -0.71710
 Alpha  occ. eigenvalues --   -0.68770  -0.65244  -0.62444  -0.61245  -0.60118
 Alpha  occ. eigenvalues --   -0.58959  -0.57344  -0.55621  -0.50564  -0.47785
 Alpha  occ. eigenvalues --   -0.44977  -0.44306  -0.42571  -0.41702  -0.41007
 Alpha  occ. eigenvalues --   -0.40071  -0.37422  -0.36153  -0.35773  -0.34994
 Alpha  occ. eigenvalues --   -0.34382  -0.33673  -0.32513  -0.30935  -0.30870
 Alpha  occ. eigenvalues --   -0.30290  -0.29595  -0.29168  -0.28552  -0.28193
 Alpha  occ. eigenvalues --   -0.27069  -0.26242  -0.25830  -0.25252  -0.24783
 Alpha  occ. eigenvalues --   -0.23104  -0.21151  -0.18892  -0.18794  -0.17333
 Alpha  occ. eigenvalues --   -0.14217  -0.13630  -0.12928  -0.11865  -0.10899
 Alpha  occ. eigenvalues --   -0.09686   0.04066
 Alpha virt. eigenvalues --    0.06859   0.07446   0.08455   0.08658   0.08928
 Alpha virt. eigenvalues --    0.09431   0.09545   0.10705   0.11081   0.11435
 Alpha virt. eigenvalues --    0.11736   0.12281   0.12903   0.13196   0.13889

  Beta  occ. eigenvalues --  -88.72642 -19.09644 -19.01616 -18.94311 -14.21226
  Beta  occ. eigenvalues --  -10.13213 -10.13182 -10.13048 -10.12668 -10.09897
  Beta  occ. eigenvalues --  -10.08297 -10.07838 -10.07487 -10.07263 -10.05667
  Beta  occ. eigenvalues --  -10.04779 -10.04584 -10.04137 -10.03615 -10.02392
  Beta  occ. eigenvalues --   -7.81316  -5.77646  -5.77277  -5.76760  -1.02022
  Beta  occ. eigenvalues --   -0.91567  -0.89782  -0.80805  -0.74105  -0.71694
  Beta  occ. eigenvalues --   -0.68766  -0.64909  -0.62264  -0.60916  -0.59764
  Beta  occ. eigenvalues --   -0.58929  -0.57246  -0.55449  -0.50536  -0.47365
  Beta  occ. eigenvalues --   -0.44807  -0.44118  -0.42416  -0.41562  -0.40862
  Beta  occ. eigenvalues --   -0.39898  -0.37402  -0.36028  -0.35732  -0.34901
  Beta  occ. eigenvalues --   -0.34184  -0.33483  -0.32391  -0.30912  -0.30848
  Beta  occ. eigenvalues --   -0.30194  -0.29549  -0.29014  -0.28486  -0.27833
  Beta  occ. eigenvalues --   -0.26823  -0.26056  -0.25630  -0.25098  -0.24214
  Beta  occ. eigenvalues --   -0.22513  -0.20785  -0.18821  -0.18585  -0.16492
  Beta  occ. eigenvalues --   -0.14010  -0.13536  -0.12593  -0.11325  -0.10138
  Beta  occ. eigenvalues --   -0.07912
  Beta virt. eigenvalues --    0.06816   0.07455   0.08393   0.08646   0.08899
  Beta virt. eigenvalues --    0.09280   0.09440   0.09955   0.10670   0.11126
  Beta virt. eigenvalues --    0.11376   0.11760   0.12272   0.12897   0.13613

 Mulliken charges and spin densities:
               1          2
     1  C   -0.617424   0.009987
     2  C   -0.172076  -0.011024
     3  C    0.898347  -0.023348
     4  C    0.002303  -0.002244
     5  C   -0.182981  -0.005395
     6  O   -0.020111   0.000177
     7  C   -1.051158   0.035326
     8  N    0.348893   0.034190
     9  C   -0.517238  -0.060237
    10  C   -0.870778   0.053858
    11  O   -0.350981   0.054621
    12  C    0.312054   0.317589
    13  C   -0.110306   0.119774
    14  C    0.654370  -0.076351
    15  C   -0.251176   0.101826
    16  S   -0.714196   0.135808
    17  C    0.151505   0.018962
    18  C   -0.377633   0.300281
    19  C   -0.145111  -0.273304
    20  O   -0.174202  -0.026525
    21  H    0.135306   0.003864
    22  H    0.141227   0.001168
    23  H    0.212533   0.007737
    24  H    0.132668   0.018939
    25  H    0.164610  -0.000552
    26  H    0.158361   0.000921
    27  H    0.213456  -0.002591
    28  H    0.225872  -0.063864
    29  H    0.159489   0.012159
    30  H    0.104934   0.032863
    31  H    0.107171   0.013019
    32  H    0.186532  -0.004801
    33  H    0.128407   0.033595
    34  H    0.079852   0.058642
    35  H    0.037479   0.184932
 Sum of Mulliken charges =  -1.00000   1.00000

 Dipole moment (field-independent basis, Debye):
    X=             -4.8143    Y=              1.1447    Z=             -1.7802  Tot=              5.2590
 Quadrupole moment (field-independent basis, Debye-Ang):
   XX=           -159.8385   YY=           -165.7260   ZZ=           -137.6979
   XY=             -2.8560   XZ=             -0.7426   YZ=              4.3576

 Summary of Natural Population Analysis:

                                       Natural Population
                Natural  -----------------------------------------------
    Atom  No    Charge         Core      Valence    Rydberg      Total
 -----------------------------------------------------------------------
      C    1   -0.31706      0.99962     2.31249    0.00494     3.31706
      C    2    0.16249      0.99941     1.82568    0.01242     2.83751
      C    3   -0.06856      0.99945     2.06102    0.00810     3.06856
      C    4   -0.14568      0.99953     2.13798    0.00817     3.14568
      C    5    0.04865      0.99952     1.93818    0.01365     2.95135
      O    6   -0.24145      0.99986     3.23312    0.00846     4.24145
      C    7   -0.09603      0.99958     2.08662    0.00983     3.09603
      N    8   -0.23752      0.99964     2.72781    0.01007     3.73752
      C    9   -0.18354      0.99964     2.17532    0.00858     3.18354
      C   10    0.34348      0.99955     1.63421    0.02276     2.65652
      O   11   -0.32657      0.99988     3.32155    0.00514     4.32657
      C   12   -0.04190      0.99943     2.03081    0.01166     3.04190
      C   13   -0.07241      0.99941     2.06244    0.01056     3.07241
      C   14   -0.13280      0.99951     2.12399    0.00930     3.13280
      C   15   -0.17688      0.99955     2.16633    0.01100     3.17688
      S   16    0.24209      4.99942     2.73551    0.02298     7.75791
      C   17    0.01060      0.99927     1.98289    0.00725     2.98940
      C   18   -0.01707      0.99923     2.01161    0.00623     3.01707
      C   19   -0.04546      0.99955     2.03159    0.01432     3.04546
      O   20   -0.36354      0.99990     3.35658    0.00706     4.36354
      H   21    0.09994      0.00000     0.39907    0.00099     0.40006
      H   22    0.10488      0.00000     0.39419    0.00094     0.39512
      H   23    0.13431      0.00000     0.36465    0.00103     0.36569
      H   24    0.10820      0.00000     0.39100    0.00080     0.39180
      H   25    0.09093      0.00000     0.40810    0.00097     0.40907
      H   26    0.09598      0.00000     0.40301    0.00100     0.40402
      H   27    0.12022      0.00000     0.37858    0.00120     0.37978
      H   28    0.10068      0.00000     0.39794    0.00138     0.39932
      H   29    0.11130      0.00000     0.38772    0.00098     0.38870
      H   30    0.08878      0.00000     0.40991    0.00131     0.41122
      H   31    0.10017      0.00000     0.39875    0.00108     0.39983
      H   32    0.09841      0.00000     0.40065    0.00094     0.40159
      H   33    0.09441      0.00000     0.40431    0.00129     0.40559
      H   34    0.08348      0.00000     0.41513    0.00138     0.41652
      H   35    0.22746      0.00000     0.26866    0.00388     0.27254
 =======================================================================
   * Total *    0.00000     23.99095    51.77741    0.23165    76.00000

 Normal termination of Gaussian 16 at Sun Dec 13 17:47:48 2020.
