 Gaussian 16, Revision A.03,

 -----------------------------------------------------------
 # opt freq B3LYP/6-31G(d) empiricaldispersion=gd3bj scf=xqc
 -----------------------------------------------------------

 ------------------------------
 CID_84733681_JID_4462_neutraal
 ------------------------------
 Symbolic Z-matrix:
 Charge =  0 Multiplicity = 1

 SCF Done:  E(RB3LYP) =  -633.209519903     A.U. after   13 cycles
 SCF Done:  E(RB3LYP) =  -633.215761702     A.U. after   11 cycles
 SCF Done:  E(RB3LYP) =  -633.217072932     A.U. after   11 cycles
 SCF Done:  E(RB3LYP) =  -633.217394223     A.U. after   10 cycles
 SCF Done:  E(RB3LYP) =  -633.217473244     A.U. after   10 cycles
 SCF Done:  E(RB3LYP) =  -633.217482514     A.U. after    9 cycles
 SCF Done:  E(RB3LYP) =  -633.217485387     A.U. after    7 cycles
 SCF Done:  E(RB3LYP) =  -633.217486267     A.U. after    7 cycles
 SCF Done:  E(RB3LYP) =  -633.217486433     A.U. after    6 cycles
 SCF Done:  E(RB3LYP) =  -633.217486495     A.U. after    6 cycles
 Optimization completed.
    -- Stationary point found.
 Normal termination of Gaussian 16 at Thu Dec 10 09:49:37 2020.

 --------------------------------------------------------------------
 #N Geom=AllCheck Guess=TCheck SCRF=Check GenChk RB3LYP/6-31G(d) Freq
 --------------------------------------------------------------------

 Structure from the checkpoint file:  "JID_4462.chk"
 ------------------------------
 CID_84733681_JID_4462_neutraal
 ------------------------------
 Charge =  0 Multiplicity = 1

 SCF Done:  E(RB3LYP) =  -633.217486495     A.U. after    1 cycles

  Exact polarizability: 144.002  -3.259 124.384   1.983   0.889 108.134
 Approx polarizability: 176.656  -0.956 178.576  -0.779  -1.456 166.971

                      1                      2                      3
                      A                      A                      A
 Frequencies --     44.3005                50.8150                76.7453
 Red. masses --      3.9006                 3.0977                 4.0628
 Frc consts  --      0.0045                 0.0047                 0.0141
 IR Inten    --      0.1842                 0.3434                 0.6533

                      4                      5                      6
                      A                      A                      A
 Frequencies --    142.7080               184.3947               226.6797
 Red. masses --      3.3822                 3.1772                 3.4868
 Frc consts  --      0.0406                 0.0636                 0.1056
 IR Inten    --      2.1455                 1.8720                 2.3667

                      7                      8                      9
                      A                      A                      A
 Frequencies --    259.2937               268.4073               297.5842
 Red. masses --      2.5522                 1.9160                 1.9618
 Frc consts  --      0.1011                 0.0813                 0.1024
 IR Inten    --      0.4153                 0.3779                 0.8936

                     10                     11                     12
                      A                      A                      A
 Frequencies --    332.7185               346.1966               379.4345
 Red. masses --      2.7144                 1.2651                 2.0800
 Frc consts  --      0.1770                 0.0893                 0.1764
 IR Inten    --     12.2508                20.8293                19.2281

                     13                     14                     15
                      A                      A                      A
 Frequencies --    390.3179               409.4175               434.2067
 Red. masses --      2.0849                 2.3785                 1.9372
 Frc consts  --      0.1871                 0.2349                 0.2152
 IR Inten    --      2.3240                 6.7710                 1.2788

                     16                     17                     18
                      A                      A                      A
 Frequencies --    449.8478               469.9689               477.4854
 Red. masses --      2.8222                 2.6832                 3.0436
 Frc consts  --      0.3365                 0.3492                 0.4088
 IR Inten    --      2.7121                 6.1530                 0.6820

                     19                     20                     21
                      A                      A                      A
 Frequencies --    500.8596               546.3284               584.7550
 Red. masses --      2.5674                 3.6944                 1.8952
 Frc consts  --      0.3795                 0.6497                 0.3818
 IR Inten    --      1.0191                 0.3336                19.6713

                     22                     23                     24
                      A                      A                      A
 Frequencies --    639.0519               755.3936               796.7537
 Red. masses --      1.8541                 2.7921                 1.5939
 Frc consts  --      0.4461                 0.9387                 0.5962
 IR Inten    --      5.4419                 5.1672                52.3386

                     25                     26                     27
                      A                      A                      A
 Frequencies --    823.5178               862.1676               873.6317
 Red. masses --      3.3392                 2.5557                 1.6758
 Frc consts  --      1.3343                 1.1193                 0.7536
 IR Inten    --      5.2559                 8.6640                 3.3563

                     28                     29                     30
                      A                      A                      A
 Frequencies --    887.5666               894.2177               906.9363
 Red. masses --      2.9781                 1.9079                 1.5931
 Frc consts  --      1.3822                 0.8988                 0.7721
 IR Inten    --     29.6266                 8.2479                 6.0689

                     31                     32                     33
                      A                      A                      A
 Frequencies --    919.2557               935.5419               949.1354
 Red. masses --      2.1077                 1.9325                 1.7523
 Frc consts  --      1.0494                 0.9966                 0.9301
 IR Inten    --     16.2434               171.4946                23.3690

                     34                     35                     36
                      A                      A                      A
 Frequencies --    983.6294              1022.9369              1026.6478
 Red. masses --      1.8576                 2.3006                 1.9610
 Frc consts  --      1.0589                 1.4184                 1.2178
 IR Inten    --      1.8078                34.8072                12.8594

                     37                     38                     39
                      A                      A                      A
 Frequencies --   1040.5312              1062.4287              1079.1867
 Red. masses --      1.8738                 2.2416                 1.5903
 Frc consts  --      1.1953                 1.4908                 1.0913
 IR Inten    --      9.0850                 8.7931                 1.0251

                     40                     41                     42
                      A                      A                      A
 Frequencies --   1091.4591              1111.3697              1143.8973
 Red. masses --      1.6680                 1.7454                 2.3548
 Frc consts  --      1.1707                 1.2702                 1.8154
 IR Inten    --      1.7887                 1.4554                28.9034

                     43                     44                     45
                      A                      A                      A
 Frequencies --   1151.6308              1152.8295              1157.8820
 Red. masses --      2.8529                 2.9465                 3.3977
 Frc consts  --      2.2292                 2.3072                 2.6839
 IR Inten    --     26.4249                52.8513                33.8313

                     46                     47                     48
                      A                      A                      A
 Frequencies --   1176.2274              1191.5831              1204.6643
 Red. masses --      2.5320                 1.5921                 1.6352
 Frc consts  --      2.0639                 1.3319                 1.3982
 IR Inten    --     63.3109                 0.9527                 7.1074

                     49                     50                     51
                      A                      A                      A
 Frequencies --   1224.2522              1231.8492              1243.6834
 Red. masses --      2.0143                 1.5201                 1.0763
 Frc consts  --      1.7788                 1.3591                 0.9809
 IR Inten    --     12.1392                 9.7506                 3.4018

                     52                     53                     54
                      A                      A                      A
 Frequencies --   1286.5055              1318.2526              1326.2179
 Red. masses --      1.2021                 1.2304                 1.3127
 Frc consts  --      1.1722                 1.2598                 1.3604
 IR Inten    --     12.9005                 0.9871                12.5094

                     55                     56                     57
                      A                      A                      A
 Frequencies --   1333.9631              1348.9717              1353.8214
 Red. masses --      1.4214                 1.3555                 1.2837
 Frc consts  --      1.4902                 1.4533                 1.3863
 IR Inten    --     26.3771                21.2185                17.3609

                     58                     59                     60
                      A                      A                      A
 Frequencies --   1357.1573              1376.2004              1382.9198
 Red. masses --      1.4066                 1.4576                 1.3235
 Frc consts  --      1.5264                 1.6265                 1.4913
 IR Inten    --     14.0391                 2.7203                 7.1730

                     61                     62                     63
                      A                      A                      A
 Frequencies --   1393.6951              1398.5490              1415.0935
 Red. masses --      1.3823                 1.5358                 1.4971
 Frc consts  --      1.5820                 1.7699                 1.7663
 IR Inten    --      2.3639                 9.3451                 6.0299

                     64                     65                     66
                      A                      A                      A
 Frequencies --   1419.4161              1434.7742              1441.0147
 Red. masses --      1.4339                 1.3817                 1.5137
 Frc consts  --      1.7021                 1.6758                 1.8520
 IR Inten    --      6.2809                15.7684                 1.0463

                     67                     68                     69
                      A                      A                      A
 Frequencies --   1448.6589              1498.9214              1509.8552
 Red. masses --      1.4791                 1.3107                 1.0835
 Frc consts  --      1.8288                 1.7351                 1.4552
 IR Inten    --      1.4989                 2.5705                 0.1757

                     70                     71                     72
                      A                      A                      A
 Frequencies --   1513.1468              1515.0695              1518.9246
 Red. masses --      1.0839                 1.0844                 1.0925
 Frc consts  --      1.4622                 1.4665                 1.4851
 IR Inten    --      3.7248                 0.9954                 1.8692

                     73                     74                     75
                      A                      A                      A
 Frequencies --   1522.4746              1524.4605              1528.1202
 Red. masses --      1.1020                 1.1101                 1.1055
 Frc consts  --      1.5050                 1.5199                 1.5209
 IR Inten    --      9.1718                 6.7244                 2.4687

                     76                     77                     78
                      A                      A                      A
 Frequencies --   1536.1993              1544.6205              1692.9903
 Red. masses --      1.1084                 1.0960                 1.0924
 Frc consts  --      1.5412                 1.5406                 1.8448
 IR Inten    --      2.1641                 8.3265                19.3224

                     79                     80                     81
                      A                      A                      A
 Frequencies --   2925.4473              2936.5255              2943.7571
 Red. masses --      1.0734                 1.0727                 1.0720
 Frc consts  --      5.4125                 5.4500                 5.4733
 IR Inten    --     90.9881                32.1574                93.9250

                     82                     83                     84
                      A                      A                      A
 Frequencies --   2970.3120              2989.2400              2996.7515
 Red. masses --      1.0717                 1.0701                 1.0704
 Frc consts  --      5.5710                 5.6337                 5.6638
 IR Inten    --     63.2070                22.8501                99.4637

                     85                     86                     87
                      A                      A                      A
 Frequencies --   3019.4041              3028.6872              3053.6267
 Red. masses --      1.0658                 1.0629                 1.0634
 Frc consts  --      5.7248                 5.7443                 5.8420
 IR Inten    --     23.1659                51.5561                23.3225

                     88                     89                     90
                      A                      A                      A
 Frequencies --   3070.4767              3079.1189              3081.0061
 Red. masses --      1.0989                 1.0892                 1.0874
 Frc consts  --      6.1043                 6.0843                 6.0819
 IR Inten    --     25.6823                29.4162                65.3095

                     91                     92                     93
                      A                      A                      A
 Frequencies --   3086.8279              3092.1878              3098.0123
 Red. masses --      1.0990                 1.0900                 1.1019
 Frc consts  --      6.1697                 6.1407                 6.2311
 IR Inten    --     26.7043                32.3606                60.4496

                     94                     95                     96
                      A                      A                      A
 Frequencies --   3108.4852              3111.7033              3114.3168
 Red. masses --      1.0906                 1.0932                 1.0939
 Frc consts  --      6.2091                 6.2364                 6.2512
 IR Inten    --      9.9528                53.8937                39.5082

                     97                     98                     99
                      A                      A                      A
 Frequencies --   3431.2853              3501.4451              3518.7796
 Red. masses --      1.0488                 1.0747                 1.0915
 Frc consts  --      7.2755                 7.7629                 7.9627
 IR Inten    --      4.6443                 0.8584                 1.8956

 - Thermochemistry -
 -------------------
 Temperature   298.150 Kelvin.  Pressure   1.00000 Atm.
 Atom     1 has atomic number  6 and mass  12.00000

 Molecular mass:   199.16846 amu.
 Principal axes and moments of inertia in atomic units:
                           1         2         3
     Eigenvalues --  1276.624074549.843935093.58762
           X            0.99997  -0.00639   0.00415
           Y            0.00631   0.99979   0.01972
           Z           -0.00428  -0.01969   0.99980
 This molecule is an asymmetric top.
 Rotational symmetry number  1.
 Warning -- assumption of classical behavior for rotation
           may cause significant error
 Rotational temperatures (Kelvin)      0.06785     0.01904     0.01700
 Rotational constants (GHZ):           1.41368     0.39666     0.35432
 Zero-point vibrational energy     846416.1 (Joules/Mol)
                                  202.29829 (Kcal/Mol)
 Warning -- explicit consideration of  21 degrees of freedom as
           vibrations may cause significant error
 Vibrational temperatures:     63.74    73.11   110.42   205.32   265.30
          (Kelvin)            326.14   373.07   386.18   428.16   478.71
                              498.10   545.92   561.58   589.06   624.73
                              647.23   676.18   687.00   720.63   786.04
                              841.33   919.45  1086.84  1146.35  1184.86
                             1240.47  1256.96  1277.01  1286.58  1304.88
                             1322.60  1346.04  1365.59  1415.22  1471.78
                             1477.12  1497.09  1528.60  1552.71  1570.37
                             1599.01  1645.81  1656.94  1658.66  1665.93
                             1692.33  1714.42  1733.24  1761.43  1772.36
                             1789.38  1850.99  1896.67  1908.13  1919.28
                             1940.87  1947.85  1952.65  1980.05  1989.71
                             2005.22  2012.20  2036.00  2042.22  2064.32
                             2073.30  2084.30  2156.61  2172.34  2177.08
                             2179.85  2185.39  2190.50  2193.36  2198.62
                             2210.25  2222.36  2435.84  4209.07  4225.01
                             4235.41  4273.62  4300.85  4311.66  4344.25
                             4357.61  4393.49  4417.73  4430.17  4432.88
                             4441.26  4448.97  4457.35  4472.42  4477.05
                             4480.81  4936.85  5037.80  5062.74

 Zero-point correction=                           0.322383 (Hartree/Particle)
 Thermal correction to Energy=                    0.335518
 Thermal correction to Enthalpy=                  0.336462
 Thermal correction to Gibbs Free Energy=         0.282861
 Sum of electronic and zero-point Energies=           -632.895104
 Sum of electronic and thermal Energies=              -632.881969
 Sum of electronic and thermal Enthalpies=            -632.881025
 Sum of electronic and thermal Free Energies=         -632.934626

                     E (Thermal)             CV                S
                      KCal/Mol        Cal/Mol-Kelvin    Cal/Mol-Kelvin
 Total                  210.540             53.340            112.813
 Electronic               0.000              0.000              0.000
 Translational            0.889              2.981             41.772
 Rotational               0.889              2.981             31.759
 Vibrational            208.763             47.378             39.282
 Vibration     1          0.595              1.980              5.057
 Vibration     2          0.595              1.977              4.785
 Vibration     3          0.599              1.965              3.972
 Vibration     4          0.616              1.910              2.767
 Vibration     5          0.631              1.861              2.283
 Vibration     6          0.650              1.800              1.905
 Vibration     7          0.668              1.747              1.667
 Vibration     8          0.673              1.731              1.606
 Vibration     9          0.691              1.678              1.430
 Vibration    10          0.715              1.610              1.247
 Vibration    11          0.724              1.583              1.183
 Vibration    12          0.749              1.514              1.041
 Vibration    13          0.758              1.491              0.999
 Vibration    14          0.774              1.450              0.929
 Vibration    15          0.795              1.396              0.845
 Vibration    16          0.809              1.361              0.796
 Vibration    17          0.827              1.317              0.738
 Vibration    18          0.834              1.300              0.717
 Vibration    19          0.856              1.248              0.656
 Vibration    20          0.902              1.148              0.552
 Vibration    21          0.942              1.064              0.477

 Optimization completed.
    -- Stationary point found.
 Normal termination of Gaussian 16 at Thu Dec 10 10:00:44 2020.

 ----------------------------------------------------------------------
 # B3LYP/6-311++G(d,p) empiricaldispersion=gd3bj scf=xqc pop=npa geom=c
 heck
 ----------------------------------------------------------------------

 --------------------------------------
 CID_84733681_JID_4462_Energie_neutraal
 --------------------------------------
 Structure from the checkpoint file:  "JID_4462.chk"
 Charge =  0 Multiplicity = 1

 SCF Done:  E(RB3LYP) =  -633.404645275     A.U. after   14 cycles
 Normal termination of Gaussian 16 at Thu Dec 10 10:05:19 2020.

 ----------------------------------------------------------------------
 # B3LYP/6-311++G(d,p) empiricaldispersion=gd3bj scf=xqc pop=npa geom=c
 heck
 ----------------------------------------------------------------------

 ------------------------------------
 CID_84733681_JID_4462_Energie_kation
 ------------------------------------
 Structure from the checkpoint file:  "JID_4462.chk"
 Charge =  1 Multiplicity = 2

 SCF Done:  E(UB3LYP) =  -633.118088315     A.U. after   26 cycles
 Normal termination of Gaussian 16 at Thu Dec 10 10:16:59 2020.
 Gaussian 16:  ES64L-G16RevA.03 25-Dec-2016

 ----------------------------------------------------------------------
 # B3LYP/6-311++G(d,p) empiricaldispersion=gd3bj scf=xqc pop=npa geom=c
 heck
 ----------------------------------------------------------------------

 -----------------------------------
 CID_84733681_JID_4462_Energie_anion
 -----------------------------------
 Structure from the checkpoint file:  "JID_4462.chk"
 Charge = -1 Multiplicity = 2

                         Standard orientation:
 ---------------------------------------------------------------------
 Center     Atomic      Atomic             Coordinates (Angstroms)
 Number     Number       Type             X           Y           Z
 ---------------------------------------------------------------------
      1          6           0       -3.276772    0.015153   -1.014897
      2          6           0       -2.597490   -1.170146   -0.311706
      3          6           0       -1.241510   -0.790706    0.307492
      4          6           0       -1.442410    0.458445    1.183600
      5          7           0       -1.992171    1.557248    0.388072
      6          6           0       -3.338442    1.235869   -0.093238
      7          6           0       -0.195528   -0.520864   -0.800096
      8          7           0        1.118546   -0.198891   -0.234570
      9          6           0        1.530186    1.184329   -0.473586
     10          6           0        2.805020    1.474451    0.309179
     11          8           0        3.846505    0.576162   -0.053513
     12          6           0        3.452629   -0.770698    0.163467
     13          6           0        2.188336   -1.114468   -0.619459
     14          7           0       -0.810071   -1.869494    1.208012
     15          1           0       -4.291194   -0.265092   -1.322985
     16          1           0       -2.728902    0.285273   -1.925125
     17          1           0       -3.237933   -1.532379    0.502630
     18          1           0       -2.470188   -2.007761   -1.012350
     19          1           0       -0.476530    0.764078    1.599518
     20          1           0       -2.093861    0.166782    2.026428
     21          1           0       -2.027482    2.400286    0.956389
     22          1           0       -3.734276    2.102438   -0.634737
     23          1           0       -4.035552    1.017790    0.740202
     24          1           0       -0.119932   -1.421884   -1.425539
     25          1           0       -0.531384    0.293518   -1.451029
     26          1           0        1.719397    1.368513   -1.548794
     27          1           0        0.723629    1.854012   -0.159743
     28          1           0        2.597234    1.394819    1.389201
     29          1           0        3.176945    2.480331    0.093648
     30          1           0        3.269850   -0.943183    1.237406
     31          1           0        4.292147   -1.394713   -0.156912
     32          1           0        1.881707   -2.141232   -0.388480
     33          1           0        2.407880   -1.062004   -1.703624
     34          1           0       -0.758948   -2.743528    0.682526
     35          1           0        0.147107   -1.655588    1.494343
 ---------------------------------------------------------------------

 SCF Done:  E(UB3LYP) =  -633.389831415     A.U. after   28 cycles

 The electronic state is 2-A.
 Alpha  occ. eigenvalues --  -19.03436 -14.21051 -14.19361 -14.18660 -10.12338
 Alpha  occ. eigenvalues --  -10.12289 -10.09924 -10.09798 -10.09598 -10.08701
 Alpha  occ. eigenvalues --  -10.08698 -10.08073 -10.06450 -10.06278  -0.95082
 Alpha  occ. eigenvalues --   -0.83510  -0.81073  -0.77859  -0.68005  -0.67664
 Alpha  occ. eigenvalues --   -0.64683  -0.61413  -0.56180  -0.54826  -0.53938
 Alpha  occ. eigenvalues --   -0.50070  -0.47322  -0.43482  -0.41086  -0.40474
 Alpha  occ. eigenvalues --   -0.38748  -0.37945  -0.37522  -0.37200  -0.36160
 Alpha  occ. eigenvalues --   -0.35576  -0.33115  -0.32861  -0.32117  -0.30842
 Alpha  occ. eigenvalues --   -0.30437  -0.29281  -0.28303  -0.27420  -0.26603
 Alpha  occ. eigenvalues --   -0.26158  -0.24315  -0.23359  -0.22367  -0.21781
 Alpha  occ. eigenvalues --   -0.20724  -0.17227  -0.14628  -0.12914  -0.12359
 Alpha  occ. eigenvalues --    0.04417
 Alpha virt. eigenvalues --    0.06165   0.06917   0.07849   0.08168   0.08536
 Alpha virt. eigenvalues --    0.09116   0.09748   0.10210   0.10874   0.11025
 Alpha virt. eigenvalues --    0.11735   0.11983   0.12422   0.13162   0.13292

  Beta  occ. eigenvalues --  -19.03430 -14.21041 -14.19334 -14.18640 -10.12324
  Beta  occ. eigenvalues --  -10.12278 -10.09904 -10.09799 -10.09590 -10.08690
  Beta  occ. eigenvalues --  -10.08674 -10.08058 -10.06437 -10.06263  -0.95069
  Beta  occ. eigenvalues --   -0.83487  -0.81039  -0.77823  -0.67980  -0.67628
  Beta  occ. eigenvalues --   -0.64651  -0.61383  -0.56140  -0.54794  -0.53881
  Beta  occ. eigenvalues --   -0.50024  -0.47279  -0.43440  -0.41020  -0.40424
  Beta  occ. eigenvalues --   -0.38731  -0.37916  -0.37501  -0.37170  -0.36128
  Beta  occ. eigenvalues --   -0.35548  -0.33083  -0.32837  -0.32085  -0.30812
  Beta  occ. eigenvalues --   -0.30394  -0.29241  -0.28272  -0.27389  -0.26576
  Beta  occ. eigenvalues --   -0.26134  -0.24291  -0.23332  -0.22337  -0.21753
  Beta  occ. eigenvalues --   -0.20690  -0.17193  -0.14599  -0.12869  -0.12310
  Beta virt. eigenvalues --    0.06667   0.07263   0.07636   0.08013   0.08808
  Beta virt. eigenvalues --    0.09104   0.09479   0.10146   0.10477   0.11223
  Beta virt. eigenvalues --    0.11474   0.11989   0.12166   0.12576   0.13377

 Mulliken charges and spin densities:
               1          2
     1  C    0.019804  -0.312984
     2  C    0.343167  -0.783886
     3  C   -0.143494   0.594295
     4  C    1.188573  -1.705549
     5  N   -0.537579   0.392775
     6  C    0.542292  -0.852685
     7  C   -1.708033   0.375181
     8  N    0.394622  -0.013399
     9  C   -0.166579   0.058337
    10  C    0.239360  -0.680354
    11  O   -0.173576   0.043861
    12  C    0.351425  -0.747179
    13  C    0.495929  -0.521184
    14  N   -0.289288   0.070528
    15  H   -0.427415   0.602882
    16  H    0.176093  -0.051033
    17  H    0.110569   0.059443
    18  H   -0.261753   0.394030
    19  H    0.203640  -0.038924
    20  H   -0.012624   0.168719
    21  H   -0.224625   0.485980
    22  H   -0.628955   0.800464
    23  H    0.008966   0.100608
    24  H   -0.324296   0.520135
    25  H    0.125495   0.042793
    26  H    0.001434   0.116496
    27  H   -0.001730   0.171033
    28  H   -0.064691   0.208581
    29  H    0.076683   0.097458
    30  H    0.085011   0.036452
    31  H   -0.141162   0.327354
    32  H   -0.391828   0.554743
    33  H    0.024058   0.097459
    34  H   -0.050095   0.295143
    35  H    0.160600   0.092425
 Sum of Mulliken charges =  -1.00000   1.00000

 Dipole moment (field-independent basis, Debye):
    X=              3.2986    Y=              0.3705    Z=              0.0228  Tot=              3.3194
 Quadrupole moment (field-independent basis, Debye-Ang):
   XX=           -162.9893   YY=           -141.6552   ZZ=           -121.0161
   XY=              8.9985   XZ=             -0.4567   YZ=             -2.6619

 Summary of Natural Population Analysis:

                                       Natural Population
                Natural  -----------------------------------------------
    Atom  No    Charge         Core      Valence    Rydberg      Total
 -----------------------------------------------------------------------
      C    1   -0.19300      0.99962     2.18512    0.00826     3.19300
      C    2   -0.19409      0.99958     2.18398    0.01053     3.19409
      C    3    0.04856      0.99954     1.93689    0.01500     2.95144
      C    4   -0.09185      0.99955     2.07879    0.01350     3.09185
      N    5   -0.34543      0.99974     2.83263    0.01306     3.84543
      C    6   -0.08464      0.99962     2.07341    0.01161     3.08464
      C    7   -0.09030      0.99954     2.07838    0.01238     3.09030
      N    8   -0.29517      0.99971     2.78155    0.01391     3.79517
      C    9   -0.09902      0.99961     2.08883    0.01058     3.09902
      C   10   -0.01227      0.99957     2.00143    0.01127     3.01227
      O   11   -0.30009      0.99989     3.29112    0.00907     4.30009
      C   12   -0.01431      0.99957     2.00094    0.01380     3.01431
      C   13   -0.09603      0.99961     2.08422    0.01219     3.09603
      N   14   -0.42363      0.99975     2.91372    0.01016     3.92363
      H   15    0.09967      0.00000     0.39921    0.00112     0.40033
      H   16    0.09532      0.00000     0.40319    0.00149     0.40468
      H   17    0.10266      0.00000     0.39576    0.00158     0.39734
      H   18    0.09964      0.00000     0.39904    0.00132     0.40036
      H   19    0.09908      0.00000     0.39912    0.00180     0.40092
      H   20    0.08692      0.00000     0.41127    0.00181     0.41308
      H   21    0.17763      0.00000     0.31829    0.00408     0.32237
      H   22    0.09685      0.00000     0.40140    0.00175     0.40315
      H   23    0.07568      0.00000     0.42261    0.00172     0.42432
      H   24    0.09380      0.00000     0.40456    0.00164     0.40620
      H   25    0.10133      0.00000     0.39661    0.00206     0.39867
      H   26    0.08093      0.00000     0.41766    0.00141     0.41907
      H   27    0.10918      0.00000     0.38904    0.00178     0.39082
      H   28    0.07964      0.00000     0.41866    0.00169     0.42036
      H   29    0.09024      0.00000     0.40866    0.00110     0.40976
      H   30    0.07840      0.00000     0.41993    0.00167     0.42160
      H   31    0.09132      0.00000     0.40752    0.00116     0.40868
      H   32    0.10158      0.00000     0.39618    0.00224     0.39842
      H   33    0.08130      0.00000     0.41719    0.00150     0.41870
      H   34    0.17314      0.00000     0.32486    0.00200     0.32686
      H   35    0.17694      0.00000     0.32046    0.00260     0.32306
 =======================================================================
   * Total *   -0.00000     13.99491    40.80224    0.20285    55.00000

 Normal termination of Gaussian 16 at Thu Dec 10 10:29:01 2020.
