 Gaussian 16, Revision A.03,

 -----------------------------------------------------------
 # opt freq B3LYP/6-31G(d) empiricaldispersion=gd3bj scf=xqc
 -----------------------------------------------------------

 ------------------------------
 CID_92015747_JID_3916_neutraal
 ------------------------------
 Symbolic Z-matrix:
 Charge =  0 Multiplicity = 1

 SCF Done:  E(RB3LYP) =  -561.848696525     A.U. after   15 cycles
 SCF Done:  E(RB3LYP) =  -561.852850761     A.U. after   12 cycles
 SCF Done:  E(RB3LYP) =  -561.851833010     A.U. after   12 cycles
 SCF Done:  E(RB3LYP) =  -561.853466045     A.U. after   12 cycles
 SCF Done:  E(RB3LYP) =  -561.853632323     A.U. after   11 cycles
 SCF Done:  E(RB3LYP) =  -561.853679461     A.U. after   11 cycles
 SCF Done:  E(RB3LYP) =  -561.853687860     A.U. after   10 cycles
 SCF Done:  E(RB3LYP) =  -561.853690243     A.U. after    9 cycles
 SCF Done:  E(RB3LYP) =  -561.853691061     A.U. after    8 cycles
 SCF Done:  E(RB3LYP) =  -561.853691185     A.U. after    7 cycles
 SCF Done:  E(RB3LYP) =  -561.853691311     A.U. after    8 cycles
 Optimization completed.
    -- Stationary point found.
 Normal termination of Gaussian 16 at Mon Dec 14 13:09:34 2020.

 --------------------------------------------------------------------
 #N Geom=AllCheck Guess=TCheck SCRF=Check GenChk RB3LYP/6-31G(d) Freq
 --------------------------------------------------------------------

 Structure from the checkpoint file:  "JID_3916.chk"
 ------------------------------
 CID_92015747_JID_3916_neutraal
 ------------------------------
 Charge =  0 Multiplicity = 1

 SCF Done:  E(RB3LYP) =  -561.853691311     A.U. after    1 cycles

  Exact polarizability: 170.529   7.552 126.518  -0.681   3.790 100.090
 Approx polarizability: 252.394  28.261 178.919   5.088  10.492 141.371

                      1                      2                      3
                      A                      A                      A
 Frequencies --     34.2566                38.3184                49.6924
 Red. masses --      3.1801                 2.8043                 3.1824
 Frc consts  --      0.0022                 0.0024                 0.0046
 IR Inten    --      0.4138                 0.2001                 0.8439

                      4                      5                      6
                      A                      A                      A
 Frequencies --     56.7083                70.3706                95.3943
 Red. masses --      3.1881                 3.7669                 2.4434
 Frc consts  --      0.0060                 0.0110                 0.0131
 IR Inten    --      0.9894                 1.8637                 0.5297

                      7                      8                      9
                      A                      A                      A
 Frequencies --    119.3639               164.5263               214.2815
 Red. masses --      3.2140                 2.9113                 1.8875
 Frc consts  --      0.0270                 0.0464                 0.0511
 IR Inten    --      1.4897                 0.9083                 1.6128

                     10                     11                     12
                      A                      A                      A
 Frequencies --    231.0106               234.3585               246.1484
 Red. masses --      1.3170                 1.0489                 1.4870
 Frc consts  --      0.0414                 0.0339                 0.0531
 IR Inten    --      2.5135                 0.0402                 2.7535

                     13                     14                     15
                      A                      A                      A
 Frequencies --    271.1448               283.6438               295.0812
 Red. masses --      1.2735                 1.8062                 1.6856
 Frc consts  --      0.0552                 0.0856                 0.0865
 IR Inten    --      0.3525                 1.7880                 8.8813

                     16                     17                     18
                      A                      A                      A
 Frequencies --    302.6736               364.2449               384.9784
 Red. masses --      2.8490                 2.3783                 2.7030
 Frc consts  --      0.1538                 0.1859                 0.2360
 IR Inten    --      0.4476                 2.9929                 1.0978

                     19                     20                     21
                      A                      A                      A
 Frequencies --    419.8862               443.5865               451.8082
 Red. masses --      2.5286                 2.5826                 2.6918
 Frc consts  --      0.2627                 0.2994                 0.3237
 IR Inten    --      5.1947                 7.6041                 2.9769

                     22                     23                     24
                      A                      A                      A
 Frequencies --    496.0038               560.9675               602.3994
 Red. masses --      2.4540                 2.6790                 2.2582
 Frc consts  --      0.3557                 0.4967                 0.4828
 IR Inten    --     16.6606                 3.7788                94.4017

                     25                     26                     27
                      A                      A                      A
 Frequencies --    624.5583               730.2990               747.6013
 Red. masses --      2.5446                 2.3359                 1.7075
 Frc consts  --      0.5848                 0.7340                 0.5623
 IR Inten    --     50.8326                 9.6164                 1.0516

                     28                     29                     30
                      A                      A                      A
 Frequencies --    812.8226               816.8805               868.2884
 Red. masses --      1.7826                 1.6850                 2.1660
 Frc consts  --      0.6939                 0.6625                 0.9621
 IR Inten    --      0.2331                12.9012                 3.1901

                     31                     32                     33
                      A                      A                      A
 Frequencies --    879.1970               906.1075               929.0857
 Red. masses --      2.6125                 1.5115                 1.8115
 Frc consts  --      1.1898                 0.7312                 0.9213
 IR Inten    --      3.0608                 3.4133                 5.3950

                     34                     35                     36
                      A                      A                      A
 Frequencies --    940.1450               946.8461               960.6092
 Red. masses --      1.4035                 1.2696                 1.4271
 Frc consts  --      0.7309                 0.6706                 0.7759
 IR Inten    --      3.4436                 7.5479                 2.5509

                     37                     38                     39
                      A                      A                      A
 Frequencies --    985.8564              1024.1970              1060.6592
 Red. masses --      1.9038                 2.3338                 2.0291
 Frc consts  --      1.0902                 1.4424                 1.3449
 IR Inten    --      0.5492                10.0559                 2.0614

                     40                     41                     42
                      A                      A                      A
 Frequencies --   1091.2582              1103.9043              1113.2928
 Red. masses --      1.6777                 1.6827                 1.7059
 Frc consts  --      1.1771                 1.2081                 1.2457
 IR Inten    --     24.8129                11.1358                 9.7458

                     43                     44                     45
                      A                      A                      A
 Frequencies --   1146.7852              1156.4166              1193.1967
 Red. masses --      1.8171                 2.0332                 2.2395
 Frc consts  --      1.4080                 1.6020                 1.8786
 IR Inten    --     16.2195                24.8030               137.0623

                     46                     47                     48
                      A                      A                      A
 Frequencies --   1205.1032              1246.5605              1293.3663
 Red. masses --      1.9380                 1.4938                 1.4473
 Frc consts  --      1.6583                 1.3676                 1.4264
 IR Inten    --     49.9925                 7.7321                16.8277

                     49                     50                     51
                      A                      A                      A
 Frequencies --   1300.7727              1323.9616              1335.1397
 Red. masses --      1.3150                 2.3372                 1.3688
 Frc consts  --      1.3109                 2.4138                 1.4376
 IR Inten    --     10.9793               232.6607                23.7741

                     52                     53                     54
                      A                      A                      A
 Frequencies --   1351.2945              1370.4467              1375.9768
 Red. masses --      1.3466                 1.3865                 1.4159
 Frc consts  --      1.4487                 1.5343                 1.5795
 IR Inten    --      1.6685                20.6019                 8.9425

                     55                     56                     57
                      A                      A                      A
 Frequencies --   1383.8931              1393.7311              1423.7792
 Red. masses --      1.3959                 1.5191                 1.5390
 Frc consts  --      1.5751                 1.7386                 1.8381
 IR Inten    --     19.5678                71.3493                 5.0059

                     58                     59                     60
                      A                      A                      A
 Frequencies --   1429.2933              1435.0887              1441.7030
 Red. masses --      1.2694                 1.3929                 1.2590
 Frc consts  --      1.5279                 1.6902                 1.5417
 IR Inten    --      8.3376                 6.3660                 3.0052

                     61                     62                     63
                      A                      A                      A
 Frequencies --   1448.8715              1495.3280              1514.2406
 Red. masses --      1.2491                 1.4220                 1.0448
 Frc consts  --      1.5450                 1.8733                 1.4114
 IR Inten    --     16.8593                34.8325                 2.5227

                     64                     65                     66
                      A                      A                      A
 Frequencies --   1517.1652              1518.8581              1520.9790
 Red. masses --      1.0538                 1.0829                 1.0649
 Frc consts  --      1.4292                 1.4718                 1.4515
 IR Inten    --      1.1578                 4.9349                 4.9241

                     67                     68                     69
                      A                      A                      A
 Frequencies --   1522.5426              1527.5811              1532.6257
 Red. masses --      1.0876                 1.0611                 1.0482
 Frc consts  --      1.4854                 1.4589                 1.4507
 IR Inten    --      1.3322                 5.2882                13.6177

                     70                     71                     72
                      A                      A                      A
 Frequencies --   1534.6933              1536.5515              1539.3440
 Red. masses --      1.0804                 1.0630                 1.0629
 Frc consts  --      1.4993                 1.4786                 1.4840
 IR Inten    --      7.9941                11.5423                 8.5042

                     73                     74                     75
                      A                      A                      A
 Frequencies --   1540.3903              1696.1955              1722.3045
 Red. masses --      1.1471                 4.9439                 7.6595
 Frc consts  --      1.6036                 8.3805                13.3866
 IR Inten    --      2.5966               644.2455                 9.1131

                     76                     77                     78
                      A                      A                      A
 Frequencies --   3025.4169              3038.4306              3040.2361
 Red. masses --      1.0717                 1.0400                 1.0381
 Frc consts  --      5.7797                 5.6570                 5.6536
 IR Inten    --     41.1455                24.5761                26.3220

                     79                     80                     81
                      A                      A                      A
 Frequencies --   3044.5169              3045.5122              3048.1227
 Red. masses --      1.0408                 1.0631                 1.0636
 Frc consts  --      5.6842                 5.8097                 5.8224
 IR Inten    --     14.7550                 9.0145                37.4778

                     82                     83                     84
                      A                      A                      A
 Frequencies --   3052.6853              3067.9319              3086.9452
 Red. masses --      1.0552                 1.0604                 1.0961
 Frc consts  --      5.7934                 5.8806                 6.1542
 IR Inten    --     27.9874                19.5202                 4.4830

                     85                     86                     87
                      A                      A                      A
 Frequencies --   3096.9093              3103.7460              3111.9509
 Red. masses --      1.0982                 1.1011                 1.1002
 Frc consts  --      6.2054                 6.2494                 6.2775
 IR Inten    --     33.4371                19.9200                 6.9643

                     88                     89                     90
                      A                      A                      A
 Frequencies --   3112.4861              3119.7779              3120.6464
 Red. masses --      1.1021                 1.0983                 1.0929
 Frc consts  --      6.2906                 6.2984                 6.2705
 IR Inten    --     53.7523                61.1434                24.0593

                     91                     92                     93
                      A                      A                      A
 Frequencies --   3122.3420              3126.6901              3133.5358
 Red. masses --      1.1025                 1.1030                 1.1012
 Frc consts  --      6.3328                 6.3531                 6.3704
 IR Inten    --     45.5785                26.9501                21.1393

                     94                     95                     96
                      A                      A                      A
 Frequencies --   3141.0445              3216.7075              3584.8587
 Red. masses --      1.1037                 1.0877                 1.0748
 Frc consts  --      6.4160                 6.6312                 8.1378
 IR Inten    --     25.1834                 8.5887                14.1985

 - Thermochemistry -
 -------------------
 Temperature   298.150 Kelvin.  Pressure   1.00000 Atm.
 Atom     1 has atomic number  6 and mass  12.00000

 Molecular mass:   183.16231 amu.
 Principal axes and moments of inertia in atomic units:
                           1         2         3
     Eigenvalues --  1827.842723924.357664807.61965
           X            0.99985  -0.01699   0.00241
           Y            0.01696   0.99979   0.01153
           Z           -0.00261  -0.01149   0.99993
 This molecule is an asymmetric top.
 Rotational symmetry number  1.
 Warning -- assumption of classical behavior for rotation
           may cause significant error
 Rotational temperatures (Kelvin)      0.04739     0.02207     0.01802
 Rotational constants (GHZ):           0.98736     0.45988     0.37539
 Zero-point vibrational energy     809794.9 (Joules/Mol)
                                  193.54562 (Kcal/Mol)
 Warning -- explicit consideration of  24 degrees of freedom as
           vibrations may cause significant error
 Vibrational temperatures:     49.29    55.13    71.50    81.59   101.25
          (Kelvin)            137.25   171.74   236.72   308.30   332.37
                              337.19   354.15   390.12   408.10   424.56
                              435.48   524.07   553.90   604.12   638.22
                              650.05   713.64   807.11   866.72   898.60
                             1050.74  1075.63  1169.47  1175.31  1249.27
                             1264.97  1303.69  1336.75  1352.66  1362.30
                             1382.10  1418.43  1473.59  1526.05  1570.08
                             1588.27  1601.78  1649.97  1663.83  1716.74
                             1733.87  1793.52  1860.87  1871.52  1904.89
                             1920.97  1944.21  1971.77  1979.72  1991.11
                             2005.27  2048.50  2056.43  2064.77  2074.29
                             2084.60  2151.44  2178.65  2182.86  2185.30
                             2188.35  2190.60  2197.85  2205.11  2208.08
                             2210.75  2214.77  2216.28  2440.45  2478.01
                             4352.90  4371.62  4374.22  4380.38  4381.81
                             4385.57  4392.13  4414.07  4441.43  4455.76
                             4465.60  4477.40  4478.17  4488.66  4489.91
                             4492.35  4498.61  4508.46  4519.26  4628.12
                             5157.81

 Zero-point correction=                           0.308435 (Hartree/Particle)
 Thermal correction to Energy=                    0.324643
 Thermal correction to Enthalpy=                  0.325587
 Thermal correction to Gibbs Free Energy=         0.263799
 Sum of electronic and zero-point Energies=           -561.545257
 Sum of electronic and thermal Energies=              -561.529048
 Sum of electronic and thermal Enthalpies=            -561.528104
 Sum of electronic and thermal Free Energies=         -561.589893

                     E (Thermal)             CV                S
                      KCal/Mol        Cal/Mol-Kelvin    Cal/Mol-Kelvin
 Total                  203.717             58.729            130.045
 Electronic               0.000              0.000              0.000
 Translational            0.889              2.981             41.522
 Rotational               0.889              2.981             31.911
 Vibrational            201.939             52.768             56.611
 Vibration     1          0.594              1.983              5.566
 Vibration     2          0.594              1.982              5.344
 Vibration     3          0.595              1.978              4.830
 Vibration     4          0.596              1.975              4.569
 Vibration     5          0.598              1.968              4.143
 Vibration     6          0.603              1.952              3.546
 Vibration     7          0.609              1.933              3.111
 Vibration     8          0.623              1.886              2.497
 Vibration     9          0.644              1.819              2.007
 Vibration    10          0.653              1.794              1.871
 Vibration    11          0.654              1.788              1.845
 Vibration    12          0.661              1.769              1.758
 Vibration    13          0.675              1.726              1.589
 Vibration    14          0.682              1.704              1.512
 Vibration    15          0.689              1.683              1.445
 Vibration    16          0.694              1.669              1.402
 Vibration    17          0.738              1.546              1.104
 Vibration    18          0.754              1.502              1.020
 Vibration    19          0.783              1.427              0.892
 Vibration    20          0.803              1.375              0.815
 Vibration    21          0.810              1.357              0.790
 Vibration    22          0.852              1.259              0.668
 Vibration    23          0.917              1.116              0.522
 Vibration    24          0.961              1.027              0.446

                           ! Non-Optimized Parameters !
 Normal termination of Gaussian 16 at Mon Dec 14 13:18:22 2020.

 ----------------------------------------------------------------------
 # B3LYP/6-311++G(d,p) empiricaldispersion=gd3bj scf=xqc pop=npa geom=c
 heck
 ----------------------------------------------------------------------

 --------------------------------------
 CID_92015747_JID_3916_Energie_neutraal
 --------------------------------------
 Structure from the checkpoint file:  "JID_3916.chk"
 Charge =  0 Multiplicity = 1

 SCF Done:  E(RB3LYP) =  -562.017014926     A.U. after   15 cycles
 Normal termination of Gaussian 16 at Mon Dec 14 13:22:14 2020.

 ----------------------------------------------------------------------
 # B3LYP/6-311++G(d,p) empiricaldispersion=gd3bj scf=xqc pop=npa geom=c
 heck
 ----------------------------------------------------------------------

 ------------------------------------
 CID_92015747_JID_3916_Energie_kation
 ------------------------------------
 Structure from the checkpoint file:  "JID_3916.chk"
 Charge =  1 Multiplicity = 2

 SCF Done:  E(UB3LYP) =  -561.735084092     A.U. after   23 cycles
 Normal termination of Gaussian 16 at Mon Dec 14 13:30:16 2020.
 Gaussian 16:  ES64L-G16RevA.03 25-Dec-2016

 ----------------------------------------------------------------------
 # B3LYP/6-311++G(d,p) empiricaldispersion=gd3bj scf=xqc pop=npa geom=c
 heck
 ----------------------------------------------------------------------

 -----------------------------------
 CID_92015747_JID_3916_Energie_anion
 -----------------------------------
 Structure from the checkpoint file:  "JID_3916.chk"
 Charge = -1 Multiplicity = 2

                         Standard orientation:
 ---------------------------------------------------------------------
 Center     Atomic      Atomic             Coordinates (Angstroms)
 Number     Number       Type             X           Y           Z
 ---------------------------------------------------------------------
      1          6           0        1.712675   -2.140060    1.144122
      2          6           0        2.803110   -1.832462    0.113958
      3          6           0        2.309167   -0.985310   -1.074484
      4          6           0        1.958460    0.434572   -0.624946
      5          8           0        2.891173    1.181986   -0.320387
      6          6           0        0.572148    0.887106   -0.492629
      7          6           0       -0.477212    0.038061   -0.674237
      8          7           0       -1.797704    0.345911   -0.517523
      9          6           0       -2.807449   -0.697438   -0.329097
     10          6           0       -2.741988   -1.304712    1.079195
     11          6           0       -4.188749   -0.124885   -0.645324
     12          6           0        0.365837    2.304935   -0.010432
     13          6           0        0.302956    2.398457    1.523116
     14          1           0        1.298633   -1.221097    1.572830
     15          1           0        2.106765   -2.747588    1.966261
     16          1           0        0.882958   -2.696889    0.688726
     17          1           0        3.625554   -1.289478    0.593527
     18          1           0        3.220800   -2.771755   -0.269923
     19          1           0        3.123900   -0.878990   -1.798665
     20          1           0        1.487276   -1.496258   -1.586229
     21          1           0       -0.315200   -0.986008   -0.993668
     22          1           0       -2.000022    1.223962   -0.054743
     23          1           0       -2.576397   -1.481309   -1.061898
     24          1           0       -2.965954   -0.542780    1.835851
     25          1           0       -3.467356   -2.118510    1.191111
     26          1           0       -1.741997   -1.701008    1.284571
     27          1           0       -4.219829    0.280948   -1.660842
     28          1           0       -4.957267   -0.898430   -0.551459
     29          1           0       -4.443358    0.680822    0.055470
     30          1           0        1.204888    2.909155   -0.365045
     31          1           0       -0.543814    2.733756   -0.454400
     32          1           0        1.241177    2.033881    1.952011
     33          1           0        0.153112    3.432291    1.855549
     34          1           0       -0.513069    1.788443    1.931270
 ---------------------------------------------------------------------

 SCF Done:  E(UB3LYP) =  -562.009533364     A.U. after   31 cycles

 The electronic state is 2-A.
 Alpha  occ. eigenvalues --  -18.96717 -14.22919 -10.12105 -10.11292 -10.10166
 Alpha  occ. eigenvalues --  -10.06825 -10.06451 -10.06247 -10.06099 -10.06058
 Alpha  occ. eigenvalues --  -10.05910 -10.05772 -10.05053  -0.90184  -0.84268
 Alpha  occ. eigenvalues --   -0.70713  -0.68689  -0.66776  -0.62298  -0.59421
 Alpha  occ. eigenvalues --   -0.58928  -0.53234  -0.51546  -0.50123  -0.47571
 Alpha  occ. eigenvalues --   -0.42025  -0.39424  -0.38198  -0.35936  -0.35067
 Alpha  occ. eigenvalues --   -0.34951  -0.33648  -0.32345  -0.31475  -0.31144
 Alpha  occ. eigenvalues --   -0.30198  -0.29278  -0.28630  -0.28147  -0.27423
 Alpha  occ. eigenvalues --   -0.26375  -0.26058  -0.25119  -0.24810  -0.23884
 Alpha  occ. eigenvalues --   -0.23005  -0.22837  -0.22559  -0.21223  -0.12504
 Alpha  occ. eigenvalues --   -0.10381   0.04178
 Alpha virt. eigenvalues --    0.06358   0.07104   0.07554   0.08220   0.08611
 Alpha virt. eigenvalues --    0.09514   0.09730   0.10031   0.10476   0.11385
 Alpha virt. eigenvalues --    0.11518   0.12337   0.12397   0.12857   0.12948

  Beta  occ. eigenvalues --  -18.96607 -14.22867 -10.12020 -10.11267 -10.10006
  Beta  occ. eigenvalues --  -10.06814 -10.06413 -10.06241 -10.06099 -10.06018
  Beta  occ. eigenvalues --  -10.05897 -10.05760 -10.05087  -0.89980  -0.84134
  Beta  occ. eigenvalues --   -0.70623  -0.68654  -0.66730  -0.62204  -0.59343
  Beta  occ. eigenvalues --   -0.58874  -0.53081  -0.51441  -0.50029  -0.47516
  Beta  occ. eigenvalues --   -0.41914  -0.39310  -0.38126  -0.35880  -0.34999
  Beta  occ. eigenvalues --   -0.34865  -0.33597  -0.32243  -0.31422  -0.31074
  Beta  occ. eigenvalues --   -0.30148  -0.29223  -0.28557  -0.28029  -0.27352
  Beta  occ. eigenvalues --   -0.26197  -0.25972  -0.25091  -0.24732  -0.23859
  Beta  occ. eigenvalues --   -0.22961  -0.22799  -0.22316  -0.20826  -0.12415
  Beta  occ. eigenvalues --   -0.10066
  Beta virt. eigenvalues --    0.06603   0.07114   0.07935   0.08034   0.08685
  Beta virt. eigenvalues --    0.09134   0.09761   0.10103   0.10351   0.10571
  Beta virt. eigenvalues --    0.11591   0.11836   0.12409   0.12620   0.13036

 Mulliken charges and spin densities:
               1          2
     1  C   -0.183577  -0.330960
     2  C   -0.284524  -0.102502
     3  C    0.201420  -0.164453
     4  C   -0.341500  -0.065946
     5  O   -0.353088   0.039381
     6  C    0.834610  -0.296964
     7  C   -0.119429  -0.067889
     8  N    0.191505  -0.066606
     9  C   -1.236187   1.259693
    10  C    1.143591  -1.646051
    11  C    0.874768  -1.408464
    12  C   -1.044715   0.482911
    13  C   -0.108098  -0.443983
    14  H    0.110036   0.034689
    15  H   -0.015569   0.140321
    16  H   -0.032485   0.172664
    17  H    0.181864  -0.021800
    18  H   -0.055099   0.200791
    19  H    0.106262   0.080262
    20  H   -0.235547   0.362141
    21  H    0.360893  -0.167947
    22  H    0.646494  -0.388440
    23  H   -0.602153   0.747987
    24  H   -0.064270   0.207829
    25  H   -0.366933   0.516170
    26  H    0.092767   0.049303
    27  H   -0.153189   0.312118
    28  H   -0.345365   0.498433
    29  H   -0.356376   0.490803
    30  H    0.176024   0.027324
    31  H   -0.124222   0.237728
    32  H    0.139389   0.034823
    33  H   -0.009935   0.128278
    34  H   -0.027364   0.148357
 Sum of Mulliken charges =  -1.00000   1.00000

 Dipole moment (field-independent basis, Debye):
    X=              3.4842    Y=              1.9886    Z=              0.8173  Tot=              4.0942
 Quadrupole moment (field-independent basis, Debye-Ang):
   XX=           -161.8448   YY=           -126.8325   ZZ=           -112.1306
   XY=            -14.7663   XZ=              0.6850   YZ=             -2.0537

 Summary of Natural Population Analysis:

                                       Natural Population
                Natural  -----------------------------------------------
    Atom  No    Charge         Core      Valence    Rydberg      Total
 -----------------------------------------------------------------------
      C    1   -0.28906      0.99967     2.28405    0.00534     3.28906
      C    2   -0.18761      0.99964     2.17957    0.00840     3.18761
      C    3   -0.22786      0.99959     2.21868    0.00959     3.22786
      C    4    0.27320      0.99958     1.70639    0.02083     2.72680
      O    5   -0.31495      0.99988     3.30893    0.00614     4.31495
      C    6   -0.11973      0.99946     2.10958    0.01069     3.11973
      C    7    0.08018      0.99950     1.90890    0.01142     2.91982
      N    8   -0.29969      0.99968     2.78891    0.01110     3.79969
      C    9   -0.00923      0.99962     1.99796    0.01165     3.00923
      C   10   -0.28948      0.99965     2.28408    0.00575     3.28948
      C   11   -0.28622      0.99965     2.28048    0.00610     3.28622
      C   12   -0.20358      0.99962     2.19403    0.00994     3.20358
      C   13   -0.28479      0.99966     2.27947    0.00566     3.28479
      H   14    0.10127      0.00000     0.39763    0.00110     0.39873
      H   15    0.09521      0.00000     0.40408    0.00071     0.40479
      H   16    0.09586      0.00000     0.40290    0.00123     0.40414
      H   17    0.09888      0.00000     0.39992    0.00119     0.40112
      H   18    0.09195      0.00000     0.40700    0.00105     0.40805
      H   19    0.10670      0.00000     0.39217    0.00113     0.39330
      H   20    0.09583      0.00000     0.40281    0.00137     0.40417
      H   21    0.09448      0.00000     0.40379    0.00172     0.40552
      H   22    0.18668      0.00000     0.31045    0.00287     0.31332
      H   23    0.09534      0.00000     0.40167    0.00299     0.40466
      H   24    0.09693      0.00000     0.40189    0.00118     0.40307
      H   25    0.10379      0.00000     0.39448    0.00173     0.39621
      H   26    0.10152      0.00000     0.39714    0.00134     0.39848
      H   27    0.10255      0.00000     0.39621    0.00124     0.39745
      H   28    0.10489      0.00000     0.39358    0.00152     0.39511
      H   29    0.09642      0.00000     0.40224    0.00134     0.40358
      H   30    0.11173      0.00000     0.38700    0.00127     0.38827
      H   31    0.09009      0.00000     0.40865    0.00126     0.40991
      H   32    0.10269      0.00000     0.39643    0.00089     0.39731
      H   33    0.09270      0.00000     0.40655    0.00075     0.40730
      H   34    0.09332      0.00000     0.40562    0.00106     0.40668
 =======================================================================
   * Total *    0.00000     12.99519    37.85326    0.15155    51.00000

 Normal termination of Gaussian 16 at Mon Dec 14 13:40:50 2020.
