 Gaussian 16, Revision A.03,

 -----------------------------------------------------------
 # opt freq B3LYP/6-31G(d) empiricaldispersion=gd3bj scf=xqc
 -----------------------------------------------------------

 -------------------------------
 CID_131418785_JID_4426_neutraal
 -------------------------------
 Symbolic Z-matrix:
 Charge =  0 Multiplicity = 1

 SCF Done:  E(RB3LYP) =  -613.527996039     A.U. after   15 cycles
 SCF Done:  E(RB3LYP) =  -613.530213243     A.U. after   13 cycles
 SCF Done:  E(RB3LYP) =  -613.530516174     A.U. after   13 cycles
 SCF Done:  E(RB3LYP) =  -613.531242496     A.U. after   13 cycles
 SCF Done:  E(RB3LYP) =  -613.531288639     A.U. after   11 cycles
 SCF Done:  E(RB3LYP) =  -613.531235462     A.U. after   12 cycles
 SCF Done:  E(RB3LYP) =  -613.531322382     A.U. after   11 cycles
 SCF Done:  E(RB3LYP) =  -613.531331077     A.U. after    9 cycles
 SCF Done:  E(RB3LYP) =  -613.531335603     A.U. after   10 cycles
 SCF Done:  E(RB3LYP) =  -613.531336341     A.U. after    8 cycles
 SCF Done:  E(RB3LYP) =  -613.531336420     A.U. after    8 cycles
 Optimization completed.
    -- Stationary point found.
 Normal termination of Gaussian 16 at Thu Dec 10 09:44:56 2020.

 --------------------------------------------------------------------
 #N Geom=AllCheck Guess=TCheck SCRF=Check GenChk RB3LYP/6-31G(d) Freq
 --------------------------------------------------------------------

 Structure from the checkpoint file:  "JID_4426.chk"
 -------------------------------
 CID_131418785_JID_4426_neutraal
 -------------------------------
 Charge =  0 Multiplicity = 1

 SCF Done:  E(RB3LYP) =  -613.531336420     A.U. after    1 cycles

  Exact polarizability: 127.214  -6.262 129.084   1.824   3.435 101.538
 Approx polarizability: 163.597 -12.278 203.718  -1.813   6.404 157.066

                      1                      2                      3
                      A                      A                      A
 Frequencies --     41.0966                60.4430                79.7732
 Red. masses --      6.4207                 4.5588                 3.7158
 Frc consts  --      0.0064                 0.0098                 0.0139
 IR Inten    --      1.7932                 3.4099                 1.9621

                      4                      5                      6
                      A                      A                      A
 Frequencies --    134.3154               172.4654               199.3456
 Red. masses --      6.5560                 5.0964                 2.3506
 Frc consts  --      0.0697                 0.0893                 0.0550
 IR Inten    --      5.4740                 7.2132                 1.0643

                      7                      8                      9
                      A                      A                      A
 Frequencies --    229.2952               253.9119               271.8976
 Red. masses --      3.5424                 1.2441                 2.6440
 Frc consts  --      0.1097                 0.0473                 0.1152
 IR Inten    --      5.5250                 0.2350                 0.7128

                     10                     11                     12
                      A                      A                      A
 Frequencies --    299.0737               337.9777               354.6877
 Red. masses --      2.4314                 2.8326                 2.0938
 Frc consts  --      0.1281                 0.1906                 0.1552
 IR Inten    --      0.7978                 2.0143                 0.4851

                     13                     14                     15
                      A                      A                      A
 Frequencies --    390.4910               408.4013               419.7187
 Red. masses --      1.9963                 2.7348                 1.9526
 Frc consts  --      0.1794                 0.2688                 0.2027
 IR Inten    --      1.9106                 0.7383                 1.7515

                     16                     17                     18
                      A                      A                      A
 Frequencies --    450.1917               486.2961               509.9165
 Red. masses --      5.5749                 3.0961                 3.3032
 Frc consts  --      0.6657                 0.4314                 0.5060
 IR Inten    --      1.7626                 0.5852                 0.1084

                     19                     20                     21
                      A                      A                      A
 Frequencies --    536.5463               563.4583               587.5851
 Red. masses --      3.6588                 4.9590                 3.3279
 Frc consts  --      0.6206                 0.9276                 0.6770
 IR Inten    --      0.1808                 0.1680                 0.5573

                     22                     23                     24
                      A                      A                      A
 Frequencies --    701.3484               718.2591               742.1046
 Red. masses --      2.2830                 1.8156                 2.7277
 Frc consts  --      0.6617                 0.5519                 0.8851
 IR Inten    --      0.8362                 0.5394                 0.8811

                     25                     26                     27
                      A                      A                      A
 Frequencies --    788.6119               810.2203               820.8305
 Red. masses --      2.8434                 2.7985                 1.5968
 Frc consts  --      1.0419                 1.0824                 0.6339
 IR Inten    --      6.6314                 4.4171                 1.0600

                     28                     29                     30
                      A                      A                      A
 Frequencies --    905.7888               916.9046               929.8581
 Red. masses --      3.4123                 2.3897                 2.8285
 Frc consts  --      1.6495                 1.1837                 1.4409
 IR Inten    --      5.1345                 0.8026                 1.1745

                     31                     32                     33
                      A                      A                      A
 Frequencies --    954.1082              1015.6896              1040.0798
 Red. masses --      4.8524                 2.3126                 1.2753
 Frc consts  --      2.6026                 1.4056                 0.8128
 IR Inten    --      3.0046                12.3165                 1.0101

                     34                     35                     36
                      A                      A                      A
 Frequencies --   1042.5121              1062.6862              1072.9314
 Red. masses --      1.3078                 2.2339                 1.7963
 Frc consts  --      0.8375                 1.4864                 1.2184
 IR Inten    --      3.1669                10.3692                10.4293

                     37                     38                     39
                      A                      A                      A
 Frequencies --   1088.4243              1121.2613              1129.2577
 Red. masses --      2.1372                 3.4670                 2.2709
 Frc consts  --      1.4918                 2.5682                 1.7062
 IR Inten    --     16.9403                40.1866                 2.8162

                     40                     41                     42
                      A                      A                      A
 Frequencies --   1135.0841              1166.9408              1184.5965
 Red. masses --      2.1565                 1.6294                 1.5771
 Frc consts  --      1.6370                 1.3073                 1.3039
 IR Inten    --      1.7630                 1.6354                10.7280

                     43                     44                     45
                      A                      A                      A
 Frequencies --   1185.4454              1194.0399              1221.4593
 Red. masses --      2.6922                 1.8687                 1.5309
 Frc consts  --      2.2290                 1.5697                 1.3457
 IR Inten    --     35.5084                 7.9915                12.3026

                     46                     47                     48
                      A                      A                      A
 Frequencies --   1230.1231              1244.5559              1269.8381
 Red. masses --      1.1030                 1.7199                 1.6883
 Frc consts  --      0.9834                 1.5696                 1.6039
 IR Inten    --      7.2647                 1.8719                10.9411

                     49                     50                     51
                      A                      A                      A
 Frequencies --   1313.8441              1324.3348              1350.2901
 Red. masses --      1.3722                 2.5278                 1.2494
 Frc consts  --      1.3956                 2.6121                 1.3422
 IR Inten    --      6.2506                14.4328                 8.7418

                     52                     53                     54
                      A                      A                      A
 Frequencies --   1358.7682              1388.5177              1395.4903
 Red. masses --      1.3699                 1.3206                 1.4841
 Frc consts  --      1.4901                 1.5001                 1.7028
 IR Inten    --     13.2914                 0.1006                12.0836

                     55                     56                     57
                      A                      A                      A
 Frequencies --   1415.9931              1418.4157              1444.3013
 Red. masses --      1.3766                 1.4151                 1.4400
 Frc consts  --      1.6263                 1.6775                 1.7699
 IR Inten    --      6.3141                 4.5158                15.3439

                     58                     59                     60
                      A                      A                      A
 Frequencies --   1462.1410              1482.3158              1489.1900
 Red. masses --      1.0877                 1.1215                 1.1978
 Frc consts  --      1.3701                 1.4519                 1.5651
 IR Inten    --     17.0648                10.7860                 0.9890

                     61                     62                     63
                      A                      A                      A
 Frequencies --   1507.0228              1517.0717              1521.2270
 Red. masses --      1.0838                 1.0511                 1.0897
 Frc consts  --      1.4503                 1.4254                 1.4858
 IR Inten    --      6.9786                17.0622                11.7505

                     64                     65                     66
                      A                      A                      A
 Frequencies --   1529.6758              1540.2337              1553.2530
 Red. masses --      1.0728                 1.0639                 1.0999
 Frc consts  --      1.4790                 1.4871                 1.5635
 IR Inten    --      2.0382                 1.5333                 9.7453

                     67                     68                     69
                      A                      A                      A
 Frequencies --   1903.4186              2356.1402              2921.6811
 Red. masses --     12.4358                12.6932                 1.0720
 Frc consts  --     26.5456                41.5167                 5.3917
 IR Inten    --    266.3273                14.8149                40.2630

                     70                     71                     72
                      A                      A                      A
 Frequencies --   2934.0001              2951.1378              3033.5313
 Red. masses --      1.0641                 1.0717                 1.0828
 Frc consts  --      5.3972                 5.4992                 5.8710
 IR Inten    --     61.9881               128.0111                11.6397

                     73                     74                     75
                      A                      A                      A
 Frequencies --   3059.1401              3064.0878              3074.1359
 Red. masses --      1.0662                 1.0701                 1.0809
 Frc consts  --      5.8790                 5.9193                 6.0185
 IR Inten    --      2.2088                30.4495                50.5553

                     76                     77                     78
                      A                      A                      A
 Frequencies --   3076.9096              3080.7365              3083.8157
 Red. masses --      1.0757                 1.0770                 1.0635
 Frc consts  --      6.0005                 6.0226                 5.9590
 IR Inten    --     15.5988                73.3362                 3.1436

                     79                     80                     81
                      A                      A                      A
 Frequencies --   3088.6857              3104.5729              3108.4448
 Red. masses --      1.0668                 1.1012                 1.1023
 Frc consts  --      5.9960                 6.2537                 6.2755
 IR Inten    --      2.2660                29.7501                20.3308

                     82                     83                     84
                      A                      A                      A
 Frequencies --   3123.1857              3148.0749              3189.5581
 Red. masses --      1.1042                 1.1049                 1.0951
 Frc consts  --      6.3460                 6.4518                 6.5642
 IR Inten    --     29.2465                 5.3694                 3.4458

 - Thermochemistry -
 -------------------
 Temperature   298.150 Kelvin.  Pressure   1.00000 Atm.
 Atom     1 has atomic number  6 and mass  12.00000

 Molecular mass:   192.12626 amu.
 Principal axes and moments of inertia in atomic units:
                           1         2         3
     Eigenvalues --  1882.426413203.278544253.32371
           X            0.99985  -0.00052   0.01758
           Y            0.00046   0.99999   0.00344
           Z           -0.01759  -0.00343   0.99984
 This molecule is an asymmetric top.
 Rotational symmetry number  1.
 Warning -- assumption of classical behavior for rotation
           may cause significant error
 Rotational temperatures (Kelvin)      0.04601     0.02704     0.02036
 Rotational constants (GHZ):           0.95873     0.56340     0.42431
 Zero-point vibrational energy     680634.4 (Joules/Mol)
                                  162.67553 (Kcal/Mol)
 Warning -- explicit consideration of  21 degrees of freedom as
           vibrations may cause significant error
 Vibrational temperatures:     59.13    86.96   114.78   193.25   248.14
          (Kelvin)            286.81   329.90   365.32   391.20   430.30
                              486.27   510.32   561.83   587.60   603.88
                              647.73   699.67   733.66   771.97   810.69
                              845.40  1009.08  1033.41  1067.72  1134.64
                             1165.73  1180.99  1303.23  1319.22  1337.86
                             1372.75  1461.35  1496.44  1499.94  1528.97
                             1543.71  1566.00  1613.24  1624.75  1633.13
                             1678.97  1704.37  1705.59  1717.96  1757.41
                             1769.87  1790.64  1827.01  1890.33  1905.42
                             1942.77  1954.96  1997.77  2007.80  2037.30
                             2040.78  2078.03  2103.69  2132.72  2142.61
                             2168.27  2182.73  2188.71  2200.86  2216.05
                             2234.78  2738.59  3389.96  4203.65  4221.37
                             4246.03  4364.57  4401.42  4408.54  4423.00
                             4426.99  4432.49  4436.92  4443.93  4466.79
                             4472.36  4493.57  4529.38  4589.06

 Zero-point correction=                           0.259240 (Hartree/Particle)
 Thermal correction to Energy=                    0.272363
 Thermal correction to Enthalpy=                  0.273307
 Thermal correction to Gibbs Free Energy=         0.219662
 Sum of electronic and zero-point Energies=           -613.272096
 Sum of electronic and thermal Energies=              -613.258974
 Sum of electronic and thermal Enthalpies=            -613.258029
 Sum of electronic and thermal Free Energies=         -613.311675

                     E (Thermal)             CV                S
                      KCal/Mol        Cal/Mol-Kelvin    Cal/Mol-Kelvin
 Total                  170.910             51.359            112.906
 Electronic               0.000              0.000              0.000
 Translational            0.889              2.981             41.664
 Rotational               0.889              2.981             31.617
 Vibrational            169.133             45.397             39.625
 Vibration     1          0.594              1.981              5.206
 Vibration     2          0.597              1.973              4.443
 Vibration     3          0.600              1.963              3.896
 Vibration     4          0.613              1.919              2.883
 Vibration     5          0.626              1.876              2.408
 Vibration     6          0.637              1.841              2.139
 Vibration     7          0.652              1.796              1.884
 Vibration     8          0.665              1.756              1.703
 Vibration     9          0.675              1.725              1.584
 Vibration    10          0.692              1.675              1.422
 Vibration    11          0.718              1.600              1.222
 Vibration    12          0.731              1.566              1.145
 Vibration    13          0.758              1.491              0.998
 Vibration    14          0.773              1.452              0.932
 Vibration    15          0.782              1.427              0.893
 Vibration    16          0.809              1.360              0.795
 Vibration    17          0.842              1.280              0.693
 Vibration    18          0.865              1.228              0.634
 Vibration    19          0.892              1.169              0.573
 Vibration    20          0.919              1.110              0.517
 Vibration    21          0.945              1.058              0.472

 Optimization completed.
    -- Stationary point found.
 Normal termination of Gaussian 16 at Thu Dec 10 09:54:42 2020.

 ----------------------------------------------------------------------
 # B3LYP/6-311++G(d,p) empiricaldispersion=gd3bj scf=xqc pop=npa geom=c
 heck
 ----------------------------------------------------------------------

 ---------------------------------------
 CID_131418785_JID_4426_Energie_neutraal
 ---------------------------------------
 Structure from the checkpoint file:  "JID_4426.chk"
 Charge =  0 Multiplicity = 1

 SCF Done:  E(RB3LYP) =  -613.700788419     A.U. after   14 cycles
 Normal termination of Gaussian 16 at Thu Dec 10 09:58:17 2020.

 ----------------------------------------------------------------------
 # B3LYP/6-311++G(d,p) empiricaldispersion=gd3bj scf=xqc pop=npa geom=c
 heck
 ----------------------------------------------------------------------

 -------------------------------------
 CID_131418785_JID_4426_Energie_kation
 -------------------------------------
 Structure from the checkpoint file:  "JID_4426.chk"
 Charge =  1 Multiplicity = 2

 SCF Done:  E(UB3LYP) =  -613.393086857     A.U. after   20 cycles
 Normal termination of Gaussian 16 at Thu Dec 10 10:05:06 2020.
 Gaussian 16:  ES64L-G16RevA.03 25-Dec-2016

 ----------------------------------------------------------------------
 # B3LYP/6-311++G(d,p) empiricaldispersion=gd3bj scf=xqc pop=npa geom=c
 heck
 ----------------------------------------------------------------------

 ------------------------------------
 CID_131418785_JID_4426_Energie_anion
 ------------------------------------
 Structure from the checkpoint file:  "JID_4426.chk"
 Charge = -1 Multiplicity = 2

                         Standard orientation:
 ---------------------------------------------------------------------
 Center     Atomic      Atomic             Coordinates (Angstroms)
 Number     Number       Type             X           Y           Z
 ---------------------------------------------------------------------
      1          6           0       -3.694972    0.470504   -0.768680
      2          7           0       -2.623207   -0.023420    0.078750
      3          6           0       -1.891811   -1.115200   -0.557360
      4          6           0       -0.873341   -1.720742    0.408760
      5          6           0        0.124380   -0.694111    0.981524
      6          6           0       -0.653551    0.554400    1.456430
      7          6           0       -1.729794    1.055527    0.487078
      8          6           0        1.355437   -0.414395    0.066360
      9          6           0        1.176000    0.532979   -1.182385
     10          6           0        1.838478    1.642020   -0.360541
     11          8           0        1.862086    2.840468   -0.446574
     12          6           0        2.348665    0.642049    0.683983
     13          6           0        2.009010   -1.678046   -0.268807
     14          7           0        2.533687   -2.678549   -0.538994
     15          1           0       -3.330544    0.906314   -1.720320
     16          1           0       -4.380903   -0.347964   -1.011376
     17          1           0       -4.259103    1.244411   -0.237240
     18          1           0       -2.614862   -1.887394   -0.843871
     19          1           0       -1.399716   -0.788827   -1.495704
     20          1           0       -0.342911   -2.547675   -0.074894
     21          1           0       -1.431670   -2.145275    1.251133
     22          1           0        0.572763   -1.146709    1.875535
     23          1           0        0.016640    1.383086    1.708078
     24          1           0       -1.160200    0.271505    2.386269
     25          1           0       -1.273993    1.561012   -0.385519
     26          1           0       -2.328843    1.818953    0.997228
     27          1           0        1.822692    0.226981   -2.012294
     28          1           0        0.173668    0.712397   -1.566287
     29          1           0        2.218481    0.898215    1.738362
     30          1           0        3.397438    0.381099    0.507035
 ---------------------------------------------------------------------

 SCF Done:  E(UB3LYP) =  -613.696415814     A.U. after   33 cycles
 SCF Done:  E(UB3LYP) =  -613.696415814     a.u. after    1 cycles

 The electronic state is 2-A.
 Alpha  occ. eigenvalues --  -18.97279 -14.20795 -14.20299 -10.12126 -10.10631
 Alpha  occ. eigenvalues --  -10.10518 -10.09143 -10.09008 -10.08749 -10.08359
 Alpha  occ. eigenvalues --  -10.07075 -10.07001 -10.06925 -10.06911  -0.90990
 Alpha  occ. eigenvalues --   -0.82948  -0.80886  -0.75675  -0.69470  -0.65656
 Alpha  occ. eigenvalues --   -0.60895  -0.57466  -0.56731  -0.53063  -0.50853
 Alpha  occ. eigenvalues --   -0.45400  -0.42102  -0.39605  -0.38879  -0.36669
 Alpha  occ. eigenvalues --   -0.36552  -0.35218  -0.34162  -0.32329  -0.31801
 Alpha  occ. eigenvalues --   -0.31224  -0.29489  -0.29052  -0.28779  -0.28168
 Alpha  occ. eigenvalues --   -0.26883  -0.26464  -0.25828  -0.25126  -0.24869
 Alpha  occ. eigenvalues --   -0.22991  -0.22487  -0.21888  -0.20781  -0.20248
 Alpha  occ. eigenvalues --   -0.12268  -0.11663   0.04722
 Alpha virt. eigenvalues --    0.06418   0.07470   0.08214   0.08896   0.09978
 Alpha virt. eigenvalues --    0.10385   0.10583   0.11243   0.11650   0.12206
 Alpha virt. eigenvalues --    0.12668   0.12759   0.12885   0.13356   0.14158

  Beta  occ. eigenvalues --  -18.96932 -14.20791 -14.20294 -10.12108 -10.10615
  Beta  occ. eigenvalues --  -10.10078 -10.09124 -10.08999 -10.08736 -10.08323
  Beta  occ. eigenvalues --  -10.07119 -10.06999 -10.06956 -10.06920  -0.90283
  Beta  occ. eigenvalues --   -0.82929  -0.80849  -0.75482  -0.69341  -0.65632
  Beta  occ. eigenvalues --   -0.60755  -0.57379  -0.56554  -0.53025  -0.50771
  Beta  occ. eigenvalues --   -0.45312  -0.41724  -0.39545  -0.38518  -0.36547
  Beta  occ. eigenvalues --   -0.36428  -0.35010  -0.33950  -0.32245  -0.31557
  Beta  occ. eigenvalues --   -0.30902  -0.29300  -0.29001  -0.28593  -0.28020
  Beta  occ. eigenvalues --   -0.26772  -0.26377  -0.25755  -0.24817  -0.24532
  Beta  occ. eigenvalues --   -0.22465  -0.22132  -0.21725  -0.20501  -0.20082
  Beta  occ. eigenvalues --   -0.12105  -0.11525
  Beta virt. eigenvalues --    0.06976   0.07848   0.08548   0.08800   0.09775
  Beta virt. eigenvalues --    0.10232   0.10558   0.11263   0.11435   0.12262
  Beta virt. eigenvalues --    0.12339   0.12770   0.12927   0.13204   0.13504

 Mulliken charges and spin densities:
               1          2
     1  C    0.840173  -1.084130
     2  N   -0.056121   0.159235
     3  C   -0.119974  -0.270321
     4  C   -0.687943  -0.080598
     5  C    0.165055   0.290123
     6  C   -0.134824  -0.535755
     7  C   -0.291722  -0.100528
     8  C    1.571918   0.137554
     9  C   -0.349501  -0.174840
    10  C   -0.153414   0.229103
    11  O   -0.369238   0.138715
    12  C   -0.330616  -0.236029
    13  C   -0.828620  -0.085286
    14  N   -0.274470   0.014911
    15  H   -0.092579   0.203097
    16  H   -0.417094   0.543658
    17  H   -0.365108   0.493515
    18  H   -0.080285   0.260033
    19  H    0.113491   0.000332
    20  H    0.188102  -0.007061
    21  H    0.083929   0.062738
    22  H    0.183254   0.059565
    23  H    0.041760   0.126948
    24  H    0.046026   0.125008
    25  H    0.153982   0.003581
    26  H   -0.089133   0.264283
    27  H    0.122677   0.087784
    28  H    0.054487   0.079939
    29  H   -0.027460   0.202781
    30  H    0.103247   0.091647
 Sum of Mulliken charges =  -1.00000   1.00000

 Dipole moment (field-independent basis, Debye):
    X=              1.1889    Y=             -2.2512    Z=              1.2786  Tot=              2.8489
 Quadrupole moment (field-independent basis, Debye-Ang):
   XX=           -151.4150   YY=           -135.1602   ZZ=           -106.4345
   XY=              2.6824   XZ=             -0.0974   YZ=             -2.3318

 Summary of Natural Population Analysis:

                                       Natural Population
                Natural  -----------------------------------------------
    Atom  No    Charge         Core      Valence    Rydberg      Total
 -----------------------------------------------------------------------
      C    1   -0.17451      0.99965     2.16625    0.00861     3.17451
      N    2   -0.28211      0.99971     2.76922    0.01318     3.78211
      C    3   -0.08404      0.99961     2.07309    0.01134     3.08404
      C    4   -0.19600      0.99960     2.18724    0.00916     3.19600
      C    5   -0.09382      0.99956     2.08302    0.01125     3.09382
      C    6   -0.19761      0.99960     2.18786    0.01014     3.19761
      C    7   -0.08427      0.99960     2.07325    0.01141     3.08427
      C    8   -0.08940      0.99947     2.07754    0.01238     3.08940
      C    9   -0.22859      0.99959     2.22040    0.00860     3.22859
      C   10    0.34246      0.99967     1.63418    0.02369     2.65754
      O   11   -0.25524      0.99986     3.24921    0.00617     4.25524
      C   12   -0.22471      0.99959     2.21617    0.00895     3.22471
      C   13    0.17297      0.99962     1.80624    0.02117     2.82703
      N   14   -0.19957      0.99979     2.68868    0.01110     3.69957
      H   15    0.07983      0.00000     0.41864    0.00152     0.42017
      H   16    0.09527      0.00000     0.40311    0.00162     0.40473
      H   17    0.09607      0.00000     0.40242    0.00151     0.40393
      H   18    0.09697      0.00000     0.40180    0.00123     0.40303
      H   19    0.07967      0.00000     0.41894    0.00140     0.42033
      H   20    0.10468      0.00000     0.39415    0.00117     0.39532
      H   21    0.10035      0.00000     0.39837    0.00128     0.39965
      H   22    0.10114      0.00000     0.39725    0.00161     0.39886
      H   23    0.10893      0.00000     0.38991    0.00116     0.39107
      H   24    0.10054      0.00000     0.39813    0.00133     0.39946
      H   25    0.08386      0.00000     0.41459    0.00155     0.41614
      H   26    0.09738      0.00000     0.40135    0.00126     0.40262
      H   27    0.11476      0.00000     0.38417    0.00107     0.38524
      H   28    0.11139      0.00000     0.38741    0.00120     0.38861
      H   29    0.10909      0.00000     0.38955    0.00136     0.39091
      H   30    0.11450      0.00000     0.38452    0.00098     0.38550
 =======================================================================
   * Total *    0.00000     13.99492    37.81664    0.18843    52.00000

 Normal termination of Gaussian 16 at Thu Dec 10 10:19:29 2020.
