 Gaussian 16, Revision A.03,

 -----------------------------------------------------------
 # opt freq B3LYP/6-31G(d) empiricaldispersion=gd3bj scf=xqc
 -----------------------------------------------------------

 ------------------------------
 CID_83753853_JID_5378_neutraal
 ------------------------------
 Symbolic Z-matrix:
 Charge =  0 Multiplicity = 1

 SCF Done:  E(RB3LYP) =  -636.858664428     A.U. after   14 cycles
 SCF Done:  E(RB3LYP) =  -636.862579452     A.U. after   11 cycles
 SCF Done:  E(RB3LYP) =  -636.862933663     A.U. after   10 cycles
 SCF Done:  E(RB3LYP) =  -636.863044187     A.U. after   10 cycles
 SCF Done:  E(RB3LYP) =  -636.863087376     A.U. after   10 cycles
 SCF Done:  E(RB3LYP) =  -636.863122406     A.U. after   10 cycles
 SCF Done:  E(RB3LYP) =  -636.863129108     A.U. after    9 cycles
 SCF Done:  E(RB3LYP) =  -636.863131150     A.U. after    8 cycles
 SCF Done:  E(RB3LYP) =  -636.863134215     A.U. after    9 cycles
 SCF Done:  E(RB3LYP) =  -636.863138683     A.U. after    9 cycles
 SCF Done:  E(RB3LYP) =  -636.863182569     A.U. after   10 cycles
 SCF Done:  E(RB3LYP) =  -636.863186621     A.U. after    9 cycles
 SCF Done:  E(RB3LYP) =  -636.863187780     A.U. after    9 cycles
 SCF Done:  E(RB3LYP) =  -636.863188124     A.U. after    8 cycles
 SCF Done:  E(RB3LYP) =  -636.863188240     A.U. after    8 cycles
 Optimization completed.
    -- Stationary point found.
 Normal termination of Gaussian 16 at Thu Dec 10 15:48:38 2020.

 --------------------------------------------------------------------
 #N Geom=AllCheck Guess=TCheck SCRF=Check GenChk RB3LYP/6-31G(d) Freq
 --------------------------------------------------------------------

 Structure from the checkpoint file:  "JID_5378.chk"
 ------------------------------
 CID_83753853_JID_5378_neutraal
 ------------------------------
 Charge =  0 Multiplicity = 1

 SCF Done:  E(RB3LYP) =  -636.863188240     A.U. after    1 cycles

  Exact polarizability: 203.898   3.824 139.603   6.764  -1.213  92.416
 Approx polarizability: 252.793   4.943 227.092  12.855  -3.172 144.656

                      1                      2                      3
                      A                      A                      A
 Frequencies --     27.8568                36.0187                54.1946
 Red. masses --      1.0484                 3.2336                 2.8743
 Frc consts  --      0.0005                 0.0025                 0.0050
 IR Inten    --      0.2098                 0.3766                 0.0072

                      4                      5                      6
                      A                      A                      A
 Frequencies --     72.8431               112.4292               158.8818
 Red. masses --      3.5489                 2.7242                 4.1689
 Frc consts  --      0.0111                 0.0203                 0.0620
 IR Inten    --      0.2089                 0.7475                 1.7124

                      7                      8                      9
                      A                      A                      A
 Frequencies --    197.2305               200.3673               239.3072
 Red. masses --      3.5265                 2.7167                 1.1068
 Frc consts  --      0.0808                 0.0643                 0.0373
 IR Inten    --      0.6950                 0.6397                 0.8164

                     10                     11                     12
                      A                      A                      A
 Frequencies --    268.4072               276.0497               297.3877
 Red. masses --      2.6558                 2.4031                 1.5935
 Frc consts  --      0.1127                 0.1079                 0.0830
 IR Inten    --      2.9631                 5.3537                 1.1580

                     13                     14                     15
                      A                      A                      A
 Frequencies --    310.9559               351.4841               396.3520
 Red. masses --      1.8247                 4.3678                 2.2916
 Frc consts  --      0.1040                 0.3179                 0.2121
 IR Inten    --      0.7683                 2.6181                 0.2259

                     16                     17                     18
                      A                      A                      A
 Frequencies --    406.7702               424.5843               452.3950
 Red. masses --      2.4657                 2.9311                 2.7881
 Frc consts  --      0.2404                 0.3113                 0.3362
 IR Inten    --      4.3618                 3.4936                 0.9908

                     19                     20                     21
                      A                      A                      A
 Frequencies --    462.5006               494.1483               520.0119
 Red. masses --      2.9229                 2.4492                 4.4451
 Frc consts  --      0.3684                 0.3524                 0.7082
 IR Inten    --      4.1839                 1.5702                 6.5335

                     22                     23                     24
                      A                      A                      A
 Frequencies --    564.2240               581.5501               658.5118
 Red. masses --      3.2346                 4.2313                 3.4945
 Frc consts  --      0.6067                 0.8431                 0.8928
 IR Inten    --      2.1982                 1.6490                28.2848

                     25                     26                     27
                      A                      A                      A
 Frequencies --    699.2020               721.0246               758.8178
 Red. masses --      2.3556                 3.8371                 3.4714
 Frc consts  --      0.6785                 1.1753                 1.1777
 IR Inten    --     30.5857                 2.0171                19.2701

                     28                     29                     30
                      A                      A                      A
 Frequencies --    771.9920               833.6159               849.4616
 Red. masses --      4.4550                 1.4234                 2.2712
 Frc consts  --      1.5643                 0.5828                 0.9656
 IR Inten    --      3.3524                26.5261                 7.2866

                     31                     32                     33
                      A                      A                      A
 Frequencies --    880.5235               911.7473               932.4555
 Red. masses --      1.3455                 1.4366                 2.1986
 Frc consts  --      0.6146                 0.7036                 1.1263
 IR Inten    --      1.5302                 4.4175                 2.4197

                     34                     35                     36
                      A                      A                      A
 Frequencies --    937.4792               948.7519               950.5661
 Red. masses --      1.3536                 1.3077                 2.7924
 Frc consts  --      0.7009                 0.6935                 1.4866
 IR Inten    --      1.2875                 0.3408                 1.8886

                     37                     38                     39
                      A                      A                      A
 Frequencies --    958.5729               975.8354              1032.1352
 Red. masses --      1.4106                 1.9890                 1.4832
 Frc consts  --      0.7637                 1.1159                 0.9310
 IR Inten    --      0.2359                 2.9720                11.3103

                     40                     41                     42
                      A                      A                      A
 Frequencies --   1067.8936              1075.6146              1088.7450
 Red. masses --      4.7194                 1.4983                 2.1840
 Frc consts  --      3.1710                 1.0213                 1.5253
 IR Inten    --     52.0006                 5.4760                25.6107

                     43                     44                     45
                      A                      A                      A
 Frequencies --   1116.5638              1154.1286              1157.0185
 Red. masses --      2.7658                 2.2035                 2.0980
 Frc consts  --      2.0316                 1.7293                 1.6548
 IR Inten    --      2.3748                23.6001                56.1721

                     46                     47                     48
                      A                      A                      A
 Frequencies --   1164.5846              1179.6239              1195.5269
 Red. masses --      1.8758                 1.5037                 1.7778
 Frc consts  --      1.4989                 1.2328                 1.4971
 IR Inten    --     12.1862                 5.7383                 0.5045

                     49                     50                     51
                      A                      A                      A
 Frequencies --   1210.2931              1233.4753              1255.5683
 Red. masses --      1.9936                 1.5055                 2.1235
 Frc consts  --      1.7206                 1.3496                 1.9723
 IR Inten    --     66.7560                 1.8731                81.5957

                     52                     53                     54
                      A                      A                      A
 Frequencies --   1285.0933              1287.4900              1301.7525
 Red. masses --      2.2297                 1.9220                 1.5299
 Frc consts  --      2.1696                 1.8771                 1.5275
 IR Inten    --     52.1163                79.4094                 5.9162

                     55                     56                     57
                      A                      A                      A
 Frequencies --   1336.3996              1341.1660              1365.7751
 Red. masses --      1.3038                 1.6897                 3.6402
 Frc consts  --      1.3719                 1.7907                 4.0007
 IR Inten    --      3.9008                 3.7375                41.1417

                     58                     59                     60
                      A                      A                      A
 Frequencies --   1369.7285              1383.2235              1402.4896
 Red. masses --      1.3897                 1.3459                 1.2892
 Frc consts  --      1.5362                 1.5172                 1.4941
 IR Inten    --     12.3690                21.0736                 1.9354

                     61                     62                     63
                      A                      A                      A
 Frequencies --   1424.6809              1437.9587              1443.9532
 Red. masses --      1.2829                 1.3597                 1.2485
 Frc consts  --      1.5341                 1.6564                 1.5337
 IR Inten    --      7.8342                 3.2057                 1.7129

                     64                     65                     66
                      A                      A                      A
 Frequencies --   1444.2954              1467.7929              1504.2238
 Red. masses --      1.2929                 3.1921                 1.1264
 Frc consts  --      1.5890                 4.0519                 1.5016
 IR Inten    --      9.8543                12.2849                12.2429

                     67                     68                     69
                      A                      A                      A
 Frequencies --   1508.1752              1516.0906              1516.4944
 Red. masses --      1.1671                 1.0454                 1.0543
 Frc consts  --      1.5641                 1.4157                 1.4286
 IR Inten    --     22.9405                 4.6548                 0.3917

                     70                     71                     72
                      A                      A                      A
 Frequencies --   1518.4767              1528.0346              1531.9692
 Red. masses --      1.0585                 1.1387                 1.1258
 Frc consts  --      1.4380                 1.5664                 1.5567
 IR Inten    --      5.3340                20.5822                14.3114

                     73                     74                     75
                      A                      A                      A
 Frequencies --   1538.9366              1543.8328              1555.9114
 Red. masses --      1.1044                 1.0829                 2.4253
 Frc consts  --      1.5410                 1.5206                 3.4593
 IR Inten    --      4.1764                 7.5309               114.8989

                     76                     77                     78
                      A                      A                      A
 Frequencies --   1642.5249              1679.6327              2991.4035
 Red. masses --      6.6396                 6.1868                 1.0728
 Frc consts  --     10.5540                10.2837                 5.6562
 IR Inten    --     11.8133                 8.1253                49.3772

                     79                     80                     81
                      A                      A                      A
 Frequencies --   3021.7706              3027.3944              3037.1134
 Red. masses --      1.0704                 1.0824                 1.0378
 Frc consts  --      5.7589                 5.8449                 5.6402
 IR Inten    --     26.6162                 8.5704                16.0944

                     82                     83                     84
                      A                      A                      A
 Frequencies --   3038.9813              3044.1854              3060.3528
 Red. masses --      1.0384                 1.0417                 1.0830
 Frc consts  --      5.6501                 5.6879                 5.9762
 IR Inten    --     48.0013                32.8068                22.5983

                     85                     86                     87
                      A                      A                      A
 Frequencies --   3088.8861              3089.9267              3101.5872
 Red. masses --      1.0941                 1.0997                 1.1001
 Frc consts  --      6.1505                 6.1862                 6.2351
 IR Inten    --     20.2335                27.2163                 9.9474

                     88                     89                     90
                      A                      A                      A
 Frequencies --   3111.3225              3119.9462              3121.2882
 Red. masses --      1.0967                 1.1010                 1.1008
 Frc consts  --      6.2552                 6.3146                 6.3186
 IR Inten    --     74.6551                46.9772                17.5717

                     91                     92                     93
                      A                      A                      A
 Frequencies --   3138.7422              3147.9516              3164.3678
 Red. masses --      1.1030                 1.0918                 1.0896
 Frc consts  --      6.4021                 6.3744                 6.4280
 IR Inten    --     26.4204                30.7619                20.3161

                     94                     95                     96
                      A                      A                      A
 Frequencies --   3178.9020              3212.5532              3475.1066
 Red. masses --      1.0886                 1.0931                 1.0734
 Frc consts  --      6.4817                 6.6470                 7.6376
 IR Inten    --     18.6816                11.1858                 0.7948

 - Thermochemistry -
 -------------------
 Temperature   298.150 Kelvin.  Pressure   1.00000 Atm.
 Atom     1 has atomic number  6 and mass  12.00000

 Molecular mass:   205.14666 amu.
 Principal axes and moments of inertia in atomic units:
                           1         2         3
     Eigenvalues --  1093.539076777.066087623.78900
           X            0.99998   0.00676   0.00005
           Y           -0.00676   0.99997  -0.00397
           Z           -0.00008   0.00397   0.99999
 This molecule is an asymmetric top.
 Rotational symmetry number  1.
 Warning -- assumption of classical behavior for rotation
           may cause significant error
 Rotational temperatures (Kelvin)      0.07921     0.01278     0.01136
 Rotational constants (GHZ):           1.65037     0.26630     0.23672
 Zero-point vibrational energy     787582.8 (Joules/Mol)
                                  188.23681 (Kcal/Mol)
 Warning -- explicit consideration of  23 degrees of freedom as
           vibrations may cause significant error
 Vibrational temperatures:     40.08    51.82    77.97   104.80   161.76
          (Kelvin)            228.60   283.77   288.28   344.31   386.18
                              397.17   427.87   447.40   505.71   570.26
                              585.25   610.88   650.90   665.44   710.97
                              748.18   811.79   836.72   947.45  1006.00
                             1037.39  1091.77  1110.72  1199.39  1222.19
                             1266.88  1311.80  1341.60  1348.82  1365.04
                             1367.65  1379.17  1404.01  1485.01  1536.46
                             1547.57  1566.46  1606.49  1660.53  1664.69
                             1675.58  1697.22  1720.10  1741.34  1774.70
                             1806.48  1848.96  1852.41  1872.93  1922.78
                             1929.64  1965.05  1970.73  1990.15  2017.87
                             2049.80  2068.90  2077.53  2078.02  2111.83
                             2164.24  2169.93  2181.32  2181.90  2184.75
                             2198.50  2204.16  2214.19  2221.23  2238.61
                             2363.23  2416.62  4303.96  4347.65  4355.75
                             4369.73  4372.42  4379.90  4403.17  4444.22
                             4445.72  4462.49  4476.50  4488.91  4490.84
                             4515.95  4529.20  4552.82  4573.73  4622.15
                             4999.90

 Zero-point correction=                           0.299974 (Hartree/Particle)
 Thermal correction to Energy=                    0.314923
 Thermal correction to Enthalpy=                  0.315867
 Thermal correction to Gibbs Free Energy=         0.257002
 Sum of electronic and zero-point Energies=           -636.563214
 Sum of electronic and thermal Energies=              -636.548265
 Sum of electronic and thermal Enthalpies=            -636.547321
 Sum of electronic and thermal Free Energies=         -636.606186

                     E (Thermal)             CV                S
                      KCal/Mol        Cal/Mol-Kelvin    Cal/Mol-Kelvin
 Total                  197.617             57.533            123.892
 Electronic               0.000              0.000              0.000
 Translational            0.889              2.981             41.860
 Rotational               0.889              2.981             32.402
 Vibrational            195.840             51.572             49.630
 Vibration     1          0.593              1.984              5.976
 Vibration     2          0.594              1.982              5.467
 Vibration     3          0.596              1.976              4.658
 Vibration     4          0.599              1.967              4.075
 Vibration     5          0.607              1.939              3.227
 Vibration     6          0.621              1.893              2.563
 Vibration     7          0.637              1.844              2.159
 Vibration     8          0.638              1.839              2.130
 Vibration     9          0.657              1.780              1.808
 Vibration    10          0.673              1.731              1.606
 Vibration    11          0.678              1.718              1.558
 Vibration    12          0.691              1.679              1.432
 Vibration    13          0.700              1.653              1.357
 Vibration    14          0.728              1.572              1.160
 Vibration    15          0.763              1.478              0.976
 Vibration    16          0.772              1.456              0.938
 Vibration    17          0.787              1.417              0.877
 Vibration    18          0.811              1.356              0.789
 Vibration    19          0.820              1.333              0.759
 Vibration    20          0.850              1.263              0.673
 Vibration    21          0.875              1.206              0.610
 Vibration    22          0.920              1.109              0.515
 Vibration    23          0.938              1.071              0.482

 Optimization completed.
    -- Stationary point found.
 Normal termination of Gaussian 16 at Thu Dec 10 15:58:31 2020.

 ----------------------------------------------------------------------
 # B3LYP/6-311++G(d,p) empiricaldispersion=gd3bj scf=xqc pop=npa geom=c
 heck
 ----------------------------------------------------------------------

 --------------------------------------
 CID_83753853_JID_5378_Energie_neutraal
 --------------------------------------
 Structure from the checkpoint file:  "JID_5378.chk"
 Charge =  0 Multiplicity = 1

 SCF Done:  E(RB3LYP) =  -637.036502038     A.U. after   14 cycles
 Normal termination of Gaussian 16 at Thu Dec 10 16:02:44 2020.

 ----------------------------------------------------------------------
 # B3LYP/6-311++G(d,p) empiricaldispersion=gd3bj scf=xqc pop=npa geom=c
 heck
 ----------------------------------------------------------------------

 ------------------------------------
 CID_83753853_JID_5378_Energie_kation
 ------------------------------------
 Structure from the checkpoint file:  "JID_5378.chk"
 Charge =  1 Multiplicity = 2

 SCF Done:  E(UB3LYP) =  -636.762897207     A.U. after   23 cycles
 Normal termination of Gaussian 16 at Thu Dec 10 16:14:26 2020.
 Gaussian 16:  ES64L-G16RevA.03 25-Dec-2016

 ----------------------------------------------------------------------
 # B3LYP/6-311++G(d,p) empiricaldispersion=gd3bj scf=xqc pop=npa geom=c
 heck
 ----------------------------------------------------------------------

 -----------------------------------
 CID_83753853_JID_5378_Energie_anion
 -----------------------------------
 Structure from the checkpoint file:  "JID_5378.chk"
 Charge = -1 Multiplicity = 2

                         Standard orientation:
 ---------------------------------------------------------------------
 Center     Atomic      Atomic             Coordinates (Angstroms)
 Number     Number       Type             X           Y           Z
 ---------------------------------------------------------------------
      1          6           0       -4.923156   -1.395899   -0.244193
      2          6           0       -3.668600   -0.562769   -0.138434
      3          6           0       -2.415723   -1.154481    0.024426
      4          6           0       -1.237255   -0.407307    0.138193
      5          6           0       -1.334844    0.988905    0.086052
      6          6           0       -2.577382    1.608138   -0.085350
      7          6           0       -3.727411    0.837944   -0.197153
      8          8           0       -0.243253    1.817319    0.165243
      9          6           0        0.962579    1.223863    0.645773
     10          6           0        1.263287   -0.120060   -0.030879
     11          6           0        0.110401   -1.077259    0.293992
     12          7           0        2.537984   -0.710911    0.368568
     13          6           0        3.710431   -0.454648   -0.474366
     14          6           0        4.106537    1.023344   -0.634090
     15          6           0        4.878488   -1.276822    0.073924
     16          1           0       -4.686885   -2.461472   -0.327762
     17          1           0       -5.566696   -1.268615    0.636056
     18          1           0       -5.519783   -1.115766   -1.120687
     19          1           0       -2.341872   -2.240199    0.057840
     20          1           0       -2.614629    2.692026   -0.129420
     21          1           0       -4.687943    1.330139   -0.330958
     22          1           0        0.886437    1.070274    1.735201
     23          1           0        1.744322    1.960885    0.456973
     24          1           0        1.291706    0.050183   -1.114323
     25          1           0        0.244654   -1.433312    1.326053
     26          1           0        0.179675   -1.965809   -0.343138
     27          1           0        2.746927   -0.491063    1.341900
     28          1           0        3.456349   -0.844853   -1.469955
     29          1           0        4.334456    1.470394    0.342284
     30          1           0        4.998227    1.121703   -1.264641
     31          1           0        3.307325    1.608563   -1.100282
     32          1           0        4.597303   -2.330263    0.161440
     33          1           0        5.756169   -1.195412   -0.575864
     34          1           0        5.170287   -0.917277    1.070005
 ---------------------------------------------------------------------

 SCF Done:  E(UB3LYP) =  -637.020751426     A.U. after   33 cycles
 SCF Done:  E(UB3LYP) =  -637.020751426     a.u. after    1 cycles

 The electronic state is 2-A.
 Alpha  occ. eigenvalues --  -19.05852 -14.20540 -10.13768 -10.13139 -10.11373
 Alpha  occ. eigenvalues --  -10.10882 -10.08837 -10.08656 -10.08148 -10.08113
 Alpha  occ. eigenvalues --  -10.08064 -10.07972 -10.07547 -10.06412 -10.06228
 Alpha  occ. eigenvalues --   -0.97597  -0.82235  -0.76856  -0.71275  -0.68650
 Alpha  occ. eigenvalues --   -0.66785  -0.63548  -0.60867  -0.59375  -0.56677
 Alpha  occ. eigenvalues --   -0.53116  -0.51740  -0.49769  -0.46474  -0.43516
 Alpha  occ. eigenvalues --   -0.41328  -0.40116  -0.37556  -0.36340  -0.35706
 Alpha  occ. eigenvalues --   -0.34891  -0.34355  -0.33619  -0.32796  -0.32532
 Alpha  occ. eigenvalues --   -0.31148  -0.30772  -0.29895  -0.29271  -0.29171
 Alpha  occ. eigenvalues --   -0.27978  -0.27056  -0.26116  -0.25229  -0.24595
 Alpha  occ. eigenvalues --   -0.23879  -0.23131  -0.21979  -0.15877  -0.13701
 Alpha  occ. eigenvalues --   -0.12328   0.04280
 Alpha virt. eigenvalues --    0.05502   0.06750   0.07184   0.07444   0.07766
 Alpha virt. eigenvalues --    0.08007   0.08249   0.09248   0.09643   0.09822
 Alpha virt. eigenvalues --    0.10329   0.10638   0.10866   0.11034   0.12038

  Beta  occ. eigenvalues --  -19.05851 -14.20522 -10.13764 -10.13121 -10.11370
  Beta  occ. eigenvalues --  -10.10873 -10.08834 -10.08652 -10.08138 -10.08103
  Beta  occ. eigenvalues --  -10.08061 -10.07963 -10.07513 -10.06374 -10.06190
  Beta  occ. eigenvalues --   -0.97590  -0.82207  -0.76844  -0.71256  -0.68626
  Beta  occ. eigenvalues --   -0.66759  -0.63513  -0.60829  -0.59304  -0.56641
  Beta  occ. eigenvalues --   -0.53080  -0.51718  -0.49702  -0.46433  -0.43496
  Beta  occ. eigenvalues --   -0.41303  -0.40092  -0.37516  -0.36309  -0.35683
  Beta  occ. eigenvalues --   -0.34862  -0.34316  -0.33593  -0.32760  -0.32501
  Beta  occ. eigenvalues --   -0.31116  -0.30737  -0.29866  -0.29237  -0.29132
  Beta  occ. eigenvalues --   -0.27941  -0.27028  -0.26085  -0.25201  -0.24536
  Beta  occ. eigenvalues --   -0.23854  -0.23112  -0.21960  -0.15861  -0.13681
  Beta  occ. eigenvalues --   -0.12308
  Beta virt. eigenvalues --    0.06174   0.06618   0.06991   0.07477   0.07895
  Beta virt. eigenvalues --    0.08109   0.08416   0.08467   0.09573   0.10000
  Beta virt. eigenvalues --    0.10190   0.10631   0.11038   0.11192   0.11327

 Mulliken charges and spin densities:
               1          2
     1  C    2.375200  -2.751796
     2  C   -0.680516   1.346144
     3  C   -0.099761  -0.075408
     4  C    1.776218  -0.316286
     5  C   -0.275605  -0.894909
     6  C   -0.608425   0.292023
     7  C   -1.372918   0.791233
     8  O   -0.111046   0.033001
     9  C    0.679344  -0.951176
    10  C   -1.115317   0.303953
    11  C   -0.579872  -0.016903
    12  N    0.295965  -0.034040
    13  C   -1.238199   1.205709
    14  C    1.025470  -1.535067
    15  C    0.825887  -1.349854
    16  H   -0.485814   0.639331
    17  H   -0.038808   0.199303
    18  H   -0.204133   0.348967
    19  H   -0.002939   0.130544
    20  H    0.063249   0.106104
    21  H   -0.237156   0.381825
    22  H   -0.206471   0.380608
    23  H    0.181905   0.007145
    24  H    0.099283   0.070944
    25  H   -0.044947   0.211463
    26  H    0.019587   0.161534
    27  H    0.261119  -0.012172
    28  H    0.023923   0.110606
    29  H   -0.200152   0.359629
    30  H   -0.250105   0.394239
    31  H   -0.117604   0.272387
    32  H   -0.192240   0.352256
    33  H   -0.217087   0.352017
    34  H   -0.348033   0.486644
 Sum of Mulliken charges =  -1.00000   1.00000

 Dipole moment (field-independent basis, Debye):
    X=             -2.4856    Y=              1.8561    Z=             -0.1000  Tot=              3.1038
 Quadrupole moment (field-independent basis, Debye-Ang):
   XX=           -221.5420   YY=           -132.3734   ZZ=           -124.0338
   XY=             -8.3072   XZ=             -4.4566   YZ=              0.0107

 Summary of Natural Population Analysis:

                                       Natural Population
                Natural  -----------------------------------------------
    Atom  No    Charge         Core      Valence    Rydberg      Total
 -----------------------------------------------------------------------
      C    1   -0.29163      0.99964     2.28631    0.00568     3.29163
      C    2   -0.02751      0.99952     2.01795    0.01004     3.02751
      C    3   -0.09016      0.99949     2.08180    0.00888     3.09016
      C    4   -0.04480      0.99948     2.03678    0.00854     3.04480
      C    5    0.15436      0.99932     1.83418    0.01214     2.84564
      C    6   -0.11540      0.99953     2.10660    0.00927     3.11540
      C    7   -0.09646      0.99952     2.08822    0.00872     3.09646
      O    8   -0.27865      0.99986     3.27013    0.00866     4.27865
      C    9   -0.01391      0.99954     2.00182    0.01256     3.01391
      C   10   -0.02099      0.99958     2.00999    0.01142     3.02099
      C   11   -0.19519      0.99959     2.18589    0.00972     3.19519
      N   12   -0.34410      0.99972     2.83161    0.01277     3.84410
      C   13   -0.00801      0.99962     1.99729    0.01110     3.00801
      C   14   -0.29633      0.99965     2.29072    0.00596     3.29633
      C   15   -0.28602      0.99965     2.28029    0.00608     3.28602
      H   16    0.10259      0.00000     0.39619    0.00121     0.39741
      H   17    0.10279      0.00000     0.39620    0.00101     0.39721
      H   18    0.10371      0.00000     0.39494    0.00134     0.39629
      H   19    0.09828      0.00000     0.40035    0.00137     0.40172
      H   20    0.10376      0.00000     0.39488    0.00136     0.39624
      H   21    0.09880      0.00000     0.40030    0.00089     0.40120
      H   22    0.08043      0.00000     0.41796    0.00161     0.41957
      H   23    0.09701      0.00000     0.40142    0.00157     0.40299
      H   24    0.09469      0.00000     0.40339    0.00192     0.40531
      H   25    0.10536      0.00000     0.39326    0.00138     0.39464
      H   26    0.10791      0.00000     0.39082    0.00127     0.39209
      H   27    0.17348      0.00000     0.32367    0.00285     0.32652
      H   28    0.08687      0.00000     0.41131    0.00183     0.41313
      H   29    0.09815      0.00000     0.40028    0.00157     0.40185
      H   30    0.10234      0.00000     0.39650    0.00116     0.39766
      H   31    0.09704      0.00000     0.40188    0.00108     0.40296
      H   32    0.10339      0.00000     0.39534    0.00127     0.39661
      H   33    0.10103      0.00000     0.39778    0.00118     0.39897
      H   34    0.09717      0.00000     0.40141    0.00143     0.40283
 =======================================================================
   * Total *   -0.00000     14.99369    40.83748    0.16883    56.00000

 Normal termination of Gaussian 16 at Thu Dec 10 16:31:37 2020.
