 Gaussian 16, Revision A.03,

 -----------------------------------------------------------
 # opt freq B3LYP/6-31G(d) empiricaldispersion=gd3bj scf=xqc
 -----------------------------------------------------------

 ------------------------------
 CID_58543801_JID_6595_neutraal
 ------------------------------
 Symbolic Z-matrix:
 Charge =  0 Multiplicity = 1

 SCF Done:  E(RB3LYP) =  -728.320644654     A.U. after   15 cycles
 SCF Done:  E(RB3LYP) =  -728.323257151     A.U. after   12 cycles
 SCF Done:  E(RB3LYP) =  -728.322825068     A.U. after   12 cycles
 SCF Done:  E(RB3LYP) =  -728.323923975     A.U. after   12 cycles
 SCF Done:  E(RB3LYP) =  -728.324050023     A.U. after   11 cycles
 SCF Done:  E(RB3LYP) =  -728.324072225     A.U. after   10 cycles
 SCF Done:  E(RB3LYP) =  -728.324080623     A.U. after   10 cycles
 SCF Done:  E(RB3LYP) =  -728.324083483     A.U. after    9 cycles
 SCF Done:  E(RB3LYP) =  -728.324084608     A.U. after    9 cycles
 SCF Done:  E(RB3LYP) =  -728.324085097     A.U. after    9 cycles
 SCF Done:  E(RB3LYP) =  -728.324123337     A.U. after   10 cycles
 SCF Done:  E(RB3LYP) =  -728.324125305     A.U. after   10 cycles
 SCF Done:  E(RB3LYP) =  -728.324125656     A.U. after    9 cycles
 SCF Done:  E(RB3LYP) =  -728.324126004     A.U. after    9 cycles
 SCF Done:  E(RB3LYP) =  -728.324126270     A.U. after    8 cycles
 SCF Done:  E(RB3LYP) =  -728.324126461     A.U. after    8 cycles
 Optimization completed.
    -- Stationary point found.
 Normal termination of Gaussian 16 at Thu Dec 10 23:58:48 2020.

 --------------------------------------------------------------------
 #N Geom=AllCheck Guess=TCheck SCRF=Check GenChk RB3LYP/6-31G(d) Freq
 --------------------------------------------------------------------

 Structure from the checkpoint file:  "JID_6595.chk"
 ------------------------------
 CID_58543801_JID_6595_neutraal
 ------------------------------
 Charge =  0 Multiplicity = 1

 SCF Done:  E(RB3LYP) =  -728.324126461     A.U. after    1 cycles

  Exact polarizability: 184.765  -8.074 124.547 -15.043   5.159 100.324
 Approx polarizability: 245.975 -21.160 218.733 -34.180  17.206 162.954

                      1                      2                      3
                      A                      A                      A
 Frequencies --     13.6181                16.3797                28.1726
 Red. masses --      1.0629                 4.3349                 4.5006
 Frc consts  --      0.0001                 0.0007                 0.0021
 IR Inten    --      0.2063                 0.0836                 0.3791

                      4                      5                      6
                      A                      A                      A
 Frequencies --     30.6257                65.5349               137.4882
 Red. masses --      4.8320                 7.9687                 4.4273
 Frc consts  --      0.0027                 0.0202                 0.0493
 IR Inten    --      0.3716                 1.5878                 0.4596

                      7                      8                      9
                      A                      A                      A
 Frequencies --    153.6545               206.4667               217.3685
 Red. masses --      5.3340                 5.1027                 3.0235
 Frc consts  --      0.0742                 0.1282                 0.0842
 IR Inten    --      0.0713                 1.1323                 0.9369

                     10                     11                     12
                      A                      A                      A
 Frequencies --    243.7742               270.2658               328.7569
 Red. masses --      5.2671                 5.2557                 2.5123
 Frc consts  --      0.1844                 0.2262                 0.1600
 IR Inten    --      3.6786                 1.5740                13.7749

                     13                     14                     15
                      A                      A                      A
 Frequencies --    384.6861               434.5939               451.4606
 Red. masses --      3.7680                 3.5052                 5.6402
 Frc consts  --      0.3285                 0.3901                 0.6773
 IR Inten    --      8.4409                 0.5484                 2.4020

                     16                     17                     18
                      A                      A                      A
 Frequencies --    503.1490               516.0554               552.1781
 Red. masses --      4.1404                 5.2252                 5.6760
 Frc consts  --      0.6176                 0.8199                 1.0197
 IR Inten    --      5.1451                 4.6022                 9.2982

                     19                     20                     21
                      A                      A                      A
 Frequencies --    611.9956               631.8261               688.2344
 Red. masses --      3.4177                 4.1819                 6.3755
 Frc consts  --      0.7542                 0.9836                 1.7793
 IR Inten    --      6.0562                 2.7448                 1.4447

                     22                     23                     24
                      A                      A                      A
 Frequencies --    693.7895               723.4256               732.6776
 Red. masses --      3.3371                 2.8532                 1.4539
 Frc consts  --      0.9464                 0.8798                 0.4599
 IR Inten    --      2.2321                 4.4557                35.5717

                     25                     26                     27
                      A                      A                      A
 Frequencies --    755.2607               791.7695               813.6456
 Red. masses --      2.6988                 4.4598                 1.2611
 Frc consts  --      0.9070                 1.6473                 0.4919
 IR Inten    --     56.6459                 2.8099                19.1244

                     28                     29                     30
                      A                      A                      A
 Frequencies --    823.7174               865.5067               889.4021
 Red. masses --      1.8614                 1.2920                 4.4090
 Frc consts  --      0.7441                 0.5702                 2.0549
 IR Inten    --      4.0111                 0.3941                17.7052

                     31                     32                     33
                      A                      A                      A
 Frequencies --    907.6387               922.6107               952.1891
 Red. masses --      6.1268                 1.3068                 1.3985
 Frc consts  --      2.9738                 0.6554                 0.7471
 IR Inten    --      5.2066                 0.6596                 2.1274

                     34                     35                     36
                      A                      A                      A
 Frequencies --    968.4664               986.7921              1013.6127
 Red. masses --      3.3287                 1.2954                 1.9664
 Frc consts  --      1.8395                 0.7432                 1.1903
 IR Inten    --      5.8179                 0.0408                 3.7346

                     37                     38                     39
                      A                      A                      A
 Frequencies --   1024.6718              1033.0916              1051.5106
 Red. masses --      4.2125                 1.5635                 2.5526
 Frc consts  --      2.6059                 0.9831                 1.6629
 IR Inten    --      9.8243                29.4855                36.4039

                     40                     41                     42
                      A                      A                      A
 Frequencies --   1057.9477              1079.3804              1115.2220
 Red. masses --      1.8877                 1.5229                 3.3093
 Frc consts  --      1.2449                 1.0453                 2.4250
 IR Inten    --      1.1799                 4.3151                 4.2956

                     43                     44                     45
                      A                      A                      A
 Frequencies --   1130.2270              1143.0292              1178.8375
 Red. masses --      1.5869                 2.4043                 1.7598
 Frc consts  --      1.1944                 1.8508                 1.4409
 IR Inten    --      8.0203               136.2531                11.4398

                     46                     47                     48
                      A                      A                      A
 Frequencies --   1206.1059              1224.8353              1243.0371
 Red. masses --      1.1213                 2.8203                 3.4589
 Frc consts  --      0.9611                 2.4929                 3.1489
 IR Inten    --     13.7988               232.7481                22.7864

                     49                     50                     51
                      A                      A                      A
 Frequencies --   1262.6947              1303.9219              1313.2150
 Red. masses --      1.6187                 1.4509                 3.0409
 Frc consts  --      1.5206                 1.4534                 3.0897
 IR Inten    --     11.7345                58.4866               345.7261

                     52                     53                     54
                      A                      A                      A
 Frequencies --   1336.5809              1371.3635              1402.5694
 Red. masses --      1.4693                 4.7106                 1.7425
 Frc consts  --      1.5465                 5.2195                 2.0196
 IR Inten    --      1.9204                 6.4182                19.5161

                     55                     56                     57
                      A                      A                      A
 Frequencies --   1444.0758              1452.8342              1478.9525
 Red. masses --      1.2482                 2.0158                 2.5331
 Frc consts  --      1.5337                 2.5069                 3.2645
 IR Inten    --      0.3038                 9.5045                31.3837

                     58                     59                     60
                      A                      A                      A
 Frequencies --   1509.7888              1516.1304              1525.1546
 Red. masses --      1.1312                 1.0441                 1.4179
 Frc consts  --      1.5192                 1.4140                 1.9432
 IR Inten    --     22.5943                 5.9223                13.6911

                     61                     62                     63
                      A                      A                      A
 Frequencies --   1540.4322              1554.7908              1646.0631
 Red. masses --      1.8266                 4.7268                 5.5166
 Frc consts  --      2.5537                 6.7323                 8.8068
 IR Inten    --      2.8060                11.7272                 5.1720

                     64                     65                     66
                      A                      A                      A
 Frequencies --   1656.1475              1669.8561              1809.5507
 Red. masses --      6.3156                 5.8072                12.0259
 Frc consts  --     10.2062                 9.5406                23.2012
 IR Inten    --      2.7981                13.5174               196.7417

                     67                     68                     69
                      A                      A                      A
 Frequencies --   3047.0986              3076.8231              3099.4661
 Red. masses --      1.0377                 1.0594                 1.1010
 Frc consts  --      5.6766                 5.9089                 6.2318
 IR Inten    --     29.0322                34.6100                18.8665

                     70                     71                     72
                      A                      A                      A
 Frequencies --   3129.1912              3133.2318              3178.7178
 Red. masses --      1.1053                 1.1008                 1.0879
 Frc consts  --      6.3767                 6.3672                 6.4766
 IR Inten    --      4.0942                14.0640                10.2344

                     73                     74                     75
                      A                      A                      A
 Frequencies --   3201.5806              3215.6824              3237.8555
 Red. masses --      1.0927                 1.0905                 1.0926
 Frc consts  --      6.5993                 6.6436                 6.7491
 IR Inten    --     22.9885                 2.2938                 3.6750

                     76                     77                     78
                      A                      A                      A
 Frequencies --   3267.6772              3282.9901              3306.0075
 Red. masses --      1.0908                 1.0978                 1.1046
 Frc consts  --      6.8626                 6.9716                 7.1132
 IR Inten    --      4.7640                 1.2484                 1.4519

 - Thermochemistry -
 -------------------
 Temperature   298.150 Kelvin.  Pressure   1.00000 Atm.
 Atom     1 has atomic number  6 and mass  12.00000

 Molecular mass:   216.07864 amu.
 Principal axes and moments of inertia in atomic units:
                           1         2         3
     Eigenvalues --  1351.510137689.041307837.52320
           X            0.99997   0.00702  -0.00294
           Y           -0.00717   0.99850  -0.05429
           Z            0.00256   0.05431   0.99852
 This molecule is an asymmetric top.
 Rotational symmetry number  1.
 Warning -- assumption of classical behavior for rotation
           may cause significant error
 Rotational temperatures (Kelvin)      0.06409     0.01126     0.01105
 Rotational constants (GHZ):           1.33535     0.23472     0.23027
 Zero-point vibrational energy     584885.0 (Joules/Mol)
                                  139.79086 (Kcal/Mol)
 Warning -- explicit consideration of  19 degrees of freedom as
           vibrations may cause significant error
 Vibrational temperatures:     19.59    23.57    40.53    44.06    94.29
          (Kelvin)            197.81   221.07   297.06   312.74   350.74
                              388.85   473.01   553.48   625.28   649.55
                              723.92   742.49   794.46   880.53   909.06
                              990.22   998.21  1040.85  1054.16  1086.65
                             1139.18  1170.65  1185.15  1245.27  1279.65
                             1305.89  1327.43  1369.99  1393.41  1419.77
                             1458.36  1474.27  1486.39  1512.89  1522.15
                             1552.99  1604.56  1626.14  1644.56  1696.08
                             1735.32  1762.26  1788.45  1816.74  1876.05
                             1889.42  1923.04  1973.09  2017.98  2077.70
                             2090.30  2127.88  2172.25  2181.37  2194.36
                             2216.34  2237.00  2368.32  2382.83  2402.55
                             2603.54  4384.10  4426.86  4459.44  4502.21
                             4508.02  4573.47  4606.36  4626.65  4658.55
                             4701.46  4723.49  4756.61

 Zero-point correction=                           0.222771 (Hartree/Particle)
 Thermal correction to Energy=                    0.237021
 Thermal correction to Enthalpy=                  0.237965
 Thermal correction to Gibbs Free Energy=         0.176836
 Sum of electronic and zero-point Energies=           -728.101356
 Sum of electronic and thermal Energies=              -728.087105
 Sum of electronic and thermal Enthalpies=            -728.086161
 Sum of electronic and thermal Free Energies=         -728.147290

                     E (Thermal)             CV                S
                      KCal/Mol        Cal/Mol-Kelvin    Cal/Mol-Kelvin
 Total                  148.733             52.522            128.657
 Electronic               0.000              0.000              0.000
 Translational            0.889              2.981             42.015
 Rotational               0.889              2.981             32.765
 Vibrational            146.956             46.560             53.877
 Vibration     1          0.593              1.986              7.398
 Vibration     2          0.593              1.986              7.031
 Vibration     3          0.593              1.984              5.954
 Vibration     4          0.594              1.984              5.788
 Vibration     5          0.597              1.971              4.283
 Vibration     6          0.614              1.916              2.839
 Vibration     7          0.619              1.899              2.626
 Vibration     8          0.641              1.831              2.075
 Vibration     9          0.646              1.815              1.981
 Vibration    10          0.659              1.773              1.775
 Vibration    11          0.674              1.728              1.595
 Vibration    12          0.712              1.618              1.266
 Vibration    13          0.754              1.503              1.021
 Vibration    14          0.795              1.395              0.844
 Vibration    15          0.810              1.358              0.791
 Vibration    16          0.858              1.243              0.650
 Vibration    17          0.871              1.214              0.619
 Vibration    18          0.908              1.135              0.540
 Vibration    19          0.971              1.006              0.429

                           ! Non-Optimized Parameters !
 Normal termination of Gaussian 16 at Fri Dec 11 00:06:06 2020.

 ----------------------------------------------------------------------
 # B3LYP/6-311++G(d,p) empiricaldispersion=gd3bj scf=xqc pop=npa geom=c
 heck
 ----------------------------------------------------------------------

 --------------------------------------
 CID_58543801_JID_6595_Energie_neutraal
 --------------------------------------
 Structure from the checkpoint file:  "JID_6595.chk"
 Charge =  0 Multiplicity = 1

 SCF Done:  E(RB3LYP) =  -728.522872268     A.U. after   15 cycles
 Normal termination of Gaussian 16 at Fri Dec 11 00:09:28 2020.

 ----------------------------------------------------------------------
 # B3LYP/6-311++G(d,p) empiricaldispersion=gd3bj scf=xqc pop=npa geom=c
 heck
 ----------------------------------------------------------------------

 ------------------------------------
 CID_58543801_JID_6595_Energie_kation
 ------------------------------------
 Structure from the checkpoint file:  "JID_6595.chk"
 Charge =  1 Multiplicity = 2

 SCF Done:  E(UB3LYP) =  -728.222649832     A.U. after   31 cycles
 Normal termination of Gaussian 16 at Fri Dec 11 00:19:11 2020.
 Gaussian 16:  ES64L-G16RevA.03 25-Dec-2016

 ----------------------------------------------------------------------
 # B3LYP/6-311++G(d,p) empiricaldispersion=gd3bj scf=xqc pop=npa geom=c
 heck
 ----------------------------------------------------------------------

 -----------------------------------
 CID_58543801_JID_6595_Energie_anion
 -----------------------------------
 Structure from the checkpoint file:  "JID_6595.chk"
 Charge = -1 Multiplicity = 2

                         Standard orientation:
 ---------------------------------------------------------------------
 Center     Atomic      Atomic             Coordinates (Angstroms)
 Number     Number       Type             X           Y           Z
 ---------------------------------------------------------------------
      1          6           0       -4.691823   -1.640814    0.555694
      2          6           0       -3.670209   -0.553024    0.329331
      3          6           0       -2.389988   -0.850469   -0.136266
      4          6           0       -1.443491    0.161125   -0.345094
      5          6           0       -1.774378    1.495391   -0.084957
      6          6           0       -3.051514    1.802487    0.381048
      7          6           0       -3.987202    0.789681    0.584995
      8          6           0       -0.101164   -0.243400   -0.836912
      9          8           0        0.242185   -1.386573   -1.053945
     10          8           0        0.717009    0.829089   -1.026784
     11          6           0        2.066612    0.519846   -1.403485
     12          6           0        2.877235    0.211548   -0.188018
     13          6           0        2.715330    0.480641    1.137043
     14          6           0        3.861679   -0.073750    1.801774
     15          6           0        4.633160   -0.630009    0.829962
     16          8           0        4.044589   -0.466433   -0.394377
     17          1           0       -4.286754   -2.624685    0.302263
     18          1           0       -5.016090   -1.670369    1.602991
     19          1           0       -5.588038   -1.478349   -0.055165
     20          1           0       -2.101183   -1.875537   -0.345441
     21          1           0       -1.039463    2.274833   -0.246979
     22          1           0       -3.318655    2.835205    0.586028
     23          1           0       -4.980821    1.041314    0.948993
     24          1           0        2.083964   -0.326714   -2.094818
     25          1           0        2.423671    1.415905   -1.920916
     26          1           0        1.880177    0.999941    1.583806
     27          1           0        4.072908   -0.058903    2.861691
     28          1           0        5.574534   -1.156811    0.827703
 ---------------------------------------------------------------------

 SCF Done:  E(UB3LYP) =  -728.524638536     A.U. after   32 cycles

 The electronic state is 2-A.
 Alpha  occ. eigenvalues --  -19.09087 -19.02733 -18.94681 -10.12945 -10.12536
 Alpha  occ. eigenvalues --  -10.12482 -10.12267 -10.07651 -10.06739 -10.05329
 Alpha  occ. eigenvalues --  -10.04290 -10.03470 -10.02632 -10.02411 -10.02353
 Alpha  occ. eigenvalues --  -10.02208  -1.01472  -0.96361  -0.86950  -0.71914
 Alpha  occ. eigenvalues --   -0.70275  -0.67822  -0.64348  -0.61647  -0.58926
 Alpha  occ. eigenvalues --   -0.55769  -0.50952  -0.49107  -0.45893  -0.45526
 Alpha  occ. eigenvalues --   -0.44374  -0.41559  -0.39152  -0.36694  -0.36034
 Alpha  occ. eigenvalues --   -0.34307  -0.33858  -0.31944  -0.31603  -0.30607
 Alpha  occ. eigenvalues --   -0.30486  -0.30032  -0.28846  -0.28667  -0.27719
 Alpha  occ. eigenvalues --   -0.27255  -0.26182  -0.23135  -0.21819  -0.21383
 Alpha  occ. eigenvalues --   -0.20310  -0.18515  -0.17798  -0.13376  -0.12622
 Alpha  occ. eigenvalues --   -0.11930  -0.11386   0.04805
 Alpha virt. eigenvalues --    0.06218   0.08162   0.08459   0.08885   0.09605
 Alpha virt. eigenvalues --    0.09807   0.11066   0.11166   0.11749   0.12002
 Alpha virt. eigenvalues --    0.13005   0.13135   0.13219   0.14761   0.15027

  Beta  occ. eigenvalues --  -19.09086 -19.02667 -18.94382 -10.12676 -10.12538
  Beta  occ. eigenvalues --  -10.12471 -10.12255 -10.07646 -10.06739 -10.05328
  Beta  occ. eigenvalues --  -10.04333 -10.03520 -10.02483 -10.02272 -10.02184
  Beta  occ. eigenvalues --  -10.01874  -1.01465  -0.96091  -0.86485  -0.71590
  Beta  occ. eigenvalues --   -0.70266  -0.67750  -0.64145  -0.61247  -0.58789
  Beta  occ. eigenvalues --   -0.55508  -0.50828  -0.48611  -0.45794  -0.45416
  Beta  occ. eigenvalues --   -0.44237  -0.41439  -0.39048  -0.36591  -0.35887
  Beta  occ. eigenvalues --   -0.34024  -0.33703  -0.31800  -0.31433  -0.30390
  Beta  occ. eigenvalues --   -0.30385  -0.29976  -0.28658  -0.28301  -0.27644
  Beta  occ. eigenvalues --   -0.26558  -0.26082  -0.22974  -0.21194  -0.20985
  Beta  occ. eigenvalues --   -0.20180  -0.18507  -0.16736  -0.13155  -0.12481
  Beta  occ. eigenvalues --   -0.10821  -0.10037
  Beta virt. eigenvalues --    0.06908   0.08111   0.08754   0.08814   0.09536
  Beta virt. eigenvalues --    0.09774   0.10156   0.11024   0.11307   0.11723
  Beta virt. eigenvalues --    0.11907   0.12960   0.13102   0.13366   0.14679

 Mulliken charges and spin densities:
               1          2
     1  C   -0.527101   0.001916
     2  C    0.302847  -0.041176
     3  C   -0.817658   0.142977
     4  C    0.640518   0.061710
     5  C   -0.587407   0.171094
     6  C   -0.253998  -0.036144
     7  C   -0.205871   0.283190
     8  C   -0.020234   0.133513
     9  O   -0.322320   0.107579
    10  O    0.010358   0.009820
    11  C   -0.296640  -0.352269
    12  C    0.118395  -0.402166
    13  C   -0.049994   0.712393
    14  C    0.267058  -0.883698
    15  C    0.059331   0.059381
    16  O   -0.040190   0.025713
    17  H    0.139400  -0.000265
    18  H    0.121552   0.006043
    19  H    0.112532   0.013480
    20  H    0.141539  -0.008791
    21  H    0.130231  -0.007926
    22  H    0.104761   0.004511
    23  H    0.101911  -0.022854
    24  H    0.228754  -0.010252
    25  H    0.137569   0.023311
    26  H    0.151389   0.032312
    27  H   -0.078626   0.226376
    28  H   -0.568107   0.750221
 Sum of Mulliken charges =  -1.00000   1.00000

 Dipole moment (field-independent basis, Debye):
    X=              0.0371    Y=              2.1214    Z=             -0.1339  Tot=              2.1260
 Quadrupole moment (field-independent basis, Debye-Ang):
   XX=           -159.6741   YY=           -111.2643   ZZ=           -106.8919
   XY=              9.5366   XZ=             -6.2783   YZ=             -1.2692

 Summary of Natural Population Analysis:

                                       Natural Population
                Natural  -----------------------------------------------
    Atom  No    Charge         Core      Valence    Rydberg      Total
 -----------------------------------------------------------------------
      C    1   -0.28757      0.99964     2.28336    0.00457     3.28757
      C    2   -0.03953      0.99952     2.03183    0.00818     3.03953
      C    3   -0.05537      0.99949     2.04771    0.00817     3.05537
      C    4   -0.04950      0.99946     2.04041    0.00963     3.04950
      C    5   -0.06195      0.99954     2.05432    0.00809     3.06195
      C    6   -0.12262      0.99958     2.11382    0.00922     3.12262
      C    7   -0.04039      0.99952     2.03191    0.00896     3.04039
      C    8    0.43188      0.99963     1.54470    0.02379     2.56812
      O    9   -0.29452      0.99987     3.28935    0.00529     4.29452
      O   10   -0.28450      0.99987     3.27606    0.00857     4.28450
      C   11   -0.03511      0.99952     2.02323    0.01236     3.03511
      C   12    0.15034      0.99947     1.83648    0.01371     2.84966
      C   13   -0.15221      0.99950     2.14439    0.00832     3.15221
      C   14   -0.15061      0.99958     2.14199    0.00904     3.15061
      C   15    0.05005      0.99952     1.93548    0.01496     2.94995
      O   16   -0.23739      0.99986     3.22915    0.00838     4.23739
      H   17    0.09777      0.00000     0.40131    0.00092     0.40223
      H   18    0.09559      0.00000     0.40335    0.00105     0.40441
      H   19    0.09541      0.00000     0.40353    0.00106     0.40459
      H   20    0.10224      0.00000     0.39668    0.00108     0.39776
      H   21    0.09949      0.00000     0.39955    0.00096     0.40051
      H   22    0.08892      0.00000     0.40937    0.00171     0.41108
      H   23    0.08405      0.00000     0.41454    0.00141     0.41595
      H   24    0.10611      0.00000     0.39210    0.00179     0.39389
      H   25    0.09233      0.00000     0.40627    0.00140     0.40767
      H   26    0.11575      0.00000     0.38323    0.00102     0.38425
      H   27    0.10677      0.00000     0.39248    0.00076     0.39323
      H   28    0.09457      0.00000     0.40393    0.00150     0.40543
 =======================================================================
   * Total *   -0.00000     15.99357    40.83051    0.17592    57.00000

 Normal termination of Gaussian 16 at Fri Dec 11 00:29:13 2020.
