 Gaussian 16, Revision A.03,

 -----------------------------------------------------------
 # opt freq B3LYP/6-31G(d) empiricaldispersion=gd3bj scf=xqc
 -----------------------------------------------------------

 -------------------------------
 CID_151354623_JID_3170_neutraal
 -------------------------------
 Symbolic Z-matrix:
 Charge =  0 Multiplicity = 1

 SCF Done:  E(RB3LYP) =  -962.719337539     A.U. after   16 cycles
 SCF Done:  E(RB3LYP) =  -962.723979457     A.U. after   15 cycles
 SCF Done:  E(RB3LYP) =  -962.725247180     A.U. after   15 cycles
 SCF Done:  E(RB3LYP) =  -962.725795147     A.U. after   13 cycles
 SCF Done:  E(RB3LYP) =  -962.726126437     A.U. after   13 cycles
 SCF Done:  E(RB3LYP) =  -962.726349999     A.U. after   13 cycles
 SCF Done:  E(RB3LYP) =  -962.726776776     A.U. after   16 cycles
 SCF Done:  E(RB3LYP) =  -962.727199167     A.U. after   13 cycles
 SCF Done:  E(RB3LYP) =  -962.727966475     A.U. after   15 cycles
 SCF Done:  E(RB3LYP) =  -962.728171804     A.U. after   13 cycles
 SCF Done:  E(RB3LYP) =  -962.728700755     A.U. after   11 cycles
 SCF Done:  E(RB3LYP) =  -962.728707023     A.U. after   10 cycles
 SCF Done:  E(RB3LYP) =  -962.728710062     A.U. after   10 cycles
 SCF Done:  E(RB3LYP) =  -962.728710374     A.U. after   10 cycles
 SCF Done:  E(RB3LYP) =  -962.728710462     A.U. after    8 cycles
 Optimization completed.
    -- Stationary point found.
 Normal termination of Gaussian 16 at Wed Dec  9 22:29:20 2020.

 --------------------------------------------------------------------
 #N Geom=AllCheck Guess=TCheck SCRF=Check GenChk RB3LYP/6-31G(d) Freq
 --------------------------------------------------------------------

 Structure from the checkpoint file:  "JID_3170.chk"
 -------------------------------
 CID_151354623_JID_3170_neutraal
 -------------------------------
 Charge =  0 Multiplicity = 1

 SCF Done:  E(RB3LYP) =  -962.728710462     A.U. after    1 cycles

  Exact polarizability: 157.549  -8.144 118.687  -7.446  -2.479  68.667
 Approx polarizability: 227.546 -21.329 250.854 -16.304 -12.282 112.129

                      1                      2                      3
                      A                      A                      A
 Frequencies --     16.6004                48.0698                88.8578
 Red. masses --      9.7369                 8.7340                 4.6726
 Frc consts  --      0.0016                 0.0119                 0.0217
 IR Inten    --      0.2163                 0.0509                 1.4093

                      4                      5                      6
                      A                      A                      A
 Frequencies --    131.6940               169.8560               181.0796
 Red. masses --      3.5854                 7.4942                 9.0628
 Frc consts  --      0.0366                 0.1274                 0.1751
 IR Inten    --      8.6765                 0.1552                 3.0146

                      7                      8                      9
                      A                      A                      A
 Frequencies --    264.7741               284.9775               387.9529
 Red. masses --      5.3201                 3.8835                 6.7263
 Frc consts  --      0.2197                 0.1858                 0.5965
 IR Inten    --      0.9606                 4.0574                 1.1534

                     10                     11                     12
                      A                      A                      A
 Frequencies --    391.0606               437.8301               500.6590
 Red. masses --      4.4536                 3.3337                 7.8615
 Frc consts  --      0.4013                 0.3765                 1.1610
 IR Inten    --      0.7271                 5.4730                 7.0431

                     13                     14                     15
                      A                      A                      A
 Frequencies --    507.3934               576.2343               588.4586
 Red. masses --      8.0786                13.3632                 7.0775
 Frc consts  --      1.2254                 2.6143                 1.4440
 IR Inten    --      9.7373                17.4321                 1.2310

                     16                     17                     18
                      A                      A                      A
 Frequencies --    625.7514               684.0653               706.8354
 Red. masses --      9.1195                 7.1774                 5.9117
 Frc consts  --      2.1039                 1.9788                 1.7402
 IR Inten    --      6.5820                11.1480                17.2562

                     19                     20                     21
                      A                      A                      A
 Frequencies --    746.0477               774.8704               808.5659
 Red. masses --      5.7733                 5.6498                 4.4381
 Frc consts  --      1.8933                 1.9987                 1.7096
 IR Inten    --     21.6809                21.2650                 5.4797

                     22                     23                     24
                      A                      A                      A
 Frequencies --    876.8823               899.9269               922.4550
 Red. masses --      2.0988                 2.8710                 4.7114
 Frc consts  --      0.9508                 1.3699                 2.3621
 IR Inten    --     26.1898                 4.1222                21.1139

                     25                     26                     27
                      A                      A                      A
 Frequencies --    922.9451               975.6642              1002.0096
 Red. masses --      1.4856                 1.3934                 1.8949
 Frc consts  --      0.7456                 0.7815                 1.1210
 IR Inten    --      1.8226                 6.4227                 5.6828

                     28                     29                     30
                      A                      A                      A
 Frequencies --   1042.6367              1074.3027              1213.7126
 Red. masses --      7.0888                 3.0736                 1.4179
 Frc consts  --      4.5403                 2.0900                 1.2306
 IR Inten    --     58.6883                 1.2592                 8.6014

                     31                     32                     33
                      A                      A                      A
 Frequencies --   1231.6652              1242.0121              1276.9147
 Red. masses --      1.3509                 1.4434                 3.2376
 Frc consts  --      1.2074                 1.3119                 3.1103
 IR Inten    --      0.6962                17.4640               100.0119

                     34                     35                     36
                      A                      A                      A
 Frequencies --   1304.0825              1320.6428              1335.2927
 Red. masses --      1.8828                 3.0617                 3.1024
 Frc consts  --      1.8866                 3.1462                 3.2591
 IR Inten    --     52.7927                92.4642                15.5426

                     37                     38                     39
                      A                      A                      A
 Frequencies --   1376.4494              1388.7819              1426.1359
 Red. masses --      1.5841                 1.7061                 3.5241
 Frc consts  --      1.7682                 1.9388                 4.2230
 IR Inten    --     23.8401                42.2669                11.6671

                     40                     41                     42
                      A                      A                      A
 Frequencies --   1512.5134              1516.4016              1539.4547
 Red. masses --      1.0947                 2.1346                 1.2928
 Frc consts  --      1.4756                 2.8920                 1.8051
 IR Inten    --      2.4684               114.0904                26.5673

                     43                     44                     45
                      A                      A                      A
 Frequencies --   1615.8712              1628.0099              2262.4484
 Red. masses --     10.1116                 6.1844                13.6762
 Frc consts  --     15.5555                 9.6575                41.2453
 IR Inten    --      5.1238                35.8612               432.6849

                     46                     47                     48
                      A                      A                      A
 Frequencies --   3066.0052              3071.7078              3151.3737
 Red. masses --      1.0649                 1.0657                 1.1008
 Frc consts  --      5.8979                 5.9246                 6.4413
 IR Inten    --     57.3999                29.7981                10.2748

                     49                     50                     51
                      A                      A                      A
 Frequencies --   3167.2527              3200.8523              3217.0313
 Red. masses --      1.1039                 1.0915                 1.0921
 Frc consts  --      6.5243                 6.5885                 6.6593
 IR Inten    --      9.6360                12.1454                 2.6614

 - Thermochemistry -
 -------------------
 Temperature   298.150 Kelvin.  Pressure   1.00000 Atm.
 Atom     1 has atomic number  6 and mass  12.00000

 Molecular mass:   194.02623 amu.
 Principal axes and moments of inertia in atomic units:
                           1         2         3
     Eigenvalues --  1018.126594645.767645167.96610
           X            0.99991   0.01179  -0.00698
           Y           -0.01189   0.99982  -0.01484
           Z            0.00681   0.01492   0.99987
 This molecule is an asymmetric top.
 Rotational symmetry number  1.
 Warning -- assumption of classical behavior for rotation
           may cause significant error
 Rotational temperatures (Kelvin)      0.08507     0.01864     0.01676
 Rotational constants (GHZ):           1.77261     0.38847     0.34922
 Zero-point vibrational energy     351122.3 (Joules/Mol)
                                   83.92025 (Kcal/Mol)
 Warning -- explicit consideration of  15 degrees of freedom as
           vibrations may cause significant error
 Vibrational temperatures:     23.88    69.16   127.85   189.48   244.38
          (Kelvin)            260.53   380.95   410.02   558.18   562.65
                              629.94   720.34   730.03   829.07   846.66
                              900.32   984.22  1016.98  1073.40  1114.87
                             1163.35  1261.64  1294.79  1327.21  1327.91
                             1403.76  1441.67  1500.12  1545.68  1746.26
                             1772.09  1786.98  1837.20  1876.28  1900.11
                             1921.19  1980.40  1998.15  2051.89  2176.17
                             2181.76  2214.93  2324.88  2342.34  3255.16
                             4411.30  4419.50  4534.12  4556.97  4605.31
                             4628.59

 Zero-point correction=                           0.133735 (Hartree/Particle)
 Thermal correction to Energy=                    0.144658
 Thermal correction to Enthalpy=                  0.145603
 Thermal correction to Gibbs Free Energy=         0.094441
 Sum of electronic and zero-point Energies=           -962.594975
 Sum of electronic and thermal Energies=              -962.584052
 Sum of electronic and thermal Enthalpies=            -962.583108
 Sum of electronic and thermal Free Energies=         -962.634269

                     E (Thermal)             CV                S
                      KCal/Mol        Cal/Mol-Kelvin    Cal/Mol-Kelvin
 Total                   90.775             39.865            107.678
 Electronic               0.000              0.000              0.000
 Translational            0.889              2.981             41.694
 Rotational               0.889              2.981             31.570
 Vibrational             88.997             33.903             34.415
 Vibration     1          0.593              1.986              7.004
 Vibration     2          0.595              1.978              4.895
 Vibration     3          0.602              1.957              3.685
 Vibration     4          0.612              1.922              2.921
 Vibration     5          0.625              1.880              2.437
 Vibration     6          0.630              1.865              2.317
 Vibration     7          0.671              1.738              1.630
 Vibration     8          0.683              1.702              1.504
 Vibration     9          0.756              1.496              1.008
 Vibration    10          0.759              1.489              0.996
 Vibration    11          0.798              1.388              0.833
 Vibration    12          0.856              1.249              0.656
 Vibration    13          0.863              1.234              0.640
 Vibration    14          0.933              1.083              0.492
 Vibration    15          0.946              1.056              0.470

 Optimization completed.
    -- Stationary point found.
 Normal termination of Gaussian 16 at Wed Dec  9 22:33:37 2020.

 ----------------------------------------------------------------------
 # B3LYP/6-311++G(d,p) empiricaldispersion=gd3bj scf=xqc pop=npa geom=c
 heck
 ----------------------------------------------------------------------

 ---------------------------------------
 CID_151354623_JID_3170_Energie_neutraal
 ---------------------------------------
 Structure from the checkpoint file:  "JID_3170.chk"
 Charge =  0 Multiplicity = 1

 SCF Done:  E(RB3LYP) =  -962.905157228     A.U. after   16 cycles
 Normal termination of Gaussian 16 at Wed Dec  9 22:35:32 2020.

 ----------------------------------------------------------------------
 # B3LYP/6-311++G(d,p) empiricaldispersion=gd3bj scf=xqc pop=npa geom=c
 heck
 ----------------------------------------------------------------------

 -------------------------------------
 CID_151354623_JID_3170_Energie_kation
 -------------------------------------
 Structure from the checkpoint file:  "JID_3170.chk"
 Charge =  1 Multiplicity = 2

 SCF Done:  E(UB3LYP) =  -962.600276217     A.U. after   27 cycles
 Normal termination of Gaussian 16 at Wed Dec  9 22:40:05 2020.
 Gaussian 16:  ES64L-G16RevA.03 25-Dec-2016

 ----------------------------------------------------------------------
 # B3LYP/6-311++G(d,p) empiricaldispersion=gd3bj scf=xqc pop=npa geom=c
 heck
 ----------------------------------------------------------------------

 ------------------------------------
 CID_151354623_JID_3170_Energie_anion
 ------------------------------------
 Structure from the checkpoint file:  "JID_3170.chk"
 Charge = -1 Multiplicity = 2

                         Standard orientation:
 ---------------------------------------------------------------------
 Center     Atomic      Atomic             Coordinates (Angstroms)
 Number     Number       Type             X           Y           Z
 ---------------------------------------------------------------------
      1          6           0        3.520130    0.505401   -0.130012
      2          8           0        2.464960    1.460968   -0.110214
      3          6           0        1.269817    0.865760    0.181329
      4          6           0        1.221000   -0.525569    0.034330
      5         16           0        2.779846   -1.163448   -0.505256
      6          6           0        0.022494   -1.183344    0.269011
      7          6           0       -1.078504   -0.404980    0.658871
      8          7           0       -1.027340    0.925227    0.802041
      9          6           0        0.130329    1.558065    0.563988
     10          6           0       -2.434249   -1.031123    0.884704
     11          7           0       -3.293547   -0.961881   -0.327552
     12          7           0       -3.600067    0.181428   -0.688897
     13          7           0       -3.957127    1.171126   -1.130515
     14          1           0        4.229147    0.787496   -0.908376
     15          1           0        4.010654    0.473220    0.849091
     16          1           0       -0.069459   -2.258150    0.155089
     17          1           0        0.150108    2.638274    0.681009
     18          1           0       -2.348731   -2.096449    1.103614
     19          1           0       -2.928461   -0.533524    1.726521
 ---------------------------------------------------------------------

 SCF Done:  E(UB3LYP) =  -962.902877036     A.U. after   33 cycles
 SCF Done:  E(UB3LYP) =  -962.902877036     a.u. after    1 cycles

 The electronic state is 2-A.
 Alpha  occ. eigenvalues --  -88.74269 -19.05224 -14.34266 -14.24367 -14.22971
 Alpha  occ. eigenvalues --  -14.16663 -10.14651 -10.11323 -10.09595 -10.08209
 Alpha  occ. eigenvalues --  -10.08101 -10.07395 -10.05963  -7.82847  -5.79207
 Alpha  occ. eigenvalues --   -5.78905  -5.78249  -1.00693  -0.97344  -0.85048
 Alpha  occ. eigenvalues --   -0.81346  -0.70768  -0.67055  -0.65445  -0.60058
 Alpha  occ. eigenvalues --   -0.54681  -0.49677  -0.48793  -0.41517  -0.40639
 Alpha  occ. eigenvalues --   -0.39549  -0.38939  -0.37965  -0.37274  -0.34835
 Alpha  occ. eigenvalues --   -0.32822  -0.32416  -0.31388  -0.28770  -0.28010
 Alpha  occ. eigenvalues --   -0.26691  -0.24737  -0.24068  -0.22043  -0.19717
 Alpha  occ. eigenvalues --   -0.18353  -0.14045  -0.13152  -0.12288  -0.09895
 Alpha  occ. eigenvalues --    0.04875
 Alpha virt. eigenvalues --    0.06834   0.07980   0.08591   0.09569   0.10051
 Alpha virt. eigenvalues --    0.10421   0.11388   0.11806   0.12401   0.12606
 Alpha virt. eigenvalues --    0.13621   0.14195   0.14443   0.15575   0.16154

  Beta  occ. eigenvalues --  -88.74255 -19.05223 -14.34124 -14.24124 -14.22989
  Beta  occ. eigenvalues --  -14.16311 -10.14547 -10.11330 -10.09541 -10.08198
  Beta  occ. eigenvalues --  -10.07817 -10.07309 -10.05953  -7.82834  -5.79166
  Beta  occ. eigenvalues --   -5.78906  -5.78226  -1.00388  -0.97329  -0.84878
  Beta  occ. eigenvalues --   -0.80895  -0.70364  -0.66858  -0.65200  -0.59903
  Beta  occ. eigenvalues --   -0.54444  -0.49507  -0.48467  -0.41318  -0.40441
  Beta  occ. eigenvalues --   -0.39415  -0.38578  -0.37632  -0.37106  -0.34557
  Beta  occ. eigenvalues --   -0.32709  -0.32007  -0.31179  -0.28201  -0.27709
  Beta  occ. eigenvalues --   -0.26528  -0.24587  -0.23701  -0.21629  -0.18824
  Beta  occ. eigenvalues --   -0.17804  -0.13789  -0.12686  -0.11993  -0.09312
  Beta virt. eigenvalues --    0.07804   0.08091   0.09444   0.09634   0.09795
  Beta virt. eigenvalues --    0.10346   0.10953   0.11574   0.11923   0.12720
  Beta virt. eigenvalues --    0.12745   0.13781   0.14363   0.14604   0.15453

 Mulliken charges and spin densities:
               1          2
     1  C    0.690553  -0.839707
     2  O   -0.103385   0.028687
     3  C   -0.917421   0.217151
     4  C    0.970620   0.248883
     5  S   -0.784838   0.084909
     6  C    0.702160  -0.308470
     7  C   -0.722593   0.663293
     8  N    0.010798   0.156146
     9  C   -0.503679   0.013118
    10  C   -0.028420  -0.705426
    11  N   -0.356071   0.020137
    12  N    0.416345   0.032534
    13  N   -0.193952   0.149756
    14  H   -0.555854   0.733860
    15  H    0.024674   0.175629
    16  H    0.034945   0.132445
    17  H    0.166049  -0.003767
    18  H   -0.042828   0.219294
    19  H    0.192896  -0.018473
 Sum of Mulliken charges =  -1.00000   1.00000

 Dipole moment (field-independent basis, Debye):
    X=             -0.3270    Y=             -1.5017    Z=              2.4436  Tot=              2.8867
 Quadrupole moment (field-independent basis, Debye-Ang):
   XX=           -147.1799   YY=           -103.1054   ZZ=            -97.8386
   XY=              0.7925   XZ=              2.5389   YZ=              1.9207

 Summary of Natural Population Analysis:

                                       Natural Population
                Natural  -----------------------------------------------
    Atom  No    Charge         Core      Valence    Rydberg      Total
 -----------------------------------------------------------------------
      C    1   -0.05451      0.99961     2.03925    0.01566     3.05451
      O    2   -0.27297      0.99986     3.26352    0.00959     4.27297
      C    3    0.12403      0.99930     1.86258    0.01409     2.87597
      C    4   -0.05073      0.99937     2.04097    0.01039     3.05073
      S    5    0.11215      4.99957     2.86920    0.01907     7.88785
      C    6   -0.12690      0.99945     2.11742    0.01003     3.12690
      C    7    0.08716      0.99954     1.89819    0.01510     2.91284
      N    8   -0.19806      0.99968     2.68783    0.01056     3.69806
      C    9    0.01867      0.99954     1.96788    0.01391     2.98133
      C   10   -0.09934      0.99955     2.08510    0.01470     3.09934
      N   11   -0.19996      0.99972     2.68659    0.01365     3.69996
      N   12    0.12515      0.99971     2.35824    0.01690     3.37485
      N   13   -0.02404      0.99982     2.51159    0.01263     3.52404
      H   14    0.09644      0.00000     0.40009    0.00347     0.40356
      H   15    0.07978      0.00000     0.41870    0.00152     0.42022
      H   16    0.10273      0.00000     0.39606    0.00121     0.39727
      H   17    0.08914      0.00000     0.40978    0.00108     0.41086
      H   18    0.09630      0.00000     0.40216    0.00154     0.40370
      H   19    0.09496      0.00000     0.40363    0.00141     0.40504
 =======================================================================
   * Total *    0.00000     16.99470    32.81878    0.18652    50.00000

 Normal termination of Gaussian 16 at Wed Dec  9 22:46:03 2020.
