 Gaussian 16, Revision A.03,

 -----------------------------------------------------------
 # opt freq B3LYP/6-31G(d) empiricaldispersion=gd3bj scf=xqc
 -----------------------------------------------------------

 -----------------------------
 CID_5222406_JID_4921_neutraal
 -----------------------------
 Symbolic Z-matrix:
 Charge =  0 Multiplicity = 1

 SCF Done:  E(RB3LYP) =  -1027.99605949     A.U. after   14 cycles
 SCF Done:  E(RB3LYP) =  -1028.00178613     A.U. after   12 cycles
 SCF Done:  E(RB3LYP) =  -1027.99975891     A.U. after   13 cycles
 SCF Done:  E(RB3LYP) =  -1028.00210132     A.U. after   12 cycles
 SCF Done:  E(RB3LYP) =  -1028.00294026     A.U. after   12 cycles
 SCF Done:  E(RB3LYP) =  -1028.00330636     A.U. after   11 cycles
 SCF Done:  E(RB3LYP) =  -1028.00378783     A.U. after   12 cycles
 SCF Done:  E(RB3LYP) =  -1028.00383849     A.U. after   14 cycles
 SCF Done:  E(RB3LYP) =  -1028.00443451     A.U. after   12 cycles
 SCF Done:  E(RB3LYP) =  -1028.00460356     A.U. after   11 cycles
 SCF Done:  E(RB3LYP) =  -1028.00468278     A.U. after   10 cycles
 SCF Done:  E(RB3LYP) =  -1028.00468900     A.U. after    9 cycles
 SCF Done:  E(RB3LYP) =  -1028.00469054     A.U. after    8 cycles
 SCF Done:  E(RB3LYP) =  -1028.00469086     A.U. after    7 cycles
 SCF Done:  E(RB3LYP) =  -1028.00469097     A.U. after    7 cycles
 Optimization completed.
    -- Stationary point found.
 Normal termination of Gaussian 16 at Thu Dec 10 10:53:36 2020.

 --------------------------------------------------------------------
 #N Geom=AllCheck Guess=TCheck SCRF=Check GenChk RB3LYP/6-31G(d) Freq
 --------------------------------------------------------------------

 Structure from the checkpoint file:  "JID_4921.chk"
 -----------------------------
 CID_5222406_JID_4921_neutraal
 -----------------------------
 Charge =  0 Multiplicity = 1

 SCF Done:  E(RB3LYP) =  -1028.00469097     A.U. after    1 cycles

  Exact polarizability: 183.331 -20.858 135.400  -4.358   8.850  97.840
 Approx polarizability: 240.824 -41.761 213.370 -12.250  22.525 141.490

                      1                      2                      3
                      A                      A                      A
 Frequencies --     34.5964                44.7845                56.2196
 Red. masses --      4.5250                 2.6445                 2.4162
 Frc consts  --      0.0032                 0.0031                 0.0045
 IR Inten    --      0.0803                 0.3910                 0.4379

                      4                      5                      6
                      A                      A                      A
 Frequencies --     60.8406                74.8894                91.6326
 Red. masses --      5.2319                 4.2460                 3.4732
 Frc consts  --      0.0114                 0.0140                 0.0172
 IR Inten    --      1.3807                 2.7956                 0.3067

                      7                      8                      9
                      A                      A                      A
 Frequencies --    113.3516               148.1819               190.4966
 Red. masses --      3.3652                 4.6945                 1.1138
 Frc consts  --      0.0255                 0.0607                 0.0238
 IR Inten    --      1.4003                 0.0633                 0.2439

                     10                     11                     12
                      A                      A                      A
 Frequencies --    196.6623               217.3577               249.1188
 Red. masses --      2.3199                 2.5849                 3.6444
 Frc consts  --      0.0529                 0.0720                 0.1333
 IR Inten    --      0.1833                 1.8148                19.1653

                     13                     14                     15
                      A                      A                      A
 Frequencies --    266.2563               269.0657               270.2728
 Red. masses --      1.3570                 1.2447                 1.4398
 Frc consts  --      0.0567                 0.0531                 0.0620
 IR Inten    --     43.1986               145.5126                 6.6799

                     16                     17                     18
                      A                      A                      A
 Frequencies --    307.3322               316.2938               353.5497
 Red. masses --      3.2583                 2.5871                 3.6077
 Frc consts  --      0.1813                 0.1525                 0.2657
 IR Inten    --      7.8940                 8.9288                22.3337

                     19                     20                     21
                      A                      A                      A
 Frequencies --    388.1474               426.4269               445.7799
 Red. masses --      3.1258                 3.2504                 3.4938
 Frc consts  --      0.2775                 0.3482                 0.4091
 IR Inten    --     20.9175                 1.4470                 9.7551

                     22                     23                     24
                      A                      A                      A
 Frequencies --    477.9716               528.3662               571.9256
 Red. masses --      4.1288                 5.2850                 3.8984
 Frc consts  --      0.5558                 0.8693                 0.7513
 IR Inten    --      6.2319                10.8877                 7.8038

                     25                     26                     27
                      A                      A                      A
 Frequencies --    599.0206               613.2118               637.2679
 Red. masses --      1.3011                 4.6420                 4.1960
 Frc consts  --      0.2751                 1.0284                 1.0040
 IR Inten    --      2.2329                31.1316                20.5749

                     28                     29                     30
                      A                      A                      A
 Frequencies --    678.7197               722.0315               808.0716
 Red. masses --      3.9487                 1.1624                 1.1621
 Frc consts  --      1.0717                 0.3570                 0.4471
 IR Inten    --      3.0001                65.7507                 5.6259

                     31                     32                     33
                      A                      A                      A
 Frequencies --    818.2304               835.6269               846.0197
 Red. masses --      1.2345                 2.5304                 3.0970
 Frc consts  --      0.4869                 1.0410                 1.3060
 IR Inten    --      3.6046                 3.6351                35.1736

                     34                     35                     36
                      A                      A                      A
 Frequencies --    895.7760               920.6847               999.3342
 Red. masses --      2.4465                 2.5727                 3.0085
 Frc consts  --      1.1566                 1.2849                 1.7702
 IR Inten    --     15.8750                27.9105                30.3450

                     37                     38                     39
                      A                      A                      A
 Frequencies --   1031.8991              1055.2839              1063.5399
 Red. masses --      1.9190                 2.4881                 2.4059
 Frc consts  --      1.2039                 1.6325                 1.6033
 IR Inten    --     10.4546                60.6755                45.3593

                     40                     41                     42
                      A                      A                      A
 Frequencies --   1079.7313              1084.1811              1118.8781
 Red. masses --      3.0352                 2.3282                 2.1626
 Frc consts  --      2.0848                 1.6124                 1.5951
 IR Inten    --    104.5957                25.5202                34.6031

                     43                     44                     45
                      A                      A                      A
 Frequencies --   1129.4407              1152.2767              1156.9311
 Red. masses --      1.9630                 4.1258                 2.9629
 Frc consts  --      1.4753                 3.2275                 2.3366
 IR Inten    --     31.6527               359.9712                97.0621

                     46                     47                     48
                      A                      A                      A
 Frequencies --   1209.1196              1221.4724              1290.9710
 Red. masses --      1.7417                 2.0065                 3.1077
 Frc consts  --      1.5003                 1.7638                 3.0515
 IR Inten    --     17.8761                73.1633                29.5146

                     49                     50                     51
                      A                      A                      A
 Frequencies --   1330.2863              1335.7242              1339.4615
 Red. masses --      2.0502                 1.1169                 1.1435
 Frc consts  --      2.1376                 1.1741                 1.2088
 IR Inten    --    281.4298                 8.9545                40.1933

                     52                     53                     54
                      A                      A                      A
 Frequencies --   1386.3618              1404.6193              1415.1191
 Red. masses --      1.4836                 1.1516                 1.2295
 Frc consts  --      1.6800                 1.3386                 1.4507
 IR Inten    --     28.1748                 7.0921                11.7771

                     55                     56                     57
                      A                      A                      A
 Frequencies --   1427.7569              1434.1424              1446.1631
 Red. masses --      1.2503                 1.3215                 1.2919
 Frc consts  --      1.5016                 1.6014                 1.5919
 IR Inten    --      2.9669                67.8839                14.9110

                     58                     59                     60
                      A                      A                      A
 Frequencies --   1448.6522              1470.6719              1499.7977
 Red. masses --      1.3137                 2.4930                 1.0484
 Frc consts  --      1.6243                 3.1770                 1.3895
 IR Inten    --      4.4799                55.3318                 8.1396

                     61                     62                     63
                      A                      A                      A
 Frequencies --   1503.6191              1514.9688              1521.3661
 Red. masses --      1.0760                 1.0448                 1.0471
 Frc consts  --      1.4333                 1.4128                 1.4279
 IR Inten    --     27.4985                 3.1951                17.0368

                     64                     65                     66
                      A                      A                      A
 Frequencies --   1522.3613              1528.0046              1542.2767
 Red. masses --      1.0714                 1.0510                 1.3033
 Frc consts  --      1.4629                 1.4458                 1.8264
 IR Inten    --      1.1961                 3.0414               152.1329

                     67                     68                     69
                      A                      A                      A
 Frequencies --   1544.5401              1552.4868              1637.3176
 Red. masses --      1.0698                 1.3119                 1.4838
 Frc consts  --      1.5036                 1.8630                 2.3437
 IR Inten    --     13.5230               211.1855               250.6790

                     70                     71                     72
                      A                      A                      A
 Frequencies --   1704.7826              2994.9505              3022.8413
 Red. masses --      8.4343                 1.0826                 1.0686
 Frc consts  --     14.4423                 5.7213                 5.7532
 IR Inten    --     10.3952                25.4548                48.4074

                     73                     74                     75
                      A                      A                      A
 Frequencies --   3057.6926              3059.5819              3060.5701
 Red. masses --      1.0363                 1.0380                 1.0380
 Frc consts  --      5.7087                 5.7247                 5.7289
 IR Inten    --     17.8176                12.2544                16.2115

                     76                     77                     78
                      A                      A                      A
 Frequencies --   3068.0239              3104.9865              3108.0598
 Red. masses --      1.0581                 1.0965                 1.1072
 Frc consts  --      5.8683                 6.2282                 6.3016
 IR Inten    --     34.0948                30.5652                15.3116

                     79                     80                     81
                      A                      A                      A
 Frequencies --   3110.4282              3124.6590              3128.1558
 Red. masses --      1.1004                 1.1017                 1.1001
 Frc consts  --      6.2725                 6.3373                 6.3422
 IR Inten    --      8.8176                30.8569                25.2110

                     82                     83                     84
                      A                      A                      A
 Frequencies --   3151.6897              3156.9468              3159.5451
 Red. masses --      1.1035                 1.1029                 1.1018
 Frc consts  --      6.4580                 6.4762                 6.4802
 IR Inten    --     22.1362                14.6625                22.6100

                     85                     86                     87
                      A                      A                      A
 Frequencies --   3504.1870              3577.0690              3731.7296
 Red. masses --      1.0784                 1.0471                 1.1024
 Frc consts  --      7.8021                 7.8941                 9.0451
 IR Inten    --    106.5041                48.6484                89.0305

 - Thermochemistry -
 -------------------
 Temperature   298.150 Kelvin.  Pressure   1.00000 Atm.
 Atom     1 has atomic number  6 and mass  12.00000

 Molecular mass:   219.10415 amu.
 Principal axes and moments of inertia in atomic units:
                           1         2         3
     Eigenvalues --  1864.688595480.096596122.45309
           X            0.99971   0.02051   0.01224
           Y           -0.02031   0.99967  -0.01569
           Z           -0.01256   0.01544   0.99980
 This molecule is an asymmetric top.
 Rotational symmetry number  1.
 Warning -- assumption of classical behavior for rotation
           may cause significant error
 Rotational temperatures (Kelvin)      0.04645     0.01581     0.01415
 Rotational constants (GHZ):           0.96785     0.32933     0.29477
 Zero-point vibrational energy     692032.7 (Joules/Mol)
                                  165.39979 (Kcal/Mol)
 Warning -- explicit consideration of  26 degrees of freedom as
           vibrations may cause significant error
 Vibrational temperatures:     49.78    64.43    80.89    87.54   107.75
          (Kelvin)            131.84   163.09   213.20   274.08   282.95
                              312.73   358.43   383.08   387.13   388.86
                              442.18   455.08   508.68   558.46   613.53
                              641.38   687.69   760.20   822.87   861.86
                              882.28   916.89   976.53  1038.84  1162.63
                             1177.25  1202.28  1217.23  1288.82  1324.66
                             1437.82  1484.67  1518.32  1530.20  1553.49
                             1559.89  1609.82  1625.01  1657.87  1664.57
                             1739.65  1757.43  1857.42  1913.99  1921.81
                             1927.19  1994.67  2020.93  2036.04  2054.22
                             2063.41  2080.71  2084.29  2115.97  2157.87
                             2163.37  2179.70  2188.91  2190.34  2198.46
                             2218.99  2222.25  2233.68  2355.73  2452.80
                             4309.07  4349.19  4399.34  4402.06  4403.48
                             4414.20  4467.38  4471.80  4475.21  4495.69
                             4500.72  4534.58  4542.14  4545.88  5041.74
                             5146.60  5369.13

 Zero-point correction=                           0.263581 (Hartree/Particle)
 Thermal correction to Energy=                    0.280367
 Thermal correction to Enthalpy=                  0.281311
 Thermal correction to Gibbs Free Energy=         0.218137
 Sum of electronic and zero-point Energies=          -1027.741110
 Sum of electronic and thermal Energies=             -1027.724324
 Sum of electronic and thermal Enthalpies=           -1027.723380
 Sum of electronic and thermal Free Energies=        -1027.786554

                     E (Thermal)             CV                S
                      KCal/Mol        Cal/Mol-Kelvin    Cal/Mol-Kelvin
 Total                  175.933             60.238            132.961
 Electronic               0.000              0.000              0.000
 Translational            0.889              2.981             42.056
 Rotational               0.889              2.981             32.503
 Vibrational            174.155             54.276             58.401
 Vibration     1          0.594              1.983              5.547
 Vibration     2          0.595              1.979              5.035
 Vibration     3          0.596              1.975              4.586
 Vibration     4          0.597              1.973              4.430
 Vibration     5          0.599              1.966              4.021
 Vibration     6          0.602              1.955              3.625
 Vibration     7          0.607              1.938              3.211
 Vibration     8          0.618              1.905              2.695
 Vibration     9          0.634              1.853              2.223
 Vibration    10          0.636              1.845              2.164
 Vibration    11          0.646              1.815              1.981
 Vibration    12          0.662              1.764              1.737
 Vibration    13          0.672              1.735              1.620
 Vibration    14          0.673              1.730              1.602
 Vibration    15          0.674              1.728              1.594
 Vibration    16          0.697              1.660              1.377
 Vibration    17          0.703              1.643              1.329
 Vibration    18          0.730              1.568              1.150
 Vibration    19          0.756              1.496              1.007
 Vibration    20          0.788              1.413              0.870
 Vibration    21          0.805              1.370              0.809
 Vibration    22          0.834              1.299              0.716
 Vibration    23          0.883              1.187              0.591
 Vibration    24          0.928              1.092              0.501
 Vibration    25          0.957              1.034              0.451
 Vibration    26          0.973              1.004              0.427

                           ! Non-Optimized Parameters !
 Normal termination of Gaussian 16 at Thu Dec 10 11:02:28 2020.

 ----------------------------------------------------------------------
 # B3LYP/6-311++G(d,p) empiricaldispersion=gd3bj scf=xqc pop=npa geom=c
 heck
 ----------------------------------------------------------------------

 -------------------------------------
 CID_5222406_JID_4921_Energie_neutraal
 -------------------------------------
 Structure from the checkpoint file:  "JID_4921.chk"
 Charge =  0 Multiplicity = 1

 SCF Done:  E(RB3LYP) =  -1028.22017029     A.U. after   14 cycles
 Normal termination of Gaussian 16 at Thu Dec 10 11:06:05 2020.

 ----------------------------------------------------------------------
 # B3LYP/6-311++G(d,p) empiricaldispersion=gd3bj scf=xqc pop=npa geom=c
 heck
 ----------------------------------------------------------------------

 -----------------------------------
 CID_5222406_JID_4921_Energie_kation
 -----------------------------------
 Structure from the checkpoint file:  "JID_4921.chk"
 Charge =  1 Multiplicity = 2

 SCF Done:  E(UB3LYP) =  -1027.93452170     A.U. after   33 cycles
 SCF Done:  E(UB3LYP) =  -1027.93452170     a.u. after    1 cycles
 Normal termination of Gaussian 16 at Thu Dec 10 11:16:47 2020.
 Gaussian 16:  ES64L-G16RevA.03 25-Dec-2016

 ----------------------------------------------------------------------
 # B3LYP/6-311++G(d,p) empiricaldispersion=gd3bj scf=xqc pop=npa geom=c
 heck
 ----------------------------------------------------------------------

 ----------------------------------
 CID_5222406_JID_4921_Energie_anion
 ----------------------------------
 Structure from the checkpoint file:  "JID_4921.chk"
 Charge = -1 Multiplicity = 2

                         Standard orientation:
 ---------------------------------------------------------------------
 Center     Atomic      Atomic             Coordinates (Angstroms)
 Number     Number       Type             X           Y           Z
 ---------------------------------------------------------------------
      1          6           0       -3.962969   -1.408865   -0.673477
      2          6           0       -3.586416   -0.005400   -1.131570
      3          8           0       -2.636980    0.644773   -0.276278
      4          6           0       -1.302930    0.300160   -0.479483
      5          6           0       -0.428883    1.406172    0.108236
      6          7           0        0.856889    1.352700    0.082616
      7          7           0        1.466138    0.240453   -0.426908
      8          6           0        2.834766    0.130177   -0.369871
      9         16           0        3.580477   -1.324777   -0.744122
     10          7           0        3.483473    1.257139   -0.021939
     11          6           0       -1.069501    2.639879    0.672223
     12          8           0       -0.965805   -0.990888    0.014136
     13          6           0       -1.147923   -1.191705    1.432721
     14          6           0        0.181762   -1.296906    2.165901
     15          1           0       -4.774960   -1.797513   -1.299002
     16          1           0       -4.310350   -1.388242    0.364834
     17          1           0       -3.110711   -2.088446   -0.742879
     18          1           0       -3.191370   -0.022939   -2.158078
     19          1           0       -4.462251    0.650224   -1.119956
     20          1           0       -1.086376    0.212968   -1.556880
     21          1           0        0.943094   -0.626750   -0.533549
     22          1           0        2.951405    2.060367    0.287495
     23          1           0        4.482869    1.214156    0.094452
     24          1           0       -0.294739    3.326568    1.020197
     25          1           0       -1.688988    3.139887   -0.080707
     26          1           0       -1.736253    2.390259    1.505138
     27          1           0       -1.771975   -0.387323    1.835347
     28          1           0       -1.714964   -2.123315    1.528833
     29          1           0        0.714181   -0.342208    2.173904
     30          1           0        0.006069   -1.600067    3.204597
     31          1           0        0.827023   -2.045394    1.694870
 ---------------------------------------------------------------------

 SCF Done:  E(UB3LYP) =  -1028.21517774     A.U. after   32 cycles

 The electronic state is 2-A.
 Alpha  occ. eigenvalues --  -88.66386 -19.03102 -19.02824 -14.24981 -14.22323
 Alpha  occ. eigenvalues --  -14.21368 -10.16817 -10.15082 -10.11932 -10.11876
 Alpha  occ. eigenvalues --  -10.07911 -10.06225 -10.06078 -10.05536  -7.75155
 Alpha  occ. eigenvalues --   -5.71574  -5.70952  -5.70732  -0.97340  -0.91609
 Alpha  occ. eigenvalues --   -0.90479  -0.82000  -0.73143  -0.67288  -0.65559
 Alpha  occ. eigenvalues --   -0.62905  -0.58137  -0.58039  -0.53575  -0.50331
 Alpha  occ. eigenvalues --   -0.49533  -0.46461  -0.43525  -0.42583  -0.41572
 Alpha  occ. eigenvalues --   -0.40130  -0.37634  -0.35489  -0.34417  -0.32757
 Alpha  occ. eigenvalues --   -0.32673  -0.31534  -0.30370  -0.29852  -0.29335
 Alpha  occ. eigenvalues --   -0.28554  -0.28173  -0.27591  -0.25600  -0.24734
 Alpha  occ. eigenvalues --   -0.24440  -0.22884  -0.21168  -0.19535  -0.17871
 Alpha  occ. eigenvalues --   -0.15392  -0.13819  -0.09644  -0.09459   0.04480
 Alpha virt. eigenvalues --    0.06318   0.07534   0.07833   0.08414   0.09252
 Alpha virt. eigenvalues --    0.09743   0.10310   0.11108   0.11785   0.12032
 Alpha virt. eigenvalues --    0.12485   0.12660   0.13304   0.13660   0.13905

  Beta  occ. eigenvalues --  -88.66372 -19.03079 -19.02794 -14.25068 -14.22299
  Beta  occ. eigenvalues --  -14.21133 -10.16825 -10.14807 -10.11921 -10.11843
  Beta  occ. eigenvalues --  -10.07568 -10.06225 -10.06052 -10.05553  -7.75143
  Beta  occ. eigenvalues --   -5.71577  -5.70898  -5.70724  -0.97275  -0.91505
  Beta  occ. eigenvalues --   -0.90298  -0.81753  -0.72868  -0.67213  -0.65511
  Beta  occ. eigenvalues --   -0.62613  -0.58034  -0.57945  -0.53517  -0.50218
  Beta  occ. eigenvalues --   -0.49332  -0.46237  -0.43435  -0.42440  -0.41448
  Beta  occ. eigenvalues --   -0.40013  -0.37557  -0.35447  -0.34270  -0.32698
  Beta  occ. eigenvalues --   -0.32121  -0.31395  -0.30208  -0.29539  -0.29231
  Beta  occ. eigenvalues --   -0.28492  -0.28108  -0.27553  -0.25473  -0.24495
  Beta  occ. eigenvalues --   -0.24404  -0.22151  -0.21059  -0.19369  -0.17744
  Beta  occ. eigenvalues --   -0.15177  -0.13130  -0.09473  -0.09092
  Beta virt. eigenvalues --    0.06857   0.07725   0.08000   0.08581   0.08999
  Beta virt. eigenvalues --    0.09603   0.10121   0.10678   0.11290   0.11670
  Beta virt. eigenvalues --    0.12253   0.12637   0.13319   0.13455   0.13831

 Mulliken charges and spin densities:
               1          2
     1  C    0.043575  -0.543958
     2  C    0.469439  -0.520698
     3  O   -0.103790   0.029492
     4  C   -0.866286   0.565972
     5  C    0.253094  -0.407410
     6  N   -0.045153   0.194410
     7  N    0.215608  -0.089396
     8  C    0.057010   0.091847
     9  S   -0.684225   0.085269
    10  N   -0.397432   0.026231
    11  C   -0.006181  -0.596835
    12  O    0.000028  -0.025623
    13  C    0.397264  -0.275975
    14  C   -0.628654  -0.107013
    15  H   -0.591663   0.739364
    16  H    0.158792  -0.022137
    17  H   -0.003563   0.175057
    18  H    0.094793   0.013692
    19  H   -0.574333   0.743457
    20  H   -0.239867   0.424290
    21  H    0.208898  -0.006681
    22  H    0.292947   0.001808
    23  H    0.258888   0.001487
    24  H    0.127228  -0.006364
    25  H   -0.150479   0.328087
    26  H    0.137170   0.021927
    27  H    0.054483   0.068989
    28  H    0.061398   0.087749
    29  H    0.193473  -0.036406
    30  H    0.085364   0.036944
    31  H    0.182171   0.002423
 Sum of Mulliken charges =  -1.00000   1.00000

 Dipole moment (field-independent basis, Debye):
    X=              1.2683    Y=              1.8628    Z=              4.9433  Tot=              5.4328
 Quadrupole moment (field-independent basis, Debye-Ang):
   XX=           -174.8457   YY=           -124.1293   ZZ=           -114.8442
   XY=             14.5811   XZ=             -3.1154   YZ=             -3.0577

 Summary of Natural Population Analysis:

                                       Natural Population
                Natural  -----------------------------------------------
    Atom  No    Charge         Core      Valence    Rydberg      Total
 -----------------------------------------------------------------------
      C    1   -0.30166      0.99966     2.29643    0.00556     3.30166
      C    2   -0.00771      0.99959     1.99579    0.01232     3.00771
      O    3   -0.29875      0.99987     3.28985    0.00903     4.29875
      C    4    0.19540      0.99952     1.78554    0.01954     2.80460
      C    5    0.15432      0.99960     1.83058    0.01550     2.84568
      N    6   -0.14070      0.99960     2.62745    0.01366     3.64070
      N    7   -0.24185      0.99962     2.72831    0.01392     3.74185
      C    8    0.18373      0.99970     1.79378    0.02279     2.81627
      S    9   -0.17314      4.99960     3.15983    0.01371     8.17314
      N   10   -0.39597      0.99967     2.88723    0.00906     3.89597
      C   11   -0.30113      0.99963     2.29579    0.00572     3.30113
      O   12   -0.31392      0.99988     3.30456    0.00948     4.31392
      C   13   -0.01611      0.99958     2.00466    0.01187     3.01611
      C   14   -0.30173      0.99966     2.29801    0.00406     3.30173
      H   15    0.09985      0.00000     0.39881    0.00134     0.40015
      H   16    0.09709      0.00000     0.40188    0.00103     0.40291
      H   17    0.10581      0.00000     0.39279    0.00140     0.39419
      H   18    0.08002      0.00000     0.41850    0.00148     0.41998
      H   19    0.08884      0.00000     0.40936    0.00180     0.41116
      H   20    0.08730      0.00000     0.41040    0.00230     0.41270
      H   21    0.20501      0.00000     0.29205    0.00295     0.29499
      H   22    0.20496      0.00000     0.29339    0.00165     0.29504
      H   23    0.19629      0.00000     0.30261    0.00109     0.30371
      H   24    0.10156      0.00000     0.39754    0.00090     0.39844
      H   25    0.10870      0.00000     0.38965    0.00165     0.39130
      H   26    0.10354      0.00000     0.39542    0.00104     0.39646
      H   27    0.08924      0.00000     0.40937    0.00139     0.41076
      H   28    0.08444      0.00000     0.41444    0.00112     0.41556
      H   29    0.10621      0.00000     0.39284    0.00096     0.39379
      H   30    0.09438      0.00000     0.40474    0.00088     0.40562
      H   31    0.10600      0.00000     0.39302    0.00098     0.39400
 =======================================================================
   * Total *   -0.00000     17.99518    40.81462    0.19019    59.00000

 Normal termination of Gaussian 16 at Thu Dec 10 11:26:51 2020.
